Written by MDAnalysis
205661
    0DIM   BNZ1    1  27.511  13.703  23.120
    0DIM   BNZ2    2  27.365  13.810  23.084
    0DIM   BNZ3    3  27.559  13.943  23.164
    0DIM    BS1    4  27.714  13.817  23.180
    0DIM    BS2    5  27.395  14.041  23.123
    1DIM   BNZ1    6  10.326  17.393  17.689
    1DIM   BNZ2    7  10.386  17.535  17.790
    1DIM   BNZ3    8  10.450  17.317  17.891
    1DIM    BS1    9  10.396  17.175  17.761
    1DIM    BS2   10  10.503  17.479  17.988
    2DIM   BNZ1   11  22.604  15.094   4.936
    2DIM   BNZ2   12  22.464  15.057   5.050
    2DIM   BNZ3   13  22.399  15.220   4.873
    2DIM    BS1   14  22.553  15.234   4.747
    2DIM    BS2   15  22.263  15.173   5.005
    3DIM   BNZ1   16  16.264   3.221  21.903
    3DIM   BNZ2   17  16.160   3.369  21.868
    3DIM   BNZ3   18  16.287   3.394  22.081
    3DIM    BS1   19  16.409   3.236  22.095
    3DIM    BS2   20  16.168   3.541  22.031
    4DIM   BNZ1   21  27.758  12.806  24.492
    4DIM   BNZ2   22  27.877  12.666  24.503
    4DIM   BNZ3   23  27.918  12.803  24.300
    4DIM    BS1   24  27.796  12.962  24.312
    4DIM    BS2   25  28.032  12.647  24.325
    5DIM   BNZ1   26  28.921  21.678   5.475
    5DIM   BNZ2   27  28.962  21.620   5.305
    5DIM   BNZ3   28  28.927  21.429   5.460
    5DIM    BS1   29  28.864  21.506   5.634
    5DIM    BS2   30  28.975  21.386   5.276
    6DIM   BNZ1   31  21.735  26.381  28.620
    6DIM   BNZ2   32  21.659  26.548  28.632
    6DIM   BNZ3   33  21.900  26.563  28.574
    6DIM    BS1   34  21.964  26.375  28.545
    6DIM    BS2   35  21.804  26.731  28.596
    7DIM   BNZ1   36  17.878   8.807   6.305
    7DIM   BNZ2   37  18.028   8.732   6.230
    7DIM   BNZ3   38  17.919   8.893   6.074
    7DIM    BS1   39  17.771   8.980   6.176
    7DIM    BS2   40  18.079   8.801   6.009
    8DIM   BNZ1   41   6.009  24.198  10.819
    8DIM   BNZ2   42   6.122  24.319  10.737
    8DIM   BNZ3   43   6.249  24.139  10.852
    8DIM    BS1   44   6.115  24.007  10.919
    8DIM    BS2   45   6.354  24.278  10.763
    9DIM   BNZ1   46  28.667  10.305  17.568
    9DIM   BNZ2   47  28.616  10.138  17.625
    9DIM   BNZ3   48  28.596  10.160  17.378
    9DIM    BS1   49  28.673  10.338  17.330
    9DIM    BS2   50  28.541   9.989  17.456
   10DIM   BNZ1   51  10.066  10.661   6.728
   10DIM   BNZ2   52  10.152  10.500   6.756
   10DIM   BNZ3   53   9.972  10.538   6.924
   10DIM    BS1   54   9.876  10.705   6.869
   10DIM    BS2   55  10.075  10.374   6.941
   11DIM   BNZ1   56   9.288  23.213  20.988
   11DIM   BNZ2   57   9.343  23.205  21.164
   11DIM   BNZ3   58   9.120  23.313  21.143
   11DIM    BS1   59   9.066  23.297  20.951
   11DIM    BS2   60   9.196  23.300  21.323
   12DIM   BNZ1   61  25.397  10.091  15.219
   12DIM   BNZ2   62  25.435   9.938  15.315
   12DIM   BNZ3   63  25.334   9.886  15.093
   12DIM    BS1   64  25.318  10.059  14.994
   12DIM    BS2   65  25.377   9.734  15.209
   13DIM   BNZ1   66  11.827  17.474  25.106
   13DIM   BNZ2   67  11.937  17.330  25.072
   13DIM   BNZ3   68  12.059  17.513  25.188
   13DIM    BS1   69  11.923  17.652  25.236
   13DIM    BS2   70  12.162  17.354  25.141
   14DIM   BNZ1   71  13.793  25.641  12.120
   14DIM   BNZ2   72  13.678  25.780  12.155
   14DIM   BNZ3   73  13.609  25.654  11.952
   14DIM    BS1   74  13.730  25.495  11.939
   14DIM    BS2   75  13.500  25.808  12.002
   15DIM   BNZ1   76  14.987  20.190  22.591
   15DIM   BNZ2   77  14.831  20.215  22.685
   15DIM   BNZ3   78  14.912  19.980  22.703
   15DIM    BS1   79  15.091  19.974  22.614
   15DIM    BS2   80  14.745  20.023  22.795
   16DIM   BNZ1   81  25.483   5.617   6.434
   16DIM   BNZ2   82  25.432   5.794   6.440
   16DIM   BNZ3   83  25.236   5.642   6.456
   16DIM    BS1   84  25.307   5.455   6.468
   16DIM    BS2   85  25.200   5.834   6.458
   17DIM   BNZ1   86  11.282  26.291  23.888
   17DIM   BNZ2   87  11.391  26.251  24.030
   17DIM   BNZ3   88  11.314  26.045  23.913
   17DIM    BS1   89  11.213  26.105  23.751
   17DIM    BS2   90  11.428  26.020  24.069
   18DIM   BNZ1   91   0.344  18.248  18.233
   18DIM   BNZ2   92   0.164  18.257  18.192
   18DIM   BNZ3   93   0.275  18.068  18.075
   18DIM    BS1   94   0.462  18.059  18.143
   18DIM    BS2   95   0.084  18.095  18.040
   19DIM   BNZ1   96  22.685  28.052  23.611
   19DIM   BNZ2   97  22.662  27.872  23.579
   19DIM   BNZ3   98  22.645  27.924  23.822
   19DIM    BS1   99  22.652  28.123  23.839
   19DIM    BS2  100  22.627  27.736  23.770
   20DIM   BNZ1  101  28.680   4.096   7.545
   20DIM   BNZ2  102  28.635   4.090   7.366
   20DIM   BNZ3  103  28.470   4.222   7.498
   20DIM    BS1  104  28.542   4.236   7.684
   20DIM    BS2  105  28.436   4.203   7.306
   21DIM   BNZ1  106   1.908  13.981  10.023
   21DIM   BNZ2  107   1.923  13.799  10.040
   21DIM   BNZ3  108   2.044  13.882   9.839
   21DIM    BS1  109   2.035  14.082   9.845
   21DIM    BS2  110   2.047  13.689   9.871
   22DIM   BNZ1  111  24.937  15.629  14.034
   22DIM   BNZ2  112  24.808  15.500  14.063
   22DIM   BNZ3  113  24.955  15.442  13.870
   22DIM    BS1  114  25.100  15.580  13.864
   22DIM    BS2  115  24.810  15.318  13.912
   23DIM   BNZ1  116   6.726  22.484  23.869
   23DIM   BNZ2  117   6.823  22.357  23.777
   23DIM   BNZ3  118   6.723  22.263  23.985
   23DIM    BS1  119   6.606  22.406  24.063
   23DIM    BS2  120   6.832  22.143  23.877
   24DIM   BNZ1  121  13.124  14.965   9.178
   24DIM   BNZ2  122  13.202  15.113   9.101
   24DIM   BNZ3  123  13.146  14.939   8.931
   24DIM    BS1  124  13.045  14.795   9.027
   24DIM    BS2  125  13.233  15.101   8.866
   25DIM   BNZ1  126   5.714  11.782   9.837
   25DIM   BNZ2  127   5.806  11.731   9.989
   25DIM   BNZ3  128   5.841  11.972   9.937
   25DIM    BS1  129   5.721  12.017   9.783
   25DIM    BS2  130   5.934  11.901  10.093
   26DIM   BNZ1  131   0.827  13.691  13.139
   26DIM   BNZ2  132   0.996  13.762  13.165
   26DIM   BNZ3  133   0.953  13.569  13.317
   26DIM    BS1  134   0.777  13.491  13.264
   26DIM    BS2  135   1.126  13.658  13.333
   27DIM   BNZ1  136  11.128  13.928  27.258
   27DIM   BNZ2  137  11.093  14.100  27.203
   27DIM   BNZ3  138  11.043  13.934  27.024
   27DIM    BS1  139  11.067  13.753  27.104
   27DIM    BS2  140  11.015  14.122  26.980
   28DIM   BNZ1  141  -0.099  22.913  21.250
   28DIM   BNZ2  142   0.065  22.960  21.183
   28DIM   BNZ3  143   0.076  22.912  21.427
   28DIM    BS1  144  -0.104  22.843  21.480
   28DIM    BS2  145   0.242  22.968  21.341
   29DIM   BNZ1  146  10.003  25.303  24.695
   29DIM   BNZ2  147  10.074  25.181  24.577
   29DIM   BNZ3  148   9.829  25.147  24.608
   29DIM    BS1  149   9.764  25.298  24.721
   29DIM    BS2  150   9.922  25.023  24.489
   30DIM   BNZ1  151   9.204   2.806  11.892
   30DIM   BNZ2  152   9.257   2.701  12.034
   30DIM   BNZ3  153   9.057   2.606  11.920
   30DIM    BS1  154   9.025   2.718  11.757
   30DIM    BS2  155   9.125   2.509  12.076
   31DIM   BNZ1  156  12.866  21.413  12.819
   31DIM   BNZ2  157  12.964  21.363  12.967
   31DIM   BNZ3  158  13.091  21.520  12.823
   31DIM    BS1  159  12.966  21.581  12.679
   31DIM    BS2  160  13.182  21.454  12.982
   32DIM   BNZ1  161  17.197  19.610   9.896
   32DIM   BNZ2  162  17.274  19.765   9.833
   32DIM   BNZ3  163  17.437  19.577   9.839
   32DIM    BS1  164  17.335  19.413   9.891
   32DIM    BS2  165  17.504  19.750   9.777
   33DIM   BNZ1  166  13.958  20.740  19.125
   33DIM   BNZ2  167  13.778  20.713  19.094
   33DIM   BNZ3  168  13.840  20.662  19.330
   33DIM    BS1  169  14.032  20.715  19.352
   33DIM    BS2  170  13.653  20.635  19.279
   34DIM   BNZ1  171   9.189  24.700   2.231
   34DIM   BNZ2  172   9.010  24.725   2.263
   34DIM   BNZ3  173   9.135  24.681   2.473
   34DIM    BS1  174   9.329  24.674   2.425
   34DIM    BS2  175   8.943  24.707   2.490
   35DIM   BNZ1  176  27.807   6.335   0.231
   35DIM   BNZ2  177  27.852   6.386   0.402
   35DIM   BNZ3  178  28.024   6.235   0.305
   35DIM    BS1  179  27.972   6.204   0.114
   35DIM    BS2  180  28.053   6.297   0.488
   36DIM   BNZ1  181  11.523  17.422  12.584
   36DIM   BNZ2  182  11.615  17.566  12.517
   36DIM   BNZ3  183  11.415  17.515  12.379
   36DIM    BS1  184  11.315  17.370  12.474
   36DIM    BS2  185  11.527  17.663  12.320
   37DIM   BNZ1  186  16.822  20.065   1.103
   37DIM   BNZ2  187  16.678  19.979   1.179
   37DIM   BNZ3  188  16.867  19.822   1.140
   37DIM    BS1  189  17.021  19.932   1.077
   37DIM    BS2  190  16.704  19.747   1.217
   38DIM   BNZ1  191   7.386   0.734  26.651
   38DIM   BNZ2  192   7.567   0.702  26.634
   38DIM   BNZ3  193   7.518   0.946  26.649
   38DIM    BS1  194   7.322   0.963  26.687
   38DIM    BS2  195   7.705   0.895  26.628
   39DIM   BNZ1  196  22.104   9.193   8.897
   39DIM   BNZ2  197  22.152   9.015   8.895
   39DIM   BNZ3  198  21.907   9.044   8.860
   39DIM    BS1  199  21.874   9.240   8.845
   39DIM    BS2  200  21.975   8.861   8.864
   40DIM   BNZ1  201  28.107   1.913   6.499
   40DIM   BNZ2  202  28.265   1.819   6.495
   40DIM   BNZ3  203  28.106   1.723   6.660
   40DIM    BS1  204  27.933   1.823   6.639
   40DIM    BS2  205  28.281   1.637   6.645
   41DIM   BNZ1  206  25.452   6.986  12.635
   41DIM   BNZ2  207  25.387   7.146  12.698
   41DIM   BNZ3  208  25.290   7.089  12.476
   41DIM    BS1  209  25.355   6.905  12.431
   41DIM    BS2  210  25.234   7.258  12.556
   42DIM   BNZ1  211  27.603  17.492  24.116
   42DIM   BNZ2  212  27.699  17.477  24.272
   42DIM   BNZ3  213  27.811  17.358  24.085
   42DIM    BS1  214  27.707  17.399  23.919
   42DIM    BS2  215  27.898  17.349  24.260
   43DIM   BNZ1  216  23.263  28.785  19.485
   43DIM   BNZ2  217  23.420  28.871  19.526
   43DIM   BNZ3  218  23.226  29.026  19.534
   43DIM    BS1  219  23.062  28.915  19.507
   43DIM    BS2  220  23.402  29.102  19.573
   44DIM   BNZ1  221   2.529   9.803  14.432
   44DIM   BNZ2  222   2.346   9.790  14.448
   44DIM   BNZ3  223   2.463   9.692  14.645
   44DIM    BS1  224   2.658   9.731  14.623
   44DIM    BS2  225   2.268   9.683  14.644
   45DIM   BNZ1  226   9.675  17.494  27.004
   45DIM   BNZ2  227   9.857  17.525  27.001
   45DIM   BNZ3  228   9.731  17.706  26.886
   45DIM    BS1  229   9.537  17.669  26.914
   45DIM    BS2  230   9.926  17.721  26.889
   46DIM   BNZ1  231   0.919  14.258  15.994
   46DIM   BNZ2  232   0.930  14.139  15.854
   46DIM   BNZ3  233   0.756  14.311  15.813
   46DIM    BS1  234   0.769  14.444  15.963
   46DIM    BS2  235   0.778  14.174  15.676
   47DIM   BNZ1  236   7.912  17.560  14.637
   47DIM   BNZ2  237   8.089  17.601  14.667
   47DIM   BNZ3  238   8.023  17.647  14.431
   47DIM    BS1  239   7.825  17.616  14.419
   47DIM    BS2  240   8.209  17.681  14.479
   48DIM   BNZ1  241   4.352  26.511  21.180
   48DIM   BNZ2  242   4.412  26.344  21.229
   48DIM   BNZ3  243   4.522  26.523  21.362
   48DIM    BS1  244   4.433  26.695  21.312
   48DIM    BS2  245   4.577  26.340  21.399
   49DIM   BNZ1  246   8.780   1.094  27.434
   49DIM   BNZ2  247   8.599   1.056  27.432
   49DIM   BNZ3  248   8.706   1.005  27.213
   49DIM    BS1  249   8.903   1.032  27.236
   49DIM    BS2  250   8.514   0.974  27.227
   50DIM   BNZ1  251  23.762  20.592  28.855
   50DIM   BNZ2  252  23.601  20.634  28.934
   50DIM   BNZ3  253  23.791  20.742  29.053
   50DIM    BS1  254  23.955  20.704  28.944
   50DIM    BS2  255  23.613  20.773  29.126
   51DIM   BNZ1  256  22.243  25.306  18.663
   51DIM   BNZ2  257  22.348  25.431  18.748
   51DIM   BNZ3  258  22.280  25.508  18.521
   51DIM    BS1  259  22.152  25.372  18.450
   51DIM    BS2  260  22.396  25.627  18.624
   52DIM   BNZ1  261  12.082  12.547  20.196
   52DIM   BNZ2  262  12.261  12.507  20.181
   52DIM   BNZ3  263  12.153  12.378  20.365
   52DIM    BS1  264  11.957  12.418  20.355
   52DIM    BS2  265  12.344  12.350  20.338
   53DIM   BNZ1  266  22.424  23.792  15.368
   53DIM   BNZ2  267  22.584  23.854  15.301
   53DIM   BNZ3  268  22.609  23.771  15.535
   53DIM    BS1  269  22.433  23.690  15.586
   53DIM    BS2  270  22.769  23.844  15.449
   54DIM   BNZ1  271   7.350   1.636   4.098
   54DIM   BNZ2  272   7.454   1.637   4.250
   54DIM   BNZ3  273   7.250   1.497   4.280
   54DIM    BS1  274   7.159   1.489   4.102
   54DIM    BS2  275   7.371   1.512   4.433
   55DIM   BNZ1  276  11.735   1.347  19.345
   55DIM   BNZ2  277  11.676   1.512  19.402
   55DIM   BNZ3  278  11.864   1.428  19.542
   55DIM    BS1  279  11.929   1.259  19.456
   55DIM    BS2  280  11.788   1.600  19.591
   56DIM   BNZ1  281  13.915  18.811   7.083
   56DIM   BNZ2  282  13.849  18.922   6.951
   56DIM   BNZ3  283  13.801  18.682   6.902
   56DIM    BS1  284  13.861  18.578   7.062
   56DIM    BS2  285  13.741  18.813   6.770
   57DIM   BNZ1  286   0.201  13.893   5.168
   57DIM   BNZ2  287   0.139  13.734   5.236
   57DIM   BNZ3  288   0.054  13.928   5.366
   57DIM    BS1  289   0.113  14.093   5.269
   57DIM    BS2  290   0.000  13.751   5.427
   58DIM   BNZ1  291   4.730  11.324  24.284
   58DIM   BNZ2  292   4.602  11.453  24.314
   58DIM   BNZ3  293   4.536  11.302  24.128
   58DIM    BS1  294   4.674  11.156  24.121
   58DIM    BS2  295   4.414  11.448  24.171
   59DIM   BNZ1  296   0.415  11.321  22.532
   59DIM   BNZ2  297   0.273  11.208  22.568
   59DIM   BNZ3  298   0.373  11.160  22.345
   59DIM    BS1  299   0.536  11.276  22.329
   59DIM    BS2  300   0.220  11.052  22.398
   60DIM   BNZ1  301  15.892   0.929  24.618
   60DIM   BNZ2  302  15.996   1.001  24.752
   60DIM   BNZ3  303  15.915   1.177  24.595
   60DIM    BS1  304  15.789   1.087  24.469
   60DIM    BS2  305  16.031   1.235  24.742
   61DIM   BNZ1  306  14.976  24.954  13.544
   61DIM   BNZ2  307  15.146  24.893  13.506
   61DIM   BNZ3  308  15.049  24.776  13.703
   61DIM    BS1  309  14.859  24.837  13.719
   61DIM    BS2  310  15.231  24.726  13.651
   62DIM   BNZ1  311  23.533  10.150   2.305
   62DIM   BNZ2  312  23.422  10.224   2.177
   62DIM   BNZ3  313  23.441   9.977   2.150
   62DIM    BS1  314  23.547   9.909   2.306
   62DIM    BS2  315  23.330  10.072   2.021
   63DIM   BNZ1  316  28.818  14.455   3.438
   63DIM   BNZ2  317  28.760  14.356   3.295
   63DIM   BNZ3  318  28.601  14.341   3.485
   63DIM    BS1  319  28.667  14.469   3.625
   63DIM    BS2  320  28.557  14.238   3.326
   64DIM   BNZ1  321  23.055  28.960   7.426
   64DIM   BNZ2  322  22.925  28.830   7.428
   64DIM   BNZ3  323  22.837  29.045   7.339
   64DIM    BS1  324  22.993  29.170   7.325
   64DIM    BS2  325  22.711  28.896   7.351
   65DIM   BNZ1  326  17.655  11.307  20.784
   65DIM   BNZ2  327  17.796  11.368  20.885
   65DIM   BNZ3  328  17.603  11.303  21.027
   65DIM    BS1  329  17.467  11.222  20.906
   65DIM    BS2  330  17.761  11.374  21.119
   66DIM   BNZ1  331   0.859  13.550  28.567
   66DIM   BNZ2  332   0.695  13.611  28.512
   66DIM   BNZ3  333   0.722  13.633  28.758
   66DIM    BS1  334   0.911  13.582  28.800
   66DIM    BS2  335   0.551  13.690  28.683
   67DIM   BNZ1  336   5.998  25.460   5.200
   67DIM   BNZ2  337   5.993  25.562   5.047
   67DIM   BNZ3  338   6.055  25.326   4.998
   67DIM    BS1  339   6.037  25.225   5.169
   67DIM    BS2  340   6.048  25.449   4.846
   68DIM   BNZ1  341  20.535  27.200  17.364
   68DIM   BNZ2  342  20.537  27.361  17.275
   68DIM   BNZ3  343  20.455  27.177  17.129
   68DIM    BS1  344  20.440  27.014  17.244
   68DIM    BS2  345  20.467  27.354  17.049
   69DIM   BNZ1  346  12.696  14.054  17.639
   69DIM   BNZ2  347  12.514  14.074  17.652
   69DIM   BNZ3  348  12.627  14.126  17.867
   69DIM    BS1  349  12.824  14.119  17.832
   69DIM    BS2  350  12.432  14.139  17.864
   70DIM   BNZ1  351   0.743   2.881  12.945
   70DIM   BNZ2  352   0.906   2.835  13.018
   70DIM   BNZ3  353   0.932   2.934  12.791
   70DIM    BS1  354   0.750   2.996  12.734
   70DIM    BS2  355   1.095   2.876  12.881
   71DIM   BNZ1  356  18.574  25.288   3.580
   71DIM   BNZ2  357  18.569  25.105   3.603
   71DIM   BNZ3  358  18.557  25.167   3.363
   71DIM    BS1  359  18.584  25.365   3.352
   71DIM    BS2  360  18.549  24.977   3.406
   72DIM   BNZ1  361  12.618  24.734  21.948
   72DIM   BNZ2  362  12.516  24.695  21.800
   72DIM   BNZ3  363  12.396  24.846  21.957
   72DIM    BS1  364  12.526  24.894  22.101
   72DIM    BS2  365  12.299  24.792  21.796
   73DIM   BNZ1  366  11.590  17.876  11.419
   73DIM   BNZ2  367  11.651  17.743  11.531
   73DIM   BNZ3  368  11.732  17.968  11.602
   73DIM    BS1  369  11.641  18.102  11.484
   73DIM    BS2  370  11.791  17.815  11.708
   74DIM   BNZ1  371  17.175  11.547  17.101
   74DIM   BNZ2  372  17.033  11.648  17.044
   74DIM   BNZ3  373  17.027  11.420  16.946
   74DIM    BS1  374  17.175  11.316  17.032
   74DIM    BS2  375  16.885  11.542  16.892
   75DIM   BNZ1  376  20.630   2.069   8.784
   75DIM   BNZ2  377  20.777   2.158   8.850
   75DIM   BNZ3  378  20.566   2.277   8.906
   75DIM    BS1  379  20.416   2.160   8.845
   75DIM    BS2  380  20.733   2.360   8.965
   76DIM   BNZ1  381  18.634  14.540  16.607
   76DIM   BNZ2  382  18.714  14.705  16.600
   76DIM   BNZ3  383  18.775  14.584  16.808
   76DIM    BS1  384  18.698  14.400  16.793
   76DIM    BS2  385  18.849  14.763  16.786
   77DIM   BNZ1  386  17.337  14.365   9.086
   77DIM   BNZ2  387  17.493  14.400   8.995
   77DIM   BNZ3  388  17.309  14.334   8.840
   77DIM    BS1  389  17.143  14.319   8.951
   77DIM    BS2  390  17.483  14.370   8.760
   78DIM   BNZ1  391   3.641   1.405  19.953
   78DIM   BNZ2  392   3.781   1.433  20.069
   78DIM   BNZ3  393   3.822   1.543  19.850
   78DIM    BS1  394   3.654   1.522  19.743
   78DIM    BS2  395   3.963   1.559  19.984
   79DIM   BNZ1  396  12.164  25.409  13.142
   79DIM   BNZ2  397  12.327  25.379  13.061
   79DIM   BNZ3  398  12.304  25.246  13.270
   79DIM    BS1  399  12.117  25.273  13.335
   79DIM    BS2  400  12.472  25.230  13.172
   80DIM   BNZ1  401  15.292  18.332  14.014
   80DIM   BNZ2  402  15.135  18.348  14.110
   80DIM   BNZ3  403  15.293  18.535  14.159
   80DIM    BS1  404  15.448  18.514  14.035
   80DIM    BS2  405  15.122  18.535  14.255
   81DIM   BNZ1  406  10.360   0.466  28.068
   81DIM   BNZ2  407  10.290   0.460  28.238
   81DIM   BNZ3  408  10.127   0.377  28.068
   81DIM    BS1  409  10.224   0.371  27.893
   81DIM    BS2  410  10.067   0.380  28.254
   82DIM   BNZ1  411  26.038  13.250  11.806
   82DIM   BNZ2  412  25.951  13.266  11.644
   82DIM   BNZ3  413  25.876  13.439  11.806
   82DIM    BS1  414  25.992  13.422  11.968
   82DIM    BS2  415  25.791  13.439  11.630
   83DIM   BNZ1  416  23.343  20.942  28.723
   83DIM   BNZ2  417  23.526  20.938  28.740
   83DIM   BNZ3  418  23.456  21.056  28.532
   83DIM    BS1  419  23.257  21.068  28.537
   83DIM    BS2  420  23.648  21.040  28.564
   84DIM   BNZ1  421  27.637  27.591  12.753
   84DIM   BNZ2  422  27.586  27.426  12.688
   84DIM   BNZ3  423  27.624  27.589  12.504
   84DIM    BS1  424  27.697  27.755  12.588
   84DIM    BS2  425  27.565  27.410  12.453
   85DIM   BNZ1  426  23.324  14.280  17.571
   85DIM   BNZ2  427  23.472  14.364  17.500
   85DIM   BNZ3  428  23.536  14.196  17.671
   85DIM    BS1  429  23.369  14.100  17.724
   85DIM    BS2  430  23.681  14.297  17.588
   86DIM   BNZ1  431  14.643  14.882   3.178
   86DIM   BNZ2  432  14.801  14.821   3.249
   86DIM   BNZ3  433  14.658  14.926   3.423
   86DIM    BS1  434  14.483  14.969   3.336
   86DIM    BS2  435  14.832  14.858   3.481
   87DIM   BNZ1  436   5.165  19.702  22.577
   87DIM   BNZ2  437   4.999  19.773  22.542
   87DIM   BNZ3  438   5.112  19.699  22.334
   87DIM    BS1  439   5.281  19.607  22.389
   87DIM    BS2  440   4.936  19.781  22.314
   88DIM   BNZ1  441   9.036  19.297  19.132
   88DIM   BNZ2  442   9.206  19.228  19.139
   88DIM   BNZ3  443   9.206  19.474  19.174
   88DIM    BS1  444   9.015  19.531  19.184
   88DIM    BS2  445   9.380  19.385  19.175
   89DIM   BNZ1  446  28.385  25.037  28.805
   89DIM   BNZ2  447  28.358  24.934  28.954
   89DIM   BNZ3  448  28.562  25.075  28.976
   89DIM    BS1  449  28.566  25.195  28.816
   89DIM    BS2  450  28.521  24.956  29.125
   90DIM   BNZ1  451   9.105  23.005   2.745
   90DIM   BNZ2  452   8.962  22.898   2.790
   90DIM   BNZ3  453   9.014  22.885   2.547
   90DIM    BS1  454   9.182  22.989   2.518
   90DIM    BS2  455   8.862  22.780   2.610
   91DIM   BNZ1  456  18.979  21.838  27.361
   91DIM   BNZ2  457  18.911  21.675  27.308
   91DIM   BNZ3  458  18.774  21.864  27.222
   91DIM    BS1  459  18.870  22.032  27.271
   91DIM    BS2  460  18.714  21.683  27.178
   92DIM   BNZ1  461  18.655  12.746  19.620
   92DIM   BNZ2  462  18.586  12.888  19.524
   92DIM   BNZ3  463  18.594  12.938  19.767
   92DIM    BS1  464  18.688  12.785  19.855
   92DIM    BS2  465  18.519  13.076  19.651
   93DIM   BNZ1  466   8.938  16.131   3.503
   93DIM   BNZ2  467   8.883  16.288   3.425
   93DIM   BNZ3  468   8.963  16.324   3.658
   93DIM    BS1  469   9.038  16.149   3.721
   93DIM    BS2  470   8.897  16.481   3.562
   94DIM   BNZ1  471  23.711   6.238  23.855
   94DIM   BNZ2  472  23.551   6.262  23.768
   94DIM   BNZ3  473  23.525   6.118  23.969
   94DIM    BS1  474  23.701   6.117  24.063
   94DIM    BS2  475  23.364   6.151  23.862
   95DIM   BNZ1  476  24.799   3.538  18.325
   95DIM   BNZ2  477  24.755   3.629  18.479
   95DIM   BNZ3  478  24.996   3.655  18.423
   95DIM    BS1  479  25.024   3.568  18.245
   95DIM    BS2  480  24.933   3.742  18.586
   96DIM   BNZ1  481  19.657  16.271  21.878
   96DIM   BNZ2  482  19.616  16.143  22.004
   96DIM   BNZ3  483  19.611  16.050  21.773
   96DIM    BS1  484  19.677  16.194  21.651
   96DIM    BS2  485  19.566  15.928  21.919
   97DIM   BNZ1  486   5.863   7.995   8.136
   97DIM   BNZ2  487   5.929   7.835   8.198
   97DIM   BNZ3  488   5.979   8.021   8.355
   97DIM    BS1  489   5.885   8.183   8.285
   97DIM    BS2  490   6.046   7.844   8.404
   98DIM   BNZ1  491   0.880   3.973  13.427
   98DIM   BNZ2  492   0.979   3.825  13.473
   98DIM   BNZ3  493   0.879   3.801  13.246
   98DIM    BS1  494   0.792   3.976  13.203
   98DIM    BS2  495   0.985   3.651  13.312
   99DIM   BNZ1  496  24.115  28.484  15.265
   99DIM   BNZ2  497  24.204  28.327  15.229
   99DIM   BNZ3  498  23.969  28.320  15.147
   99DIM    BS1  499  23.892  28.503  15.176
   99DIM    BS2  500  24.077  28.160  15.120
  100DIM   BNZ1  501  11.032   1.267  21.108
  100DIM   BNZ2  502  11.105   1.108  21.167
  100DIM   BNZ3  503  11.094   1.116  20.919
  100DIM    BS1  504  11.032   1.300  20.870
  100DIM    BS2  505  11.165   0.953  20.999
  101DIM   BNZ1  506   4.410  20.010  12.837
  101DIM   BNZ2  507   4.459  20.086  12.676
  101DIM   BNZ3  508   4.652  19.974  12.786
  101DIM    BS1  509   4.580  19.879  12.947
  101DIM    BS2  510   4.687  20.064  12.616
  102DIM   BNZ1  511  11.929  12.245   9.304
  102DIM   BNZ2  512  12.049  12.149   9.203
  102DIM   BNZ3  513  11.832  12.178   9.085
  102DIM    BS1  514  11.720  12.299   9.198
  102DIM    BS2  515  11.970  12.075   8.992
  103DIM   BNZ1  516   6.840  16.964  14.625
  103DIM   BNZ2  517   6.747  17.054  14.494
  103DIM   BNZ3  518   6.845  17.211  14.661
  103DIM    BS1  519   6.958  17.101  14.784
  103DIM    BS2  520   6.740  17.290  14.517
  104DIM   BNZ1  521  14.649  17.150   8.817
  104DIM   BNZ2  522  14.643  17.097   8.994
  104DIM   BNZ3  523  14.833  16.992   8.872
  104DIM    BS1  524  14.838  17.073   8.690
  104DIM    BS2  525  14.810  16.943   9.060
  105DIM   BNZ1  526  26.298  14.194  13.610
  105DIM   BNZ2  527  26.366  14.036  13.543
  105DIM   BNZ3  528  26.465  14.233  13.428
  105DIM    BS1  529  26.397  14.396  13.524
  105DIM    BS2  530  26.523  14.057  13.367
  106DIM   BNZ1  531   5.664  13.546   4.165
  106DIM   BNZ2  532   5.839  13.509   4.122
  106DIM   BNZ3  533   5.744  13.335   4.272
  106DIM    BS1  534   5.549  13.378   4.294
  106DIM    BS2  535   5.930  13.314   4.218
  107DIM   BNZ1  536  27.704  11.111  28.150
  107DIM   BNZ2  537  27.791  11.262  28.090
  107DIM   BNZ3  538  27.651  11.160  27.912
  107DIM    BS1  539  27.549  11.011  27.997
  107DIM    BS2  540  27.754  11.319  27.864
  108DIM   BNZ1  541   0.691  15.550   4.441
  108DIM   BNZ2  542   0.723  15.443   4.295
  108DIM   BNZ3  543   0.730  15.313   4.508
  108DIM    BS1  544   0.674  15.439   4.654
  108DIM    BS2  545   0.765  15.215   4.343
  109DIM   BNZ1  546  21.451  22.241   1.795
  109DIM   BNZ2  547  21.412  22.334   1.641
  109DIM   BNZ3  548  21.633  22.401   1.734
  109DIM    BS1  549  21.670  22.278   1.888
  109DIM    BS2  550  21.573  22.493   1.573
  110DIM   BNZ1  551   8.940  17.145  21.724
  110DIM   BNZ2  552   8.782  17.123  21.816
  110DIM   BNZ3  553   8.925  17.299  21.920
  110DIM    BS1  554   9.083  17.324  21.799
  110DIM    BS2  555   8.755  17.261  22.007
  111DIM   BNZ1  556  22.424   8.191  10.366
  111DIM   BNZ2  557  22.254   8.251  10.330
  111DIM   BNZ3  558  22.257   8.006  10.374
  111DIM    BS1  559  22.443   7.960  10.431
  111DIM    BS2  560  22.084   8.085  10.330
  112DIM   BNZ1  561  27.682   5.617   9.533
  112DIM   BNZ2  562  27.797   5.508   9.440
  112DIM   BNZ3  563  27.833   5.748   9.385
  112DIM    BS1  564  27.716   5.854   9.507
  112DIM    BS2  565  27.945   5.618   9.291
  113DIM   BNZ1  566   3.060  10.799  20.309
  113DIM   BNZ2  567   2.928  10.841  20.430
  113DIM   BNZ3  568   3.151  10.821  20.540
  113DIM    BS1  569   3.285  10.795  20.394
  113DIM    BS2  570   2.998  10.862  20.655
  114DIM   BNZ1  571  18.197   1.265  22.495
  114DIM   BNZ2  572  18.325   1.134  22.474
  114DIM   BNZ3  573  18.199   1.106  22.687
  114DIM    BS1  574  18.052   1.241  22.686
  114DIM    BS2  575  18.342   0.977  22.651
  115DIM   BNZ1  576  14.263  24.317  25.045
  115DIM   BNZ2  577  14.417  24.244  24.975
  115DIM   BNZ3  578  14.350  24.132  25.187
  115DIM    BS1  579  14.173  24.208  25.240
  115DIM    BS2  580  14.514  24.069  25.101
  116DIM   BNZ1  581  18.271   6.312  22.046
  116DIM   BNZ2  582  18.448   6.318  22.096
  116DIM   BNZ3  583  18.366   6.541  22.023
  116DIM    BS1  584  18.169   6.523  21.991
  116DIM    BS2  585  18.554   6.529  22.076
  117DIM   BNZ1  586  24.352  22.956   5.353
  117DIM   BNZ2  587  24.278  23.119   5.315
  117DIM   BNZ3  588  24.499  23.144   5.427
  117DIM    BS1  589  24.575  22.960   5.444
  117DIM    BS2  590  24.403  23.308   5.383
  118DIM   BNZ1  591  15.446   3.517  14.121
  118DIM   BNZ2  592  15.601   3.613  14.137
  118DIM   BNZ3  593  15.482   3.667  13.925
  118DIM    BS1  594  15.307   3.570  13.931
  118DIM    BS2  595  15.652   3.758  13.956
  119DIM   BNZ1  596   1.798  11.026  25.664
  119DIM   BNZ2  597   1.919  11.112  25.773
  119DIM   BNZ3  598   1.918  11.209  25.545
  119DIM    BS1  599   1.769  11.120  25.445
  119DIM    BS2  600   2.044  11.286  25.673
  120DIM   BNZ1  601  24.841   2.996   5.646
  120DIM   BNZ2  602  24.924   3.157   5.678
  120DIM   BNZ3  603  24.802   3.159   5.462
  120DIM    BS1  604  24.702   2.986   5.450
  120DIM    BS2  605  24.899   3.321   5.510
  121DIM   BNZ1  606  26.769  14.565   7.436
  121DIM   BNZ2  607  26.808  14.635   7.270
  121DIM   BNZ3  608  26.995  14.669   7.431
  121DIM    BS1  609  26.946  14.572   7.598
  121DIM    BS2  610  27.019  14.740   7.250
  122DIM   BNZ1  611  15.646  21.943  13.414
  122DIM   BNZ2  612  15.502  22.056  13.391
  122DIM   BNZ3  613  15.579  22.053  13.628
  122DIM    BS1  614  15.746  21.943  13.632
  122DIM    BS2  615  15.424  22.164  13.587
  123DIM   BNZ1  616   6.290  22.694  16.367
  123DIM   BNZ2  617   6.134  22.739  16.454
  123DIM   BNZ3  618   6.114  22.519  16.340
  123DIM    BS1  619   6.296  22.475  16.268
  123DIM    BS2  620   5.956  22.584  16.434
  124DIM   BNZ1  621   4.456  19.607  24.184
  124DIM   BNZ2  622   4.436  19.781  24.241
  124DIM   BNZ3  623   4.246  19.639  24.314
  124DIM    BS1  624   4.290  19.451  24.263
  124DIM    BS2  625   4.239  19.828  24.364
  125DIM   BNZ1  626  15.156   3.181  28.380
  125DIM   BNZ2  627  15.226   3.279  28.519
  125DIM   BNZ3  628  15.328   3.053  28.507
  125DIM    BS1  629  15.258   2.966  28.341
  125DIM    BS2  630  15.389   3.169  28.652
  126DIM   BNZ1  631  26.524   1.482  10.956
  126DIM   BNZ2  632  26.415   1.425  10.818
  126DIM   BNZ3  633  26.359   1.657  10.889
  126DIM    BS1  634  26.497   1.711  11.024
  126DIM    BS2  635  26.251   1.580  10.746
  127DIM   BNZ1  636  16.528   0.270  20.968
  127DIM   BNZ2  637  16.596   0.411  21.065
  127DIM   BNZ3  638  16.379   0.331  21.158
  127DIM    BS1  639  16.329   0.167  21.054
  127DIM    BS2  640  16.463   0.483  21.248
  128DIM   BNZ1  641  22.109  12.723   7.577
  128DIM   BNZ2  642  21.974  12.837   7.524
  128DIM   BNZ3  643  22.089  12.920   7.729
  128DIM    BS1  644  22.244  12.798   7.761
  128DIM    BS2  645  21.940  13.027   7.661
  129DIM   BNZ1  646  25.751  20.861   8.810
  129DIM   BNZ2  647  25.846  21.011   8.760
  129DIM   BNZ3  648  25.947  20.900   8.959
  129DIM    BS1  649  25.845  20.730   8.988
  129DIM    BS2  650  26.033  21.064   8.896
  130DIM   BNZ1  651  26.853  14.174  14.538
  130DIM   BNZ2  652  26.801  14.004  14.492
  130DIM   BNZ3  653  27.005  14.001  14.635
  130DIM    BS1  654  27.037  14.190  14.693
  130DIM    BS2  655  26.938  13.828  14.573
  131DIM   BNZ1  656  27.242  18.704  13.611
  131DIM   BNZ2  657  27.182  18.844  13.508
  131DIM   BNZ3  658  27.242  18.920  13.737
  131DIM    BS1  659  27.323  18.762  13.830
  131DIM    BS2  660  27.173  19.055  13.615
  132DIM   BNZ1  661  23.223   7.299  16.899
  132DIM   BNZ2  662  23.290   7.459  16.837
  132DIM   BNZ3  663  23.048   7.434  16.782
  132DIM    BS1  664  22.986   7.266  16.872
  132DIM    BS2  665  23.136   7.597  16.720
  133DIM   BNZ1  666  17.362  12.955  10.600
  133DIM   BNZ2  667  17.432  13.126  10.600
  133DIM   BNZ3  668  17.552  12.978  10.761
  133DIM    BS1  669  17.479  12.794  10.735
  133DIM    BS2  670  17.611  13.164  10.750
  134DIM   BNZ1  671   2.200  20.598  18.107
  134DIM   BNZ2  672   2.328  20.731  18.102
  134DIM   BNZ3  673   2.409  20.529  18.224
  134DIM    BS1  674   2.268  20.389  18.203
  134DIM    BS2  675   2.531  20.681  18.213
  135DIM   BNZ1  676  12.453   2.332   0.117
  135DIM   BNZ2  677  12.614   2.250   0.155
  135DIM   BNZ3  678  12.632   2.397  -0.045
  135DIM    BS1  679  12.457   2.493  -0.062
  135DIM    BS2  680  12.792   2.299   0.008
  136DIM   BNZ1  681  22.564   1.813  18.301
  136DIM   BNZ2  682  22.572   1.980  18.377
  136DIM   BNZ3  683  22.681   1.976  18.153
  136DIM    BS1  684  22.647   1.795  18.076
  136DIM    BS2  685  22.684   2.145  18.250
  137DIM   BNZ1  686  26.855  20.689  20.490
  137DIM   BNZ2  687  26.994  20.804  20.456
  137DIM   BNZ3  688  26.838  20.789  20.263
  137DIM    BS1  689  26.684  20.677  20.322
  137DIM    BS2  690  26.994  20.906  20.242
  138DIM   BNZ1  691  22.483  16.776  11.641
  138DIM   BNZ2  692  22.625  16.705  11.548
  138DIM   BNZ3  693  22.421  16.718  11.407
  138DIM    BS1  694  22.282  16.813  11.514
  138DIM    BS2  695  22.581  16.642  11.324
  139DIM   BNZ1  696  26.802   0.402  14.352
  139DIM   BNZ2  697  26.638   0.329  14.393
  139DIM   BNZ3  698  26.644   0.574  14.440
  139DIM    BS1  699  26.819   0.641  14.373
  139DIM    BS2  700  26.478   0.480  14.482
  140DIM   BNZ1  701  20.180  24.964  12.174
  140DIM   BNZ2  702  20.004  25.011  12.202
  140DIM   BNZ3  703  20.024  24.776  12.121
  140DIM    BS1  704  20.219  24.734  12.115
  140DIM    BS2  705  19.843  24.844  12.152
  141DIM   BNZ1  706   9.567  16.364  28.378
  141DIM   BNZ2  707   9.393  16.305  28.386
  141DIM   BNZ3  708   9.448  16.453  28.578
  141DIM    BS1  709   9.632  16.525  28.545
  141DIM    BS2  710   9.267  16.378  28.572
  142DIM   BNZ1  711  17.447  22.531  14.434
  142DIM   BNZ2  712  17.610  22.452  14.466
  142DIM   BNZ3  713  17.607  22.569  14.247
  142DIM    BS1  714  17.432  22.665  14.235
  142DIM    BS2  715  17.772  22.477  14.295
  143DIM   BNZ1  716  18.937   0.273  16.390
  143DIM   BNZ2  717  19.075   0.337  16.494
  143DIM   BNZ3  718  18.907   0.514  16.446
  143DIM    BS1  719  18.755   0.426  16.350
  143DIM    BS2  720  19.063   0.566  16.552
  144DIM   BNZ1  721  22.527  14.886  18.943
  144DIM   BNZ2  722  22.699  14.823  18.965
  144DIM   BNZ3  723  22.673  14.946  18.750
  144DIM    BS1  724  22.489  15.025  18.750
  144DIM    BS2  725  22.848  14.869  18.788
  145DIM   BNZ1  726   6.529  25.017  18.251
  145DIM   BNZ2  727   6.424  25.168  18.245
  145DIM   BNZ3  728   6.439  25.058  18.022
  145DIM    BS1  729   6.539  24.886  18.049
  145DIM    BS2  730   6.334  25.222  18.033
  146DIM   BNZ1  731  11.001  17.852  14.883
  146DIM   BNZ2  732  11.171  17.912  14.847
  146DIM   BNZ3  733  11.021  17.937  14.650
  146DIM    BS1  734  10.837  17.886  14.711
  146DIM    BS2  735  11.207  17.993  14.627
  147DIM   BNZ1  736  24.511   6.174  24.859
  147DIM   BNZ2  737  24.661   6.073  24.893
  147DIM   BNZ3  738  24.691   6.214  24.691
  147DIM    BS1  739  24.530   6.332  24.678
  147DIM    BS2  740  24.840   6.097  24.740
  148DIM   BNZ1  741  28.371  14.245   6.052
  148DIM   BNZ2  742  28.511  14.351   5.995
  148DIM   BNZ3  743  28.557  14.250   6.218
  148DIM    BS1  744  28.407  14.123   6.256
  148DIM    BS2  745  28.694  14.368   6.145
  149DIM   BNZ1  746  24.049  10.471  28.213
  149DIM   BNZ2  747  23.909  10.361  28.169
  149DIM   BNZ3  748  23.890  10.583  28.057
  149DIM    BS1  749  24.058  10.683  28.099
  149DIM    BS2  750  23.747  10.454  28.024
  150DIM   BNZ1  751  16.042   1.815  21.453
  150DIM   BNZ2  752  16.173   1.688  21.478
  150DIM   BNZ3  753  16.011   1.691  21.667
  150DIM    BS1  754  15.866   1.819  21.617
  150DIM    BS2  755  16.159   1.564  21.679
  151DIM   BNZ1  756  10.416  27.418  24.469
  151DIM   BNZ2  757  10.378  27.240  24.439
  151DIM   BNZ3  758  10.241  27.332  24.625
  151DIM    BS1  759  10.279  27.529  24.633
  151DIM    BS2  760  10.216  27.143  24.582
  152DIM   BNZ1  761  13.360  10.397   6.633
  152DIM   BNZ2  762  13.278  10.387   6.468
  152DIM   BNZ3  763  13.423  10.189   6.509
  152DIM    BS1  764  13.489  10.204   6.697
  152DIM    BS2  765  13.331  10.197   6.337
  153DIM   BNZ1  766  27.702   0.118  15.217
  153DIM   BNZ2  767  27.584   0.011  15.125
  153DIM   BNZ3  768  27.623   0.227  15.007
  153DIM    BS1  769  27.767   0.323  15.107
  153DIM    BS2  770  27.496   0.102  14.925
  154DIM   BNZ1  771  28.427  15.323  12.551
  154DIM   BNZ2  772  28.275  15.312  12.447
  154DIM   BNZ3  773  28.466  15.188  12.345
  154DIM    BS1  774  28.615  15.192  12.478
  154DIM    BS2  775  28.298  15.190  12.245
  155DIM   BNZ1  776   2.003   0.148  27.932
  155DIM   BNZ2  777   1.839   0.184  27.856
  155DIM   BNZ3  778   1.816   0.108  28.092
  155DIM    BS1  779   2.001   0.092  28.166
  155DIM    BS2  780   1.651   0.148  27.996
  156DIM   BNZ1  781  27.353  27.973  23.163
  156DIM   BNZ2  782  27.229  28.031  23.040
  156DIM   BNZ3  783  27.427  27.929  22.929
  156DIM    BS1  784  27.543  27.853  23.074
  156DIM    BS2  785  27.287  28.000  22.812
  157DIM   BNZ1  786   0.550   4.922   5.005
  157DIM   BNZ2  787   0.456   5.044   4.905
  157DIM   BNZ3  788   0.384   4.810   4.856
  157DIM    BS1  789   0.481   4.692   4.985
  157DIM    BS2  790   0.296   4.953   4.755
  158DIM   BNZ1  791  24.270  10.813  16.101
  158DIM   BNZ2  792  24.194  10.770  16.263
  158DIM   BNZ3  793  24.022  10.789  16.084
  158DIM    BS1  794  24.120  10.817  15.912
  158DIM    BS2  795  23.959  10.748  16.264
  159DIM   BNZ1  796   1.082  22.236  13.705
  159DIM   BNZ2  797   1.224  22.241  13.822
  159DIM   BNZ3  798   1.195  22.459  13.706
  159DIM    BS1  799   1.027  22.445  13.598
  159DIM    BS2  800   1.344  22.445  13.832
  160DIM   BNZ1  801  27.991   8.788  26.118
  160DIM   BNZ2  802  28.128   8.696  26.037
  160DIM   BNZ3  803  28.209   8.903  26.149
  160DIM    BS1  804  28.054   8.980  26.248
  160DIM    BS2  805  28.342   8.796  26.054
  161DIM   BNZ1  806  11.811  17.652   4.723
  161DIM   BNZ2  807  11.968  17.742   4.688
  161DIM   BNZ3  808  11.832  17.859   4.860
  161DIM    BS1  809  11.676  17.740   4.901
  161DIM    BS2  810  12.000  17.943   4.809
  162DIM   BNZ1  811  18.255  25.859   4.884
  162DIM   BNZ2  812  18.415  25.930   4.940
  162DIM   BNZ3  813  18.339  26.033   4.726
  162DIM    BS1  814  18.156  25.961   4.690
  162DIM    BS2  815  18.510  26.094   4.798
  163DIM   BNZ1  816  18.046   3.789  15.114
  163DIM   BNZ2  817  18.129   3.631  15.069
  163DIM   BNZ3  818  18.044   3.626  15.302
  163DIM    BS1  819  17.940   3.795  15.330
  163DIM    BS2  820  18.138   3.467  15.239
  164DIM   BNZ1  821  28.307  19.415  12.271
  164DIM   BNZ2  822  28.411  19.416  12.119
  164DIM   BNZ3  823  28.543  19.348  12.319
  164DIM    BS1  824  28.414  19.333  12.471
  164DIM    BS2  825  28.639  19.359  12.149
  165DIM   BNZ1  826  10.543  26.948  20.498
  165DIM   BNZ2  827  10.716  27.007  20.478
  165DIM   BNZ3  828  10.565  27.113  20.311
  165DIM    BS1  829  10.379  27.055  20.357
  165DIM    BS2  830  10.754  27.161  20.302
  166DIM   BNZ1  831  15.565  13.963  13.681
  166DIM   BNZ2  832  15.498  14.128  13.726
  166DIM   BNZ3  833  15.553  14.114  13.483
  166DIM    BS1  834  15.605  13.924  13.447
  166DIM    BS2  835  15.484  14.285  13.548
  167DIM   BNZ1  836   7.439  15.384   4.141
  167DIM   BNZ2  837   7.503  15.281   4.279
  167DIM   BNZ3  838   7.395  15.142   4.103
  167DIM    BS1  839   7.348  15.265   3.953
  167DIM    BS2  840   7.466  15.048   4.259
  168DIM   BNZ1  841   9.944  25.624  26.911
  168DIM   BNZ2  842   9.911  25.445  26.884
  168DIM   BNZ3  843   9.810  25.525  27.097
  168DIM    BS1  844   9.838  25.723  27.103
  168DIM    BS2  845   9.788  25.336  27.054
  169DIM   BNZ1  846  17.024   2.984   7.484
  169DIM   BNZ2  847  17.115   2.913   7.340
  169DIM   BNZ3  848  16.873   2.943   7.290
  169DIM    BS1  849  16.793   3.039   7.447
  169DIM    BS2  850  16.983   2.865   7.149
  170DIM   BNZ1  851   5.662   7.306  16.133
  170DIM   BNZ2  852   5.768   7.310  15.983
  170DIM   BNZ3  853   5.828   7.492  16.142
  170DIM    BS1  854   5.719   7.462  16.307
  170DIM    BS2  855   5.929   7.484  15.975
  171DIM   BNZ1  856   7.604  19.910  17.733
  171DIM   BNZ2  857   7.485  19.936  17.594
  171DIM   BNZ3  858   7.684  19.803  17.523
  171DIM    BS1  859   7.792  19.768  17.687
  171DIM    BS2  860   7.550  19.843  17.386
  172DIM   BNZ1  861  18.758   9.001   2.159
  172DIM   BNZ2  862  18.643   8.876   2.231
  172DIM   BNZ3  863  18.720   9.038   2.402
  172DIM    BS1  864  18.827   9.178   2.306
  172DIM    BS2  865  18.600   8.896   2.463
  173DIM   BNZ1  866   7.735  16.266  18.664
  173DIM   BNZ2  867   7.667  16.432  18.624
  173DIM   BNZ3  868   7.698  16.402  18.869
  173DIM    BS1  869   7.791  16.227  18.895
  173DIM    BS2  870   7.622  16.572  18.809
  174DIM   BNZ1  871  16.589  24.265  26.185
  174DIM   BNZ2  872  16.454  24.220  26.068
  174DIM   BNZ3  873  16.371  24.232  26.302
  174DIM    BS1  874  16.523  24.301  26.414
  174DIM    BS2  875  16.242  24.182  26.165
  175DIM   BNZ1  876  11.429   9.729  28.309
  175DIM   BNZ2  877  11.558   9.860  28.304
  175DIM   BNZ3  878  11.585   9.713  28.503
  175DIM    BS1  879  11.451   9.566  28.484
  175DIM    BS2  880  11.712   9.860  28.484
  176DIM   BNZ1  881   3.352  27.398  23.869
  176DIM   BNZ2  882   3.518  27.423  23.945
  176DIM   BNZ3  883   3.524  27.452  23.697
  176DIM    BS1  884   3.335  27.441  23.633
  176DIM    BS2  885   3.693  27.473  23.793
  177DIM   BNZ1  886   3.400  26.849   4.524
  177DIM   BNZ2  887   3.235  26.860   4.442
  177DIM   BNZ3  888   3.225  26.725   4.651
  177DIM    BS1  889   3.405  26.739   4.738
  177DIM    BS2  890   3.059  26.743   4.550
  178DIM   BNZ1  891  23.857  18.954  14.100
  178DIM   BNZ2  892  23.738  18.816  14.075
  178DIM   BNZ3  893  23.712  18.920  14.300
  178DIM    BS1  894  23.833  19.079  14.305
  178DIM    BS2  895  23.595  18.769  14.257
  179DIM   BNZ1  896  24.131  14.615  22.264
  179DIM   BNZ2  897  24.155  14.699  22.425
  179DIM   BNZ3  898  24.361  14.579  22.353
  179DIM    BS1  899  24.326  14.510  22.169
  179DIM    BS2  900  24.368  14.672  22.525
  180DIM   BNZ1  901  23.332  21.808   3.711
  180DIM   BNZ2  902  23.429  21.962   3.685
  180DIM   BNZ3  903  23.522  21.825   3.871
  180DIM    BS1  904  23.419  21.654   3.874
  180DIM    BS2  905  23.612  21.995   3.833
  181DIM   BNZ1  906   7.196   6.413  15.580
  181DIM   BNZ2  907   7.045   6.309  15.580
  181DIM   BNZ3  908   7.251   6.170  15.574
  181DIM    BS1  909   7.406   6.295  15.594
  181DIM    BS2  910   7.080   6.075  15.571
  182DIM   BNZ1  911  13.391   3.981   3.383
  182DIM   BNZ2  912  13.213   3.936   3.390
  182DIM   BNZ3  913  13.245   4.182   3.409
  182DIM    BS1  914  13.440   4.217   3.381
  182DIM    BS2  915  13.062   4.116   3.418
  183DIM   BNZ1  916  22.498  19.352  20.192
  183DIM   BNZ2  917  22.665  19.334  20.267
  183DIM   BNZ3  918  22.661  19.255  20.031
  183DIM    BS1  919  22.480  19.299  19.958
  183DIM    BS2  920  22.831  19.240  20.126
  184DIM   BNZ1  921  10.968   3.138  11.035
  184DIM   BNZ2  922  10.800   3.117  10.964
  184DIM   BNZ3  923  10.974   3.132  10.786
  184DIM    BS1  924  11.151   3.133  10.879
  184DIM    BS2  925  10.788   3.114  10.727
  185DIM   BNZ1  926   4.854   4.088  23.235
  185DIM   BNZ2  927   4.871   4.259  23.301
  185DIM   BNZ3  928   4.958   4.090  23.461
  185DIM    BS1  929   4.951   3.913  23.368
  185DIM    BS2  930   4.965   4.277  23.517
  186DIM   BNZ1  931  19.568   5.248  13.584
  186DIM   BNZ2  932  19.609   5.423  13.623
  186DIM   BNZ3  933  19.485   5.405  13.408
  186DIM    BS1  934  19.430   5.213  13.389
  186DIM    BS2  935  19.540   5.584  13.463
  187DIM   BNZ1  936  26.910  10.550  21.105
  187DIM   BNZ2  937  27.004  10.505  20.954
  187DIM   BNZ3  938  26.826  10.338  21.004
  187DIM    BS1  939  26.721  10.411  21.158
  187DIM    BS2  940  26.939  10.303  20.848
  188DIM   BNZ1  941   5.526  28.713  14.927
  188DIM   BNZ2  942   5.411  28.844  14.986
  188DIM   BNZ3  943   5.471  28.876  14.747
  188DIM    BS1  944   5.579  28.717  14.692
  188DIM    BS2  945   5.352  29.009  14.827
  189DIM   BNZ1  946   7.667  17.431   1.458
  189DIM   BNZ2  947   7.655  17.432   1.642
  189DIM   BNZ3  948   7.833  17.586   1.562
  189DIM    BS1  949   7.821  17.589   1.362
  189DIM    BS2  950   7.809  17.572   1.755
  190DIM   BNZ1  951  10.667  25.659  16.893
  190DIM   BNZ2  952  10.592  25.492  16.884
  190DIM   BNZ3  953  10.738  25.537  16.688
  190DIM    BS1  954  10.828  25.712  16.721
  190DIM    BS2  955  10.646  25.364  16.692
  191DIM   BNZ1  956  22.186   2.482   0.477
  191DIM   BNZ2  957  22.036   2.581   0.518
  191DIM   BNZ3  958  21.985   2.337   0.510
  191DIM    BS1  959  22.160   2.242   0.484
  191DIM    BS2  960  21.836   2.457   0.548
  192DIM   BNZ1  961  16.337   6.827   0.719
  192DIM   BNZ2  962  16.362   6.698   0.590
  192DIM   BNZ3  963  16.520   6.669   0.779
  192DIM    BS1  964  16.468   6.803   0.919
  192DIM    BS2  965  16.535   6.542   0.632
  193DIM   BNZ1  966  26.160  17.317  19.855
  193DIM   BNZ2  967  26.205  17.394  19.694
  193DIM   BNZ3  968  26.406  17.307  19.811
  193DIM    BS1  969  26.340  17.209  19.973
  193DIM    BS2  970  26.435  17.395  19.640
  194DIM   BNZ1  971  15.396   8.650  17.960
  194DIM   BNZ2  972  15.354   8.475  17.922
  194DIM   BNZ3  973  15.251   8.631  17.758
  194DIM    BS1  974  15.320   8.814  17.801
  194DIM    BS2  975  15.214   8.441  17.734
  195DIM   BNZ1  976  10.782  26.791  22.111
  195DIM   BNZ2  977  10.936  26.739  22.198
  195DIM   BNZ3  978  10.753  26.787  22.359
  195DIM    BS1  979  10.588  26.822  22.250
  195DIM    BS2  980  10.925  26.734  22.434
  196DIM   BNZ1  981  15.010  20.644  13.479
  196DIM   BNZ2  982  15.131  20.563  13.367
  196DIM   BNZ3  983  15.002  20.741  13.249
  196DIM    BS1  984  14.890  20.832  13.388
  196DIM    BS2  985  15.133  20.642  13.143
  197DIM   BNZ1  986   8.885   5.789  22.415
  197DIM   BNZ2  987   8.915   5.644  22.525
  197DIM   BNZ3  988   8.717   5.776  22.599
  197DIM    BS1  989   8.686   5.917  22.460
  197DIM    BS2  990   8.766   5.621  22.707
  198DIM   BNZ1  991   2.610   2.814   5.711
  198DIM   BNZ2  992   2.478   2.900   5.807
  198DIM   BNZ3  993   2.473   2.964   5.566
  198DIM    BS1  994   2.608   2.849   5.473
  198DIM    BS2  995   2.342   3.049   5.684
  199DIM   BNZ1  996   9.226  27.415  21.031
  199DIM   BNZ2  997   9.311  27.524  21.153
  199DIM   BNZ3  998   9.065  27.514  21.194
  199DIM    BS1  999   8.991  27.377  21.067
  199DIM    BS2 1000   9.170  27.628  21.312
  200DIM   BNZ1 1001  26.302  20.777   8.130
  200DIM   BNZ2 1002  26.229  20.945   8.107
  200DIM   BNZ3 1003  26.410  20.946   8.278
  200DIM    BS1 1004  26.492  20.764   8.276
  200DIM    BS2 1005  26.319  21.116   8.244
  201DIM   BNZ1 1006  11.165  21.379   8.101
  201DIM   BNZ2 1007  11.278  21.290   7.986
  201DIM   BNZ3 1008  11.395  21.360   8.194
  201DIM    BS1 1009  11.256  21.438   8.316
  201DIM    BS2 1010  11.502  21.267   8.060
  202DIM   BNZ1 1011   5.983  21.824  15.683
  202DIM   BNZ2 1012   5.997  21.642  15.711
  202DIM   BNZ3 1013   6.092  21.708  15.490
  202DIM    BS1 1014   6.088  21.908  15.483
  202DIM    BS2 1015   6.095  21.518  15.535
  203DIM   BNZ1 1016  12.806  19.069  24.293
  203DIM   BNZ2 1017  12.745  18.896  24.287
  203DIM   BNZ3 1018  12.829  18.972  24.065
  203DIM    BS1 1019  12.909  19.153  24.093
  203DIM    BS2 1020  12.757  18.790  24.075
  204DIM   BNZ1 1021  12.141   3.778   2.652
  204DIM   BNZ2 1022  12.274   3.801   2.778
  204DIM   BNZ3 1023  12.075   3.942   2.828
  204DIM    BS1 1024  11.933   3.892   2.696
  204DIM    BS2 1025  12.227   3.957   2.950
  205DIM   BNZ1 1026   5.561   7.942  10.983
  205DIM   BNZ2 1027   5.501   7.858  10.831
  205DIM   BNZ3 1028   5.725   7.774  10.900
  205DIM    BS1 1029   5.768   7.860  11.076
  205DIM    BS2 1030   5.648   7.698  10.737
  206DIM   BNZ1 1031  12.108  26.742  17.153
  206DIM   BNZ2 1032  12.145  26.902  17.236
  206DIM   BNZ3 1033  12.250  26.710  17.356
  206DIM    BS1 1034  12.216  26.547  17.244
  206DIM    BS2 1035  12.277  26.888  17.432
  207DIM   BNZ1 1036   3.885  23.571   7.968
  207DIM   BNZ2 1037   3.868  23.391   7.931
  207DIM   BNZ3 1038   3.805  23.531   7.735
  207DIM    BS1 1039   3.848  23.720   7.783
  207DIM    BS2 1040   3.789  23.337   7.714
  208DIM   BNZ1 1041   2.795  25.489  21.105
  208DIM   BNZ2 1042   2.623  25.538  21.059
  208DIM   BNZ3 1043   2.672  25.589  21.298
  208DIM    BS1 1044   2.866  25.549  21.327
  208DIM    BS2 1045   2.492  25.632  21.233
  209DIM   BNZ1 1046  19.235  18.929   0.261
  209DIM   BNZ2 1047  19.244  18.987   0.436
  209DIM   BNZ3 1048  19.089  19.127   0.301
  209DIM    BS1 1049  19.075  19.041   0.121
  209DIM    BS2 1050  19.112  19.177   0.488
  210DIM   BNZ1 1051   4.536   7.307   0.478
  210DIM   BNZ2 1052   4.377   7.373   0.543
  210DIM   BNZ3 1053   4.565   7.531   0.583
  210DIM    BS1 1054   4.725   7.455   0.491
  210DIM    BS2 1055   4.389   7.585   0.649
  211DIM   BNZ1 1056   6.913   1.383   7.198
  211DIM   BNZ2 1057   7.045   1.255   7.199
  211DIM   BNZ3 1058   6.850   1.185   7.060
  211DIM    BS1 1059   6.725   1.341   7.054
  211DIM    BS2 1060   6.998   1.058   7.075
  212DIM   BNZ1 1061  11.440   0.268  21.741
  212DIM   BNZ2 1062  11.303   0.250  21.619
  212DIM   BNZ3 1063  11.251   0.422  21.790
  212DIM    BS1 1064  11.415   0.444  21.903
  212DIM    BS2 1065  11.114   0.388  21.655
  213DIM   BNZ1 1066  11.452  22.958  11.865
  213DIM   BNZ2 1067  11.306  22.850  11.834
  213DIM   BNZ3 1068  11.431  22.897  11.624
  213DIM    BS1 1069  11.596  22.998  11.676
  213DIM    BS2 1070  11.271  22.787  11.608
  214DIM   BNZ1 1071   7.030   5.550  24.554
  214DIM   BNZ2 1072   6.989   5.546  24.733
  214DIM   BNZ3 1073   6.784   5.550  24.592
  214DIM    BS1 1074   6.844   5.535  24.402
  214DIM    BS2 1075   6.758   5.548  24.786
  215DIM   BNZ1 1076  11.455  23.164  28.333
  215DIM   BNZ2 1077  11.546  23.322  28.358
  215DIM   BNZ3 1078  11.359  23.349  28.196
  215DIM    BS1 1079  11.259  23.176  28.194
  215DIM    BS2 1080  11.468  23.507  28.232
  216W        W 1081   0.084   3.595   3.359
  217W        W 1082   0.460   2.488   2.882
  218W        W 1083   3.165   2.218   0.652
  219W        W 1084   3.295   3.303   2.679
  220W        W 1085   1.213   3.294   0.205
  221W        W 1086   1.296   1.446   1.188
  222W        W 1087   0.811   1.294   1.352
  223W        W 1088   1.802   2.109   0.786
  224W        W 1089   1.477   3.201   3.141
  225W        W 1090   0.126   0.762   3.104
  226W        W 1091   0.888   0.042   2.906
  227W        W 1092   2.582   0.430   1.793
  228W        W 1093   2.231   1.301   0.363
  229W        W 1094   2.801   0.735   3.454
  230W        W 1095   0.167   0.527   2.579
  231W        W 1096   0.266   3.146   3.600
  232W        W 1097   1.788   2.536   0.332
  233W        W 1098   0.220   1.319   2.025
  234W        W 1099   1.113   1.210   3.262
  235W        W 1100   3.572   1.069   1.761
  236W        W 1101   3.336   2.112   2.620
  237W        W 1102   1.644   1.445   1.647
  238W        W 1103   2.190   2.784   2.016
  239W        W 1104   0.690   2.218   2.248
  240W        W 1105   0.049   1.746   1.819
  241W        W 1106   1.085   1.718   3.011
  242W        W 1107   3.356   1.501   3.265
  243W        W 1108   0.972   2.945   1.710
  244W        W 1109   2.093   2.634   2.844
  245W        W 1110   1.313   1.274   2.069
  246W        W 1111   1.605   2.058   1.712
  247W        W 1112   2.602   2.831   3.560
  248W        W 1113   1.681   2.151   3.570
  249W        W 1114   1.662   1.867   3.048
  250W        W 1115   0.071   1.258   3.570
  251W        W 1116   2.903   2.793   3.169
  252W        W 1117   0.484   0.375   1.167
  253W        W 1118   1.011   2.633   2.166
  254W        W 1119   3.474   2.416   1.456
  255W        W 1120   2.887   0.816   2.023
  256W        W 1121   3.172   0.769   0.118
  257W        W 1122   3.637   1.570   2.424
  258W        W 1123   1.604   3.277   2.177
  259W        W 1124   3.378   2.743   0.615
  260W        W 1125   0.507   3.529   0.369
  261W        W 1126   0.900   3.575   1.045
  262W        W 1127   0.697   0.329   2.471
  263W        W 1128   3.320   1.347   2.746
  264W        W 1129   2.725   1.769   1.205
  265W        W 1130   2.691   1.457   0.232
  266W        W 1131   1.899   2.601   2.372
  267W        W 1132   1.705   0.931   1.571
  268W        W 1133   2.305   3.018   2.565
  269W        W 1134   3.176   1.809   0.987
  270W        W 1135   2.078   0.467   1.003
  271W        W 1136   0.735   3.161   0.686
  272W        W 1137   0.106   0.660   1.285
  273W        W 1138   2.892   1.267   1.759
  274W        W 1139   0.350   2.884   1.674
  275W        W 1140   1.691   3.234   0.544
  276W        W 1141   3.083   1.260   0.008
  277W        W 1142   0.106   3.018   2.172
  278W        W 1143   0.897   2.590   2.652
  279W        W 1144   1.270   1.950   1.271
  280W        W 1145   1.292   0.355   2.364
  281W        W 1146   3.521   0.117   1.661
  282W        W 1147   0.740   1.989   0.129
  283W        W 1148   0.395   1.022   0.308
  284W        W 1149   0.457   2.978   1.102
  285W        W 1150   1.588   2.461   1.350
  286W        W 1151   2.920   3.320   3.064
  287W        W 1152   1.846   0.962   0.748
  288W        W 1153   3.229   3.360   1.520
  289W        W 1154   2.906   1.213   3.118
  290W        W 1155   3.619   2.869   1.252
  291W        W 1156   2.246   2.161   2.736
  292W        W 1157   0.012   1.712   0.942
  293W        W 1158   1.123   2.127   2.515
  294W        W 1159   2.327   1.391   0.893
  295W        W 1160   2.204   1.881   0.997
  296W        W 1161   0.547   1.301   2.471
  297W        W 1162   0.532   1.177   3.393
  298W        W 1163   0.422   0.094   1.552
  299W        W 1164   2.190   0.441   2.113
  300W        W 1165   1.838   0.626   3.276
  301W        W 1166   2.193   0.775   0.454
  302W        W 1167   3.376   3.168   3.208
  303W        W 1168   2.343   0.249   3.247
  304W        W 1169   3.362   2.550   3.369
  305W        W 1170   2.792   0.717   2.965
  306W        W 1171   2.592   0.655   1.235
  307W        W 1172   2.985   1.789   3.639
  308W        W 1173   0.725   3.365   1.625
  309W        W 1174   1.383   1.082   0.611
  310W        W 1175   0.952   0.366   3.275
  311W        W 1176   3.004   0.850   0.956
  312W        W 1177   3.371   1.332   0.901
  313W        W 1178   1.114   3.549   3.372
  314W        W 1179   1.040   0.085   0.607
  315W        W 1180   3.361   0.619   1.642
  316W        W 1181   3.511   2.868   0.087
  317W        W 1182   0.418   2.071   1.789
  318W        W 1183   2.335   0.658   0.019
  319W        W 1184   3.469   2.990   1.739
  320W        W 1185   3.508   0.184   2.489
  321W        W 1186   1.953   1.396   3.043
  322W        W 1187   2.046   2.735   0.746
  323W        W 1188   2.446   2.029   3.486
  324W        W 1189   2.120   0.006   1.795
  325W        W 1190   0.732   0.909   1.858
  326W        W 1191   0.286   2.109   2.632
  327W        W 1192   2.145   3.302   1.338
  328W        W 1193   3.339   0.899   2.210
  329W        W 1194   1.976   3.246   2.977
  330W        W 1195   3.319   2.305   0.182
  331W        W 1196   1.754   1.788   1.243
  332W        W 1197   3.606   0.299   2.984
  333W        W 1198   1.755   2.134   2.578
  334W        W 1199   1.972   1.020   2.023
  335W        W 1200   2.824   1.318   0.861
  336W        W 1201   3.111   1.051   0.503
  337W        W 1202   2.920   3.091   0.892
  338W        W 1203   2.754   2.694   1.688
  339W        W 1204   2.650   1.773   0.666
  340W        W 1205   2.083   1.983   1.652
  341W        W 1206   2.964   1.771   1.719
  342W        W 1207   0.339   0.786   2.143
  343W        W 1208   3.117   1.838   2.970
  344W        W 1209   3.468   3.456   2.116
  345W        W 1210   1.398   2.900   1.518
  346W        W 1211   2.405   3.433   2.842
  347W        W 1212   2.399   0.763   2.606
  348W        W 1213   1.606   3.471   2.667
  349W        W 1214   3.303   0.425   1.133
  350W        W 1215   3.094   1.744   2.434
  351W        W 1216   0.077   1.065   2.472
  352W        W 1217   2.937   0.860   1.490
  353W        W 1218   3.348   1.011   3.267
  354W        W 1219   2.233   2.710   1.485
  355W        W 1220   1.489   3.301   1.098
  356W        W 1221   0.604   0.481   0.356
  357W        W 1222   1.708   0.135   2.166
  358W        W 1223   0.736   3.255   0.014
  359W        W 1224   1.110   1.721   0.765
  360W        W 1225   1.764   2.350   3.078
  361W        W 1226   1.594   0.708   1.068
  362W        W 1227   2.950   0.305   1.496
  363W        W 1228   2.670   3.587   1.824
  364W        W 1229   2.082   3.235   2.164
  365W        W 1230   1.478   2.272   2.125
  366W        W 1231   3.248   2.995   2.251
  367W        W 1232   0.942   0.498   1.020
  368W        W 1233   1.464   2.795   1.980
  369W        W 1234   0.947   0.726   0.045
  370W        W 1235   1.748   1.335   2.439
  371W        W 1236   2.596   0.201   2.309
  372W        W 1237   0.016   2.044   2.194
  373W        W 1238   1.720   1.862   0.352
  374W        W 1239   0.988   0.177   0.122
  375W        W 1240   1.726   1.258   1.173
  376W        W 1241   2.696   0.234   2.872
  377W        W 1242   1.284   2.246   2.981
  378W        W 1243   2.088   2.028   3.198
  379W        W 1244   2.705   2.058   3.091
  380W        W 1245   1.989   0.198   3.596
  381W        W 1246   1.211   0.814   1.989
  382W        W 1247   0.637   0.770   1.387
  383W        W 1248   0.423   3.482   1.063
  384W        W 1249   1.755   2.812   3.188
  385W        W 1250   0.790   2.297   0.547
  386W        W 1251   2.470   1.682   1.768
  387W        W 1252   2.750   1.481   2.167
  388W        W 1253   1.955   2.155   2.101
  389W        W 1254   2.425   2.529   0.233
  390W        W 1255   2.097   0.550   1.561
  391W        W 1256   3.576   0.828   0.829
  392W        W 1257   0.070   3.417   2.860
  393W        W 1258   0.487   2.643   2.392
  394W        W 1259   0.054   3.489   0.624
  395W        W 1260   1.953   0.759   2.430
  396W        W 1261   1.316   2.782   0.279
  397W        W 1262   3.221   3.164   0.465
  398W        W 1263   2.196   1.817   0.479
  399W        W 1264   1.039   1.008   0.996
  400W        W 1265   1.871   0.918   0.048
  401W        W 1266   2.455   2.483   3.226
  402W        W 1267   2.808   0.389   0.843
  403W        W 1268   0.138   0.237   0.291
  404W        W 1269   1.424   2.556   2.581
  405W        W 1270   1.223   2.472   1.673
  406W        W 1271   0.965   2.424   0.071
  407W        W 1272   0.206   2.665   0.839
  408W        W 1273   0.710   1.735   3.281
  409W        W 1274   1.414   0.295   3.467
  410W        W 1275   2.123   0.437   2.823
  411W        W 1276   1.318   0.205   1.104
  412W        W 1277   2.377   0.282   0.609
  413W        W 1278   0.322   0.214   2.186
  414W        W 1279   0.370   1.177   1.556
  415W        W 1280   3.059   0.285   1.962
  416W        W 1281   0.481   0.783   0.776
  417W        W 1282   3.052   0.471   2.392
  418W        W 1283   3.448   1.674   0.077
  419W        W 1284   0.740   0.432   1.896
  420W        W 1285   1.854   1.004   2.836
  421W        W 1286   0.002   0.694   0.314
  422W        W 1287   0.788   2.083   2.875
  423W        W 1288   2.146   1.481   2.054
  424W        W 1289   2.013   3.560   0.350
  425W        W 1290   0.159   2.067   0.047
  426W        W 1291   0.894   2.478   3.173
  427W        W 1292   0.415   1.645   2.804
  428W        W 1293   1.406   1.750   2.598
  429W        W 1294   3.174   0.109   2.860
  430W        W 1295   3.572   1.719   2.851
  431W        W 1296   3.560   1.919   0.537
  432W        W 1297   2.423   2.251   0.636
  433W        W 1298   2.897   3.551   0.331
  434W        W 1299   2.074   1.541   3.473
  435W        W 1300   0.404   2.508   3.513
  436W        W 1301   3.610   0.430   3.465
  437W        W 1302   3.328   1.358   2.086
  438W        W 1303   1.636   3.488   3.563
  439W        W 1304   1.491   0.117   0.290
  440W        W 1305   3.030   2.716   0.233
  441W        W 1306   0.799   0.809   3.119
  442W        W 1307   1.233   2.803   2.981
  443W        W 1308   3.359   0.794   2.779
  444W        W 1309   2.570   3.453   0.747
  445W        W 1310   2.809   2.072   2.114
  446W        W 1311   1.059   0.488   2.781
  447W        W 1312   1.528   1.557   3.538
  448W        W 1313   1.031   2.736   0.732
  449W        W 1314   2.786   2.234   0.996
  450W        W 1315   0.554   0.860   2.720
  451W        W 1316   1.883   2.922   1.184
  452W        W 1317   3.633   1.482   1.365
  453W        W 1318   1.855   0.115   3.084
  454W        W 1319   2.635   2.820   2.163
  455W        W 1320   2.938   3.164   1.871
  456W        W 1321   2.157   2.966   0.299
  457W        W 1322   0.167   2.858   3.141
  458W        W 1323   0.910   0.850   2.379
  459W        W 1324   0.880   0.198   1.489
  460W        W 1325   2.501   1.040   2.181
  461W        W 1326   1.299   2.211   0.381
  462W        W 1327   3.297   2.153   1.880
  463W        W 1328   0.624   2.911   3.303
  464W        W 1329   3.011   3.593   1.100
  465W        W 1330   1.110   0.613   1.545
  466W        W 1331   0.879   2.106   1.635
  467W        W 1332   1.192   3.517   2.385
  468W        W 1333   3.259   3.613   3.417
  469W        W 1334   2.418   1.801   2.350
  470W        W 1335   0.267   1.599   0.265
  471W        W 1336   3.401   3.257   0.962
  472W        W 1337   3.238   0.581   0.581
  473W        W 1338   1.377   0.100   2.984
  474W        W 1339   3.083   2.902   1.442
  475W        W 1340   3.112   1.458   1.347
  476W        W 1341   1.229   1.131   1.563
  477W        W 1342   1.474   1.393   2.887
  478W        W 1343   2.585   2.546   2.750
  479W        W 1344   1.235   1.000   2.862
  480W        W 1345   1.214   3.466   1.478
  481W        W 1346   0.531   3.425   3.112
  482W        W 1347   0.643   2.786   0.242
  483W        W 1348   3.160   2.544   1.052
  484W        W 1349   0.764   1.336   2.938
  485W        W 1350   3.537   1.266   0.419
  486W        W 1351   1.282   2.323   0.890
  487W        W 1352   2.381   1.705   2.971
  488W        W 1353   2.272   1.333   2.515
  489W        W 1354   0.832   1.705   2.544
  490W        W 1355   3.042   3.593   2.373
  491W        W 1356   2.833   0.227   3.367
  492W        W 1357   0.497   0.377   2.954
  493W        W 1358   0.836   1.400   2.007
  494W        W 1359   1.205   1.214   0.129
  495W        W 1360   0.008   2.973   2.674
  496W        W 1361   1.593   1.682   2.117
  497W        W 1362   1.416   0.707   0.222
  498W        W 1363   0.551   1.523   1.003
  499W        W 1364   0.322   3.375   2.440
  500W        W 1365   3.117   1.601   0.548
  501W        W 1366   3.212   0.517   3.234
  502W        W 1367   2.648   2.726   1.197
  503W        W 1368   0.246   1.650   3.374
  504W        W 1369   3.212   0.114   0.670
  505W        W 1370   2.732   2.589   0.681
  506W        W 1371   1.634   1.647   0.766
  507W        W 1372   2.821   0.451   0.289
  508W        W 1373   2.886   1.058   2.475
  509W        W 1374   0.595   1.651   1.682
  510W        W 1375   0.889   2.590   1.331
  511W        W 1376   2.652   1.210   1.296
  512W        W 1377   1.675   0.589   1.992
  513W        W 1378   3.637   2.500   2.503
  514W        W 1379   3.555   0.487   2.064
  515W        W 1380   0.094   3.317   1.440
  516W        W 1381   0.603   2.504   0.976
  517W        W 1382   0.518   0.121   3.529
  518W        W 1383   1.637   2.974   3.631
  519W        W 1384   3.392   1.942   1.421
  520W        W 1385   2.746   2.119   0.301
  521W        W 1386   2.041   3.640   2.513
  522W        W 1387   2.898   2.362   3.550
  523W        W 1388   1.713   0.072   0.830
  524W        W 1389   2.426   0.941   1.689
  525W        W 1390   0.112   2.528   2.021
  526W        W 1391   1.365   0.490   0.662
  527W        W 1392   1.169   1.974   3.511
  528W        W 1393   2.163   0.955   1.225
  529W        W 1394   2.368   2.365   2.347
  530W        W 1395   0.522   2.970   2.782
  531W        W 1396   1.113   2.953   3.505
  532W        W 1397   0.964   0.750   0.519
  533W        W 1398   2.481   0.892   0.844
  534W        W 1399   2.439   3.000   3.081
  535W        W 1400   1.124   1.592   1.680
  536W        W 1401   0.779   3.290   2.545
  537W        W 1402   3.524   3.407   0.146
  538W        W 1403   0.387   2.079   3.142
  539W        W 1404   2.382   2.341   1.830
  540W        W 1405   0.818   1.990   1.072
  541W        W 1406   1.189   2.997   2.467
  542W        W 1407   1.567   0.416   1.508
  543W        W 1408   0.178   2.400   0.438
  544W        W 1409   1.697   1.351   0.308
  545W        W 1410   0.343   1.900   1.327
  546W        W 1411   1.633   0.542   2.791
  547W        W 1412   3.305   0.251   0.218
  548W        W 1413   3.398   1.997   3.317
  549W        W 1414   2.052   3.254   3.469
  550W        W 1415   3.610   2.348   2.991
  551W        W 1416   3.018   3.146   3.602
  552W        W 1417   0.757   3.602   2.080
  553W        W 1418   3.616   2.224   0.954
  554W        W 1419   2.146   1.491   1.467
  555W        W 1420   1.913   0.103   1.357
  556W        W 1421   0.972   3.087   1.194
  557W        W 1422   1.471   0.828   2.419
  558W        W 1423   1.171   0.197   1.888
  559W        W 1424   0.234   3.019   0.436
  560W        W 1425   2.050   2.383   1.154
  561W        W 1426   0.925   3.178   3.033
  562W        W 1427   0.402   2.001   0.729
  563W        W 1428   0.287   0.544   1.728
  564W        W 1429   1.835   2.509   1.785
  565W        W 1430   0.087   0.363   0.805
  566W        W 1431   2.751   1.569   2.732
  567W        W 1432   2.628   0.955   0.304
  568W        W 1433   3.145   2.627   1.952
  569W        W 1434   1.806   3.111   1.783
  570W        W 1435   1.218   3.215   0.694
  571W        W 1436   2.500   0.118   0.124
  572W        W 1437   0.300   3.378   1.865
  573W        W 1438   2.497   1.136   3.500
  574W        W 1439   0.480   0.666   3.499
  575W        W 1440   0.211   1.266   0.832
  576W        W 1441   0.902   1.255   0.557
  577W        W 1442   2.665   1.582   3.374
  578W        W 1443   1.008   1.863   2.083
  579W        W 1444   2.482   0.149   1.203
  580W        W 1445   1.613   3.580   1.706
  581W        W 1446   2.827   3.042   2.643
  582W        W 1447   2.411   3.191   1.754
  583W        W 1448   2.430   2.171   1.348
  584W        W 1449   1.892   0.396   0.419
  585W        W 1450   3.573   0.024   1.141
  586W        W 1451   1.261   1.659   0.304
  587W        W 1452   3.427   0.996   1.294
  588W        W 1453   2.119   2.166   0.171
  589W        W 1454   3.055   2.366   2.919
  590W        W 1455   2.709   3.067   0.386
  591W        W 1456   1.324   0.742   3.292
  592W        W 1457   1.144   1.326   2.533
  593W        W 1458   3.236   2.821   2.810
  594W        W 1459   2.336   0.771   3.187
  595W        W 1460   0.180   1.242   2.964
  596W        W 1461   1.940   1.719   2.690
  597W        W 1462   0.297   2.477   1.347
  598W        W 1463   0.444   1.774   2.237
  599W        W 1464   2.761   2.060   2.587
  600W        W 1465   2.533   3.440   3.398
  601W        W 1466   2.429   1.179   2.951
  602W        W 1467   2.706   3.233   1.356
  603W        W 1468   1.708   2.953   2.679
  604W        W 1469   1.193   3.308   1.948
  605W        W 1470   2.998   2.479   2.367
  606W        W 1471   2.048   2.551   3.504
  607W        W 1472   0.653   2.504   1.843
  608W        W 1473   2.999   2.263   1.488
  609W        W 1474   2.640   3.329   2.239
  610W        W 1475   0.618   3.058   2.109
  611W        W 1476   1.639   1.110   3.319
  612W        W 1477   2.090   3.276   0.830
  613W        W 1478   1.398   2.531   3.468
  614W        W 1479   1.524   2.769   0.845
  615W        W 1480   0.745   1.509   0.104
  616W        W 1481   0.084   3.595   7.003
  617W        W 1482   0.460   2.488   6.526
  618W        W 1483   3.165   2.218   4.296
  619W        W 1484   3.295   3.303   6.323
  620W        W 1485   1.213   3.294   3.849
  621W        W 1486   1.296   1.446   4.832
  622W        W 1487   0.811   1.294   4.996
  623W        W 1488   1.802   2.109   4.430
  624W        W 1489   1.477   3.201   6.785
  625W        W 1490   0.126   0.762   6.748
  626W        W 1491   0.888   0.042   6.550
  627W        W 1492   2.582   0.430   5.437
  628W        W 1493   2.231   1.301   4.007
  629W        W 1494   2.801   0.735   7.098
  630W        W 1495   0.167   0.527   6.223
  631W        W 1496   0.266   3.146   7.244
  632W        W 1497   1.788   2.536   3.976
  633W        W 1498   0.220   1.319   5.669
  634W        W 1499   1.113   1.210   6.906
  635W        W 1500   3.572   1.069   5.405
  636W        W 1501   3.336   2.112   6.264
  637W        W 1502   1.644   1.445   5.291
  638W        W 1503   2.190   2.784   5.660
  639W        W 1504   0.690   2.218   5.892
  640W        W 1505   0.049   1.746   5.463
  641W        W 1506   1.085   1.718   6.655
  642W        W 1507   3.356   1.501   6.909
  643W        W 1508   0.972   2.945   5.354
  644W        W 1509   2.093   2.634   6.488
  645W        W 1510   1.313   1.274   5.713
  646W        W 1511   1.605   2.058   5.356
  647W        W 1512   2.602   2.831   7.204
  648W        W 1513   1.681   2.151   7.214
  649W        W 1514   1.662   1.867   6.692
  650W        W 1515   0.071   1.258   7.214
  651W        W 1516   2.903   2.793   6.813
  652W        W 1517   0.484   0.375   4.811
  653W        W 1518   1.011   2.633   5.810
  654W        W 1519   3.474   2.416   5.100
  655W        W 1520   2.887   0.816   5.667
  656W        W 1521   3.172   0.769   3.762
  657W        W 1522   3.637   1.570   6.068
  658W        W 1523   1.604   3.277   5.821
  659W        W 1524   3.378   2.743   4.259
  660W        W 1525   0.507   3.529   4.013
  661W        W 1526   0.900   3.575   4.689
  662W        W 1527   0.697   0.329   6.115
  663W        W 1528   3.320   1.347   6.390
  664W        W 1529   2.725   1.769   4.849
  665W        W 1530   2.691   1.457   3.876
  666W        W 1531   1.899   2.601   6.016
  667W        W 1532   1.705   0.931   5.215
  668W        W 1533   2.305   3.018   6.209
  669W        W 1534   3.176   1.809   4.631
  670W        W 1535   2.078   0.467   4.647
  671W        W 1536   0.735   3.161   4.330
  672W        W 1537   0.106   0.660   4.929
  673W        W 1538   2.892   1.267   5.403
  674W        W 1539   0.350   2.884   5.318
  675W        W 1540   1.691   3.234   4.188
  676W        W 1541   3.083   1.260   3.652
  677W        W 1542   0.106   3.018   5.816
  678W        W 1543   0.897   2.590   6.296
  679W        W 1544   1.270   1.950   4.915
  680W        W 1545   1.292   0.355   6.008
  681W        W 1546   3.521   0.117   5.305
  682W        W 1547   0.740   1.989   3.773
  683W        W 1548   0.395   1.022   3.952
  684W        W 1549   0.457   2.978   4.746
  685W        W 1550   1.588   2.461   4.994
  686W        W 1551   2.920   3.320   6.708
  687W        W 1552   1.846   0.962   4.392
  688W        W 1553   3.229   3.360   5.164
  689W        W 1554   2.906   1.213   6.762
  690W        W 1555   3.619   2.869   4.896
  691W        W 1556   2.246   2.161   6.380
  692W        W 1557   0.012   1.712   4.586
  693W        W 1558   1.123   2.127   6.159
  694W        W 1559   2.327   1.391   4.537
  695W        W 1560   2.204   1.881   4.641
  696W        W 1561   0.547   1.301   6.115
  697W        W 1562   0.532   1.177   7.037
  698W        W 1563   0.422   0.094   5.196
  699W        W 1564   2.190   0.441   5.757
  700W        W 1565   1.838   0.626   6.920
  701W        W 1566   2.193   0.775   4.098
  702W        W 1567   3.376   3.168   6.852
  703W        W 1568   2.343   0.249   6.891
  704W        W 1569   3.362   2.550   7.013
  705W        W 1570   2.792   0.717   6.609
  706W        W 1571   2.592   0.655   4.879
  707W        W 1572   2.985   1.789   7.283
  708W        W 1573   0.725   3.365   5.269
  709W        W 1574   1.383   1.082   4.255
  710W        W 1575   0.952   0.366   6.919
  711W        W 1576   3.004   0.850   4.600
  712W        W 1577   3.371   1.332   4.545
  713W        W 1578   1.114   3.549   7.016
  714W        W 1579   1.040   0.085   4.251
  715W        W 1580   3.361   0.619   5.286
  716W        W 1581   3.511   2.868   3.731
  717W        W 1582   0.418   2.071   5.433
  718W        W 1583   2.335   0.658   3.663
  719W        W 1584   3.469   2.990   5.383
  720W        W 1585   3.508   0.184   6.133
  721W        W 1586   1.953   1.396   6.687
  722W        W 1587   2.046   2.735   4.390
  723W        W 1588   2.446   2.029   7.130
  724W        W 1589   2.120   0.006   5.439
  725W        W 1590   0.732   0.909   5.502
  726W        W 1591   0.286   2.109   6.276
  727W        W 1592   2.145   3.302   4.982
  728W        W 1593   3.339   0.899   5.854
  729W        W 1594   1.976   3.246   6.621
  730W        W 1595   3.319   2.305   3.826
  731W        W 1596   1.754   1.788   4.887
  732W        W 1597   3.606   0.299   6.628
  733W        W 1598   1.755   2.134   6.222
  734W        W 1599   1.972   1.020   5.667
  735W        W 1600   2.824   1.318   4.505
  736W        W 1601   3.111   1.051   4.147
  737W        W 1602   2.920   3.091   4.536
  738W        W 1603   2.754   2.694   5.332
  739W        W 1604   2.650   1.773   4.310
  740W        W 1605   2.083   1.983   5.296
  741W        W 1606   2.964   1.771   5.363
  742W        W 1607   0.339   0.786   5.787
  743W        W 1608   3.117   1.838   6.614
  744W        W 1609   3.468   3.456   5.760
  745W        W 1610   1.398   2.900   5.162
  746W        W 1611   2.405   3.433   6.486
  747W        W 1612   2.399   0.763   6.250
  748W        W 1613   1.606   3.471   6.311
  749W        W 1614   3.303   0.425   4.777
  750W        W 1615   3.094   1.744   6.078
  751W        W 1616   0.077   1.065   6.116
  752W        W 1617   2.937   0.860   5.134
  753W        W 1618   3.348   1.011   6.911
  754W        W 1619   2.233   2.710   5.129
  755W        W 1620   1.489   3.301   4.742
  756W        W 1621   0.604   0.481   4.000
  757W        W 1622   1.708   0.135   5.810
  758W        W 1623   0.736   3.255   3.658
  759W        W 1624   1.110   1.721   4.409
  760W        W 1625   1.764   2.350   6.722
  761W        W 1626   1.594   0.708   4.712
  762W        W 1627   2.950   0.305   5.140
  763W        W 1628   2.670   3.587   5.468
  764W        W 1629   2.082   3.235   5.808
  765W        W 1630   1.478   2.272   5.769
  766W        W 1631   3.248   2.995   5.895
  767W        W 1632   0.942   0.498   4.664
  768W        W 1633   1.464   2.795   5.624
  769W        W 1634   0.947   0.726   3.689
  770W        W 1635   1.748   1.335   6.083
  771W        W 1636   2.596   0.201   5.953
  772W        W 1637   0.016   2.044   5.838
  773W        W 1638   1.720   1.862   3.996
  774W        W 1639   0.988   0.177   3.766
  775W        W 1640   1.726   1.258   4.817
  776W        W 1641   2.696   0.234   6.516
  777W        W 1642   1.284   2.246   6.625
  778W        W 1643   2.088   2.028   6.842
  779W        W 1644   2.705   2.058   6.735
  780W        W 1645   1.989   0.198   7.240
  781W        W 1646   1.211   0.814   5.633
  782W        W 1647   0.637   0.770   5.031
  783W        W 1648   0.423   3.482   4.707
  784W        W 1649   1.755   2.812   6.832
  785W        W 1650   0.790   2.297   4.191
  786W        W 1651   2.470   1.682   5.412
  787W        W 1652   2.750   1.481   5.811
  788W        W 1653   1.955   2.155   5.745
  789W        W 1654   2.425   2.529   3.877
  790W        W 1655   2.097   0.550   5.205
  791W        W 1656   3.576   0.828   4.473
  792W        W 1657   0.070   3.417   6.504
  793W        W 1658   0.487   2.643   6.036
  794W        W 1659   0.054   3.489   4.268
  795W        W 1660   1.953   0.759   6.074
  796W        W 1661   1.316   2.782   3.923
  797W        W 1662   3.221   3.164   4.109
  798W        W 1663   2.196   1.817   4.123
  799W        W 1664   1.039   1.008   4.640
  800W        W 1665   1.871   0.918   3.692
  801W        W 1666   2.455   2.483   6.870
  802W        W 1667   2.808   0.389   4.487
  803W        W 1668   0.138   0.237   3.935
  804W        W 1669   1.424   2.556   6.225
  805W        W 1670   1.223   2.472   5.317
  806W        W 1671   0.965   2.424   3.715
  807W        W 1672   0.206   2.665   4.483
  808W        W 1673   0.710   1.735   6.925
  809W        W 1674   1.414   0.295   7.111
  810W        W 1675   2.123   0.437   6.467
  811W        W 1676   1.318   0.205   4.748
  812W        W 1677   2.377   0.282   4.253
  813W        W 1678   0.322   0.214   5.830
  814W        W 1679   0.370   1.177   5.200
  815W        W 1680   3.059   0.285   5.606
  816W        W 1681   0.481   0.783   4.420
  817W        W 1682   3.052   0.471   6.036
  818W        W 1683   3.448   1.674   3.721
  819W        W 1684   0.740   0.432   5.540
  820W        W 1685   1.854   1.004   6.480
  821W        W 1686   0.002   0.694   3.958
  822W        W 1687   0.788   2.083   6.519
  823W        W 1688   2.146   1.481   5.698
  824W        W 1689   2.013   3.560   3.994
  825W        W 1690   0.159   2.067   3.691
  826W        W 1691   0.894   2.478   6.817
  827W        W 1692   0.415   1.645   6.448
  828W        W 1693   1.406   1.750   6.242
  829W        W 1694   3.174   0.109   6.504
  830W        W 1695   3.572   1.719   6.495
  831W        W 1696   3.560   1.919   4.181
  832W        W 1697   2.423   2.251   4.280
  833W        W 1698   2.897   3.551   3.975
  834W        W 1699   2.074   1.541   7.117
  835W        W 1700   0.404   2.508   7.157
  836W        W 1701   3.610   0.430   7.109
  837W        W 1702   3.328   1.358   5.730
  838W        W 1703   1.636   3.488   7.207
  839W        W 1704   1.491   0.117   3.934
  840W        W 1705   3.030   2.716   3.877
  841W        W 1706   0.799   0.809   6.763
  842W        W 1707   1.233   2.803   6.625
  843W        W 1708   3.359   0.794   6.423
  844W        W 1709   2.570   3.453   4.391
  845W        W 1710   2.809   2.072   5.758
  846W        W 1711   1.059   0.488   6.425
  847W        W 1712   1.528   1.557   7.182
  848W        W 1713   1.031   2.736   4.376
  849W        W 1714   2.786   2.234   4.640
  850W        W 1715   0.554   0.860   6.364
  851W        W 1716   1.883   2.922   4.828
  852W        W 1717   3.633   1.482   5.009
  853W        W 1718   1.855   0.115   6.728
  854W        W 1719   2.938   3.164   5.515
  855W        W 1720   2.157   2.966   3.943
  856W        W 1721   0.167   2.858   6.785
  857W        W 1722   0.910   0.850   6.023
  858W        W 1723   0.880   0.198   5.133
  859W        W 1724   2.501   1.040   5.825
  860W        W 1725   1.299   2.211   4.025
  861W        W 1726   3.297   2.153   5.524
  862W        W 1727   0.624   2.911   6.947
  863W        W 1728   3.011   3.593   4.744
  864W        W 1729   1.110   0.613   5.189
  865W        W 1730   0.879   2.106   5.279
  866W        W 1731   1.192   3.517   6.029
  867W        W 1732   3.259   3.613   7.061
  868W        W 1733   2.418   1.801   5.994
  869W        W 1734   0.267   1.599   3.909
  870W        W 1735   3.401   3.257   4.606
  871W        W 1736   3.238   0.581   4.225
  872W        W 1737   1.377   0.100   6.628
  873W        W 1738   3.083   2.902   5.086
  874W        W 1739   3.112   1.458   4.991
  875W        W 1740   1.229   1.131   5.207
  876W        W 1741   1.474   1.393   6.531
  877W        W 1742   2.585   2.546   6.394
  878W        W 1743   1.235   1.000   6.506
  879W        W 1744   1.214   3.466   5.122
  880W        W 1745   0.531   3.425   6.756
  881W        W 1746   0.643   2.786   3.886
  882W        W 1747   3.160   2.544   4.696
  883W        W 1748   0.764   1.336   6.582
  884W        W 1749   3.537   1.266   4.063
  885W        W 1750   1.282   2.323   4.534
  886W        W 1751   2.381   1.705   6.615
  887W        W 1752   2.272   1.333   6.159
  888W        W 1753   0.832   1.705   6.188
  889W        W 1754   3.042   3.593   6.017
  890W        W 1755   2.833   0.227   7.011
  891W        W 1756   0.497   0.377   6.598
  892W        W 1757   0.836   1.400   5.651
  893W        W 1758   1.205   1.214   3.773
  894W        W 1759   0.008   2.973   6.318
  895W        W 1760   1.593   1.682   5.761
  896W        W 1761   1.416   0.707   3.866
  897W        W 1762   0.551   1.523   4.647
  898W        W 1763   0.322   3.375   6.084
  899W        W 1764   3.117   1.601   4.192
  900W        W 1765   3.212   0.517   6.878
  901W        W 1766   2.648   2.726   4.841
  902W        W 1767   0.246   1.650   7.018
  903W        W 1768   3.212   0.114   4.314
  904W        W 1769   2.732   2.589   4.325
  905W        W 1770   1.634   1.647   4.410
  906W        W 1771   2.821   0.451   3.933
  907W        W 1772   2.886   1.058   6.119
  908W        W 1773   0.595   1.651   5.326
  909W        W 1774   0.889   2.590   4.975
  910W        W 1775   2.652   1.210   4.940
  911W        W 1776   1.675   0.589   5.636
  912W        W 1777   3.637   2.500   6.147
  913W        W 1778   3.555   0.487   5.708
  914W        W 1779   0.094   3.317   5.084
  915W        W 1780   0.603   2.504   4.620
  916W        W 1781   0.518   0.121   7.173
  917W        W 1782   1.637   2.974   7.275
  918W        W 1783   3.392   1.942   5.065
  919W        W 1784   2.746   2.119   3.945
  920W        W 1785   2.041   3.640   6.157
  921W        W 1786   2.898   2.362   7.194
  922W        W 1787   1.713   0.072   4.474
  923W        W 1788   2.426   0.941   5.333
  924W        W 1789   0.112   2.528   5.665
  925W        W 1790   1.365   0.490   4.306
  926W        W 1791   1.169   1.974   7.155
  927W        W 1792   2.163   0.955   4.869
  928W        W 1793   2.368   2.365   5.991
  929W        W 1794   0.522   2.970   6.426
  930W        W 1795   1.113   2.953   7.149
  931W        W 1796   0.964   0.750   4.163
  932W        W 1797   2.481   0.892   4.488
  933W        W 1798   2.439   3.000   6.725
  934W        W 1799   1.124   1.592   5.324
  935W        W 1800   0.779   3.290   6.189
  936W        W 1801   3.524   3.407   3.790
  937W        W 1802   0.387   2.079   6.786
  938W        W 1803   2.382   2.341   5.474
  939W        W 1804   0.818   1.990   4.716
  940W        W 1805   1.189   2.997   6.111
  941W        W 1806   1.567   0.416   5.152
  942W        W 1807   0.178   2.400   4.082
  943W        W 1808   1.697   1.351   3.952
  944W        W 1809   0.343   1.900   4.971
  945W        W 1810   1.633   0.542   6.435
  946W        W 1811   3.305   0.251   3.862
  947W        W 1812   3.398   1.997   6.961
  948W        W 1813   2.052   3.254   7.113
  949W        W 1814   3.610   2.348   6.635
  950W        W 1815   3.018   3.146   7.246
  951W        W 1816   0.757   3.602   5.724
  952W        W 1817   3.616   2.224   4.598
  953W        W 1818   2.146   1.491   5.111
  954W        W 1819   1.913   0.103   5.001
  955W        W 1820   0.972   3.087   4.838
  956W        W 1821   1.471   0.828   6.063
  957W        W 1822   1.171   0.197   5.532
  958W        W 1823   0.234   3.019   4.080
  959W        W 1824   2.050   2.383   4.798
  960W        W 1825   0.925   3.178   6.677
  961W        W 1826   0.402   2.001   4.373
  962W        W 1827   0.287   0.544   5.372
  963W        W 1828   1.835   2.509   5.429
  964W        W 1829   0.087   0.363   4.449
  965W        W 1830   2.751   1.569   6.376
  966W        W 1831   2.628   0.955   3.948
  967W        W 1832   3.145   2.627   5.596
  968W        W 1833   1.806   3.111   5.427
  969W        W 1834   1.218   3.215   4.338
  970W        W 1835   2.500   0.118   3.768
  971W        W 1836   0.300   3.378   5.509
  972W        W 1837   2.497   1.136   7.144
  973W        W 1838   0.480   0.666   7.143
  974W        W 1839   0.211   1.266   4.476
  975W        W 1840   0.902   1.255   4.201
  976W        W 1841   2.665   1.582   7.018
  977W        W 1842   1.008   1.863   5.727
  978W        W 1843   2.482   0.149   4.847
  979W        W 1844   1.613   3.580   5.350
  980W        W 1845   2.827   3.042   6.287
  981W        W 1846   2.411   3.191   5.398
  982W        W 1847   2.430   2.171   4.992
  983W        W 1848   1.892   0.396   4.063
  984W        W 1849   3.573   0.024   4.785
  985W        W 1850   1.261   1.659   3.948
  986W        W 1851   3.427   0.996   4.938
  987W        W 1852   2.119   2.166   3.815
  988W        W 1853   3.055   2.366   6.563
  989W        W 1854   2.709   3.067   4.030
  990W        W 1855   1.324   0.742   6.936
  991W        W 1856   1.144   1.326   6.177
  992W        W 1857   3.236   2.821   6.454
  993W        W 1858   2.336   0.771   6.831
  994W        W 1859   0.180   1.242   6.608
  995W        W 1860   1.940   1.719   6.334
  996W        W 1861   0.297   2.477   4.991
  997W        W 1862   0.444   1.774   5.881
  998W        W 1863   2.761   2.060   6.231
  999W        W 1864   2.533   3.440   7.042
 1000W        W 1865   2.429   1.179   6.595
 1001W        W 1866   2.706   3.233   5.000
 1002W        W 1867   1.708   2.953   6.323
 1003W        W 1868   1.193   3.308   5.592
 1004W        W 1869   2.998   2.479   6.011
 1005W        W 1870   2.048   2.551   7.148
 1006W        W 1871   0.653   2.504   5.487
 1007W        W 1872   2.999   2.263   5.132
 1008W        W 1873   2.640   3.329   5.883
 1009W        W 1874   0.618   3.058   5.753
 1010W        W 1875   1.639   1.110   6.963
 1011W        W 1876   2.090   3.276   4.474
 1012W        W 1877   1.398   2.531   7.112
 1013W        W 1878   1.524   2.769   4.489
 1014W        W 1879   0.745   1.509   3.748
 1015W        W 1880   0.084   3.595  10.648
 1016W        W 1881   0.460   2.488  10.171
 1017W        W 1882   3.165   2.218   7.941
 1018W        W 1883   3.295   3.303   9.968
 1019W        W 1884   1.213   3.294   7.494
 1020W        W 1885   1.296   1.446   8.477
 1021W        W 1886   0.811   1.294   8.641
 1022W        W 1887   1.802   2.109   8.075
 1023W        W 1888   1.477   3.201  10.430
 1024W        W 1889   0.126   0.762  10.393
 1025W        W 1890   0.888   0.042  10.195
 1026W        W 1891   2.582   0.430   9.082
 1027W        W 1892   2.231   1.301   7.652
 1028W        W 1893   2.801   0.735  10.743
 1029W        W 1894   0.167   0.527   9.868
 1030W        W 1895   0.266   3.146  10.889
 1031W        W 1896   1.788   2.536   7.621
 1032W        W 1897   0.220   1.319   9.314
 1033W        W 1898   1.113   1.210  10.551
 1034W        W 1899   3.572   1.069   9.050
 1035W        W 1900   3.336   2.112   9.909
 1036W        W 1901   1.644   1.445   8.936
 1037W        W 1902   2.190   2.784   9.305
 1038W        W 1903   0.690   2.218   9.537
 1039W        W 1904   0.049   1.746   9.108
 1040W        W 1905   1.085   1.718  10.300
 1041W        W 1906   3.356   1.501  10.554
 1042W        W 1907   0.972   2.945   8.999
 1043W        W 1908   2.093   2.634  10.133
 1044W        W 1909   1.313   1.274   9.358
 1045W        W 1910   1.605   2.058   9.001
 1046W        W 1911   2.602   2.831  10.849
 1047W        W 1912   1.681   2.151  10.859
 1048W        W 1913   1.662   1.867  10.337
 1049W        W 1914   0.071   1.258  10.859
 1050W        W 1915   2.903   2.793  10.458
 1051W        W 1916   0.484   0.375   8.456
 1052W        W 1917   1.011   2.633   9.455
 1053W        W 1918   3.474   2.416   8.745
 1054W        W 1919   2.887   0.816   9.312
 1055W        W 1920   3.172   0.769   7.407
 1056W        W 1921   3.637   1.570   9.713
 1057W        W 1922   1.604   3.277   9.466
 1058W        W 1923   3.378   2.743   7.904
 1059W        W 1924   0.507   3.529   7.658
 1060W        W 1925   0.900   3.575   8.334
 1061W        W 1926   0.697   0.329   9.760
 1062W        W 1927   3.320   1.347  10.035
 1063W        W 1928   2.725   1.769   8.494
 1064W        W 1929   2.691   1.457   7.521
 1065W        W 1930   1.899   2.601   9.661
 1066W        W 1931   1.705   0.931   8.860
 1067W        W 1932   2.305   3.018   9.854
 1068W        W 1933   3.176   1.809   8.276
 1069W        W 1934   2.078   0.467   8.292
 1070W        W 1935   0.735   3.161   7.975
 1071W        W 1936   0.106   0.660   8.574
 1072W        W 1937   2.892   1.267   9.048
 1073W        W 1938   0.350   2.884   8.963
 1074W        W 1939   1.691   3.234   7.833
 1075W        W 1940   3.083   1.260   7.297
 1076W        W 1941   0.106   3.018   9.461
 1077W        W 1942   0.897   2.590   9.941
 1078W        W 1943   1.270   1.950   8.560
 1079W        W 1944   1.292   0.355   9.653
 1080W        W 1945   3.521   0.117   8.950
 1081W        W 1946   0.740   1.989   7.418
 1082W        W 1947   0.395   1.022   7.597
 1083W        W 1948   0.457   2.978   8.391
 1084W        W 1949   1.588   2.461   8.639
 1085W        W 1950   2.920   3.320  10.353
 1086W        W 1951   1.846   0.962   8.037
 1087W        W 1952   3.229   3.360   8.809
 1088W        W 1953   2.906   1.213  10.407
 1089W        W 1954   3.619   2.869   8.541
 1090W        W 1955   2.246   2.161  10.025
 1091W        W 1956   0.012   1.712   8.231
 1092W        W 1957   1.123   2.127   9.804
 1093W        W 1958   2.327   1.391   8.182
 1094W        W 1959   2.204   1.881   8.286
 1095W        W 1960   0.547   1.301   9.760
 1096W        W 1961   0.532   1.177  10.682
 1097W        W 1962   0.422   0.094   8.841
 1098W        W 1963   2.190   0.441   9.402
 1099W        W 1964   1.838   0.626  10.565
 1100W        W 1965   2.193   0.775   7.743
 1101W        W 1966   3.376   3.168  10.497
 1102W        W 1967   2.343   0.249  10.536
 1103W        W 1968   3.362   2.550  10.658
 1104W        W 1969   2.792   0.717  10.254
 1105W        W 1970   2.592   0.655   8.524
 1106W        W 1971   2.985   1.789  10.928
 1107W        W 1972   0.725   3.365   8.914
 1108W        W 1973   1.383   1.082   7.900
 1109W        W 1974   0.952   0.366  10.564
 1110W        W 1975   3.004   0.850   8.245
 1111W        W 1976   3.371   1.332   8.190
 1112W        W 1977   1.114   3.549  10.661
 1113W        W 1978   1.040   0.085   7.896
 1114W        W 1979   3.361   0.619   8.931
 1115W        W 1980   3.511   2.868   7.376
 1116W        W 1981   0.418   2.071   9.078
 1117W        W 1982   2.335   0.658   7.308
 1118W        W 1983   3.469   2.990   9.028
 1119W        W 1984   3.508   0.184   9.778
 1120W        W 1985   1.953   1.396  10.332
 1121W        W 1986   2.046   2.735   8.035
 1122W        W 1987   2.446   2.029  10.775
 1123W        W 1988   2.120   0.006   9.084
 1124W        W 1989   0.732   0.909   9.147
 1125W        W 1990   0.286   2.109   9.921
 1126W        W 1991   2.145   3.302   8.627
 1127W        W 1992   3.339   0.899   9.499
 1128W        W 1993   1.976   3.246  10.266
 1129W        W 1994   3.319   2.305   7.471
 1130W        W 1995   1.754   1.788   8.532
 1131W        W 1996   3.606   0.299  10.273
 1132W        W 1997   1.755   2.134   9.867
 1133W        W 1998   1.972   1.020   9.312
 1134W        W 1999   2.824   1.318   8.150
 1135W        W 2000   3.111   1.051   7.792
 1136W        W 2001   2.920   3.091   8.181
 1137W        W 2002   2.754   2.694   8.977
 1138W        W 2003   2.650   1.773   7.955
 1139W        W 2004   2.083   1.983   8.941
 1140W        W 2005   2.964   1.771   9.008
 1141W        W 2006   0.339   0.786   9.432
 1142W        W 2007   3.117   1.838  10.259
 1143W        W 2008   3.468   3.456   9.405
 1144W        W 2009   1.398   2.900   8.807
 1145W        W 2010   2.405   3.433  10.131
 1146W        W 2011   2.399   0.763   9.895
 1147W        W 2012   1.606   3.471   9.956
 1148W        W 2013   3.303   0.425   8.422
 1149W        W 2014   3.094   1.744   9.723
 1150W        W 2015   0.077   1.065   9.761
 1151W        W 2016   2.937   0.860   8.779
 1152W        W 2017   3.348   1.011  10.556
 1153W        W 2018   2.233   2.710   8.774
 1154W        W 2019   1.489   3.301   8.387
 1155W        W 2020   0.604   0.481   7.645
 1156W        W 2021   1.708   0.135   9.455
 1157W        W 2022   0.736   3.255   7.303
 1158W        W 2023   1.110   1.721   8.054
 1159W        W 2024   1.764   2.350  10.367
 1160W        W 2025   1.594   0.708   8.357
 1161W        W 2026   2.950   0.305   8.785
 1162W        W 2027   2.670   3.587   9.113
 1163W        W 2028   2.082   3.235   9.453
 1164W        W 2029   1.478   2.272   9.414
 1165W        W 2030   3.248   2.995   9.540
 1166W        W 2031   0.942   0.498   8.309
 1167W        W 2032   1.464   2.795   9.269
 1168W        W 2033   0.947   0.726   7.334
 1169W        W 2034   1.748   1.335   9.728
 1170W        W 2035   2.596   0.201   9.598
 1171W        W 2036   0.016   2.044   9.483
 1172W        W 2037   1.720   1.862   7.641
 1173W        W 2038   0.988   0.177   7.411
 1174W        W 2039   1.726   1.258   8.462
 1175W        W 2040   2.696   0.234  10.161
 1176W        W 2041   1.284   2.246  10.270
 1177W        W 2042   2.088   2.028  10.487
 1178W        W 2043   2.705   2.058  10.380
 1179W        W 2044   1.989   0.198  10.885
 1180W        W 2045   1.211   0.814   9.278
 1181W        W 2046   0.637   0.770   8.676
 1182W        W 2047   0.423   3.482   8.352
 1183W        W 2048   1.755   2.812  10.477
 1184W        W 2049   0.790   2.297   7.836
 1185W        W 2050   2.470   1.682   9.057
 1186W        W 2051   2.750   1.481   9.456
 1187W        W 2052   1.955   2.155   9.390
 1188W        W 2053   2.425   2.529   7.522
 1189W        W 2054   2.097   0.550   8.850
 1190W        W 2055   3.576   0.828   8.118
 1191W        W 2056   0.070   3.417  10.149
 1192W        W 2057   0.487   2.643   9.681
 1193W        W 2058   0.054   3.489   7.913
 1194W        W 2059   1.953   0.759   9.719
 1195W        W 2060   1.316   2.782   7.568
 1196W        W 2061   3.221   3.164   7.754
 1197W        W 2062   2.196   1.817   7.768
 1198W        W 2063   1.039   1.008   8.285
 1199W        W 2064   1.871   0.918   7.337
 1200W        W 2065   2.455   2.483  10.515
 1201W        W 2066   2.808   0.389   8.132
 1202W        W 2067   0.138   0.237   7.580
 1203W        W 2068   1.424   2.556   9.870
 1204W        W 2069   1.223   2.472   8.962
 1205W        W 2070   0.965   2.424   7.360
 1206W        W 2071   0.206   2.665   8.128
 1207W        W 2072   0.710   1.735  10.570
 1208W        W 2073   1.414   0.295  10.756
 1209W        W 2074   2.123   0.437  10.112
 1210W        W 2075   1.318   0.205   8.393
 1211W        W 2076   2.377   0.282   7.898
 1212W        W 2077   0.322   0.214   9.475
 1213W        W 2078   0.370   1.177   8.845
 1214W        W 2079   3.059   0.285   9.251
 1215W        W 2080   0.481   0.783   8.065
 1216W        W 2081   3.052   0.471   9.681
 1217W        W 2082   3.448   1.674   7.366
 1218W        W 2083   0.740   0.432   9.185
 1219W        W 2084   1.854   1.004  10.125
 1220W        W 2085   0.002   0.694   7.603
 1221W        W 2086   0.788   2.083  10.164
 1222W        W 2087   2.146   1.481   9.343
 1223W        W 2088   2.013   3.560   7.639
 1224W        W 2089   0.159   2.067   7.336
 1225W        W 2090   0.894   2.478  10.462
 1226W        W 2091   0.415   1.645  10.093
 1227W        W 2092   1.406   1.750   9.887
 1228W        W 2093   3.174   0.109  10.149
 1229W        W 2094   3.572   1.719  10.140
 1230W        W 2095   3.560   1.919   7.826
 1231W        W 2096   2.423   2.251   7.925
 1232W        W 2097   2.897   3.551   7.620
 1233W        W 2098   2.074   1.541  10.762
 1234W        W 2099   0.404   2.508  10.802
 1235W        W 2100   3.610   0.430  10.754
 1236W        W 2101   3.328   1.358   9.375
 1237W        W 2102   1.636   3.488  10.852
 1238W        W 2103   1.491   0.117   7.579
 1239W        W 2104   3.030   2.716   7.522
 1240W        W 2105   0.799   0.809  10.408
 1241W        W 2106   1.233   2.803  10.270
 1242W        W 2107   3.359   0.794  10.068
 1243W        W 2108   2.570   3.453   8.036
 1244W        W 2109   2.809   2.072   9.403
 1245W        W 2110   1.059   0.488  10.070
 1246W        W 2111   1.528   1.557  10.827
 1247W        W 2112   1.031   2.736   8.021
 1248W        W 2113   2.786   2.234   8.285
 1249W        W 2114   0.554   0.860  10.009
 1250W        W 2115   1.883   2.922   8.473
 1251W        W 2116   3.633   1.482   8.654
 1252W        W 2117   1.855   0.115  10.373
 1253W        W 2118   2.635   2.820   9.452
 1254W        W 2119   2.938   3.164   9.160
 1255W        W 2120   2.157   2.966   7.588
 1256W        W 2121   0.167   2.858  10.430
 1257W        W 2122   0.910   0.850   9.668
 1258W        W 2123   0.880   0.198   8.778
 1259W        W 2124   2.501   1.040   9.470
 1260W        W 2125   1.299   2.211   7.670
 1261W        W 2126   3.297   2.153   9.169
 1262W        W 2127   0.624   2.911  10.592
 1263W        W 2128   3.011   3.593   8.389
 1264W        W 2129   1.110   0.613   8.834
 1265W        W 2130   0.879   2.106   8.924
 1266W        W 2131   1.192   3.517   9.674
 1267W        W 2132   3.259   3.613  10.706
 1268W        W 2133   2.418   1.801   9.639
 1269W        W 2134   0.267   1.599   7.554
 1270W        W 2135   3.401   3.257   8.251
 1271W        W 2136   3.238   0.581   7.870
 1272W        W 2137   1.377   0.100  10.273
 1273W        W 2138   3.083   2.902   8.731
 1274W        W 2139   3.112   1.458   8.636
 1275W        W 2140   1.229   1.131   8.852
 1276W        W 2141   1.474   1.393  10.176
 1277W        W 2142   2.585   2.546  10.039
 1278W        W 2143   1.235   1.000  10.151
 1279W        W 2144   1.214   3.466   8.767
 1280W        W 2145   0.531   3.425  10.401
 1281W        W 2146   0.643   2.786   7.531
 1282W        W 2147   3.160   2.544   8.341
 1283W        W 2148   0.764   1.336  10.227
 1284W        W 2149   3.537   1.266   7.708
 1285W        W 2150   1.282   2.323   8.179
 1286W        W 2151   2.381   1.705  10.260
 1287W        W 2152   2.272   1.333   9.804
 1288W        W 2153   0.832   1.705   9.833
 1289W        W 2154   3.042   3.593   9.662
 1290W        W 2155   2.833   0.227  10.656
 1291W        W 2156   0.497   0.377  10.243
 1292W        W 2157   0.836   1.400   9.296
 1293W        W 2158   1.205   1.214   7.418
 1294W        W 2159   0.008   2.973   9.963
 1295W        W 2160   1.593   1.682   9.406
 1296W        W 2161   1.416   0.707   7.511
 1297W        W 2162   0.551   1.523   8.292
 1298W        W 2163   0.322   3.375   9.729
 1299W        W 2164   3.117   1.601   7.837
 1300W        W 2165   3.212   0.517  10.523
 1301W        W 2166   2.648   2.726   8.486
 1302W        W 2167   0.246   1.650  10.663
 1303W        W 2168   3.212   0.114   7.959
 1304W        W 2169   2.732   2.589   7.970
 1305W        W 2170   1.634   1.647   8.055
 1306W        W 2171   2.821   0.451   7.578
 1307W        W 2172   2.886   1.058   9.764
 1308W        W 2173   0.595   1.651   8.971
 1309W        W 2174   0.889   2.590   8.620
 1310W        W 2175   2.652   1.210   8.585
 1311W        W 2176   1.675   0.589   9.281
 1312W        W 2177   3.637   2.500   9.792
 1313W        W 2178   3.555   0.487   9.353
 1314W        W 2179   0.094   3.317   8.729
 1315W        W 2180   0.603   2.504   8.265
 1316W        W 2181   0.518   0.121  10.818
 1317W        W 2182   1.637   2.974  10.920
 1318W        W 2183   3.392   1.942   8.710
 1319W        W 2184   2.746   2.119   7.590
 1320W        W 2185   2.041   3.640   9.802
 1321W        W 2186   2.898   2.362  10.839
 1322W        W 2187   1.713   0.072   8.119
 1323W        W 2188   2.426   0.941   8.978
 1324W        W 2189   0.112   2.528   9.310
 1325W        W 2190   1.365   0.490   7.951
 1326W        W 2191   1.169   1.974  10.800
 1327W        W 2192   2.163   0.955   8.514
 1328W        W 2193   2.368   2.365   9.636
 1329W        W 2194   0.522   2.970  10.071
 1330W        W 2195   1.113   2.953  10.794
 1331W        W 2196   0.964   0.750   7.808
 1332W        W 2197   2.481   0.892   8.133
 1333W        W 2198   2.439   3.000  10.370
 1334W        W 2199   1.124   1.592   8.969
 1335W        W 2200   0.779   3.290   9.834
 1336W        W 2201   3.524   3.407   7.435
 1337W        W 2202   0.387   2.079  10.431
 1338W        W 2203   2.382   2.341   9.119
 1339W        W 2204   0.818   1.990   8.361
 1340W        W 2205   1.189   2.997   9.756
 1341W        W 2206   1.567   0.416   8.797
 1342W        W 2207   0.178   2.400   7.727
 1343W        W 2208   1.697   1.351   7.597
 1344W        W 2209   0.343   1.900   8.616
 1345W        W 2210   1.633   0.542  10.080
 1346W        W 2211   3.305   0.251   7.507
 1347W        W 2212   3.398   1.997  10.606
 1348W        W 2213   2.052   3.254  10.758
 1349W        W 2214   3.610   2.348  10.280
 1350W        W 2215   3.018   3.146  10.891
 1351W        W 2216   0.757   3.602   9.369
 1352W        W 2217   3.616   2.224   8.243
 1353W        W 2218   2.146   1.491   8.756
 1354W        W 2219   1.913   0.103   8.646
 1355W        W 2220   0.972   3.087   8.483
 1356W        W 2221   1.471   0.828   9.708
 1357W        W 2222   1.171   0.197   9.177
 1358W        W 2223   0.234   3.019   7.725
 1359W        W 2224   2.050   2.383   8.443
 1360W        W 2225   0.925   3.178  10.322
 1361W        W 2226   0.402   2.001   8.018
 1362W        W 2227   0.287   0.544   9.017
 1363W        W 2228   1.835   2.509   9.074
 1364W        W 2229   0.087   0.363   8.094
 1365W        W 2230   2.751   1.569  10.021
 1366W        W 2231   2.628   0.955   7.593
 1367W        W 2232   3.145   2.627   9.241
 1368W        W 2233   1.806   3.111   9.072
 1369W        W 2234   1.218   3.215   7.983
 1370W        W 2235   2.500   0.118   7.413
 1371W        W 2236   0.300   3.378   9.154
 1372W        W 2237   2.497   1.136  10.789
 1373W        W 2238   0.480   0.666  10.788
 1374W        W 2239   0.211   1.266   8.121
 1375W        W 2240   0.902   1.255   7.846
 1376W        W 2241   2.665   1.582  10.663
 1377W        W 2242   1.008   1.863   9.372
 1378W        W 2243   2.482   0.149   8.492
 1379W        W 2244   1.613   3.580   8.995
 1380W        W 2245   2.827   3.042   9.932
 1381W        W 2246   2.411   3.191   9.043
 1382W        W 2247   2.430   2.171   8.637
 1383W        W 2248   1.892   0.396   7.708
 1384W        W 2249   3.573   0.024   8.430
 1385W        W 2250   1.261   1.659   7.593
 1386W        W 2251   3.427   0.996   8.583
 1387W        W 2252   2.119   2.166   7.460
 1388W        W 2253   3.055   2.366  10.208
 1389W        W 2254   2.709   3.067   7.675
 1390W        W 2255   1.324   0.742  10.581
 1391W        W 2256   1.144   1.326   9.822
 1392W        W 2257   3.236   2.821  10.099
 1393W        W 2258   2.336   0.771  10.476
 1394W        W 2259   0.180   1.242  10.253
 1395W        W 2260   1.940   1.719   9.979
 1396W        W 2261   0.297   2.477   8.636
 1397W        W 2262   0.444   1.774   9.526
 1398W        W 2263   2.761   2.060   9.876
 1399W        W 2264   2.533   3.440  10.687
 1400W        W 2265   2.429   1.179  10.240
 1401W        W 2266   2.706   3.233   8.645
 1402W        W 2267   1.708   2.953   9.968
 1403W        W 2268   1.193   3.308   9.237
 1404W        W 2269   2.998   2.479   9.656
 1405W        W 2270   2.048   2.551  10.793
 1406W        W 2271   0.653   2.504   9.132
 1407W        W 2272   2.999   2.263   8.777
 1408W        W 2273   2.640   3.329   9.528
 1409W        W 2274   0.618   3.058   9.398
 1410W        W 2275   1.639   1.110  10.608
 1411W        W 2276   2.090   3.276   8.119
 1412W        W 2277   1.398   2.531  10.757
 1413W        W 2278   1.524   2.769   8.134
 1414W        W 2279   0.745   1.509   7.393
 1415W        W 2280   0.084   3.595  14.292
 1416W        W 2281   0.460   2.488  13.815
 1417W        W 2282   3.165   2.218  11.585
 1418W        W 2283   3.295   3.303  13.612
 1419W        W 2284   1.213   3.294  11.138
 1420W        W 2285   1.296   1.446  12.121
 1421W        W 2286   0.811   1.294  12.285
 1422W        W 2287   1.802   2.109  11.719
 1423W        W 2288   1.477   3.201  14.074
 1424W        W 2289   0.126   0.762  14.037
 1425W        W 2290   0.888   0.042  13.839
 1426W        W 2291   2.582   0.430  12.726
 1427W        W 2292   2.231   1.301  11.296
 1428W        W 2293   2.801   0.735  14.387
 1429W        W 2294   0.167   0.527  13.512
 1430W        W 2295   0.266   3.146  14.533
 1431W        W 2296   1.788   2.536  11.265
 1432W        W 2297   0.220   1.319  12.958
 1433W        W 2298   1.113   1.210  14.195
 1434W        W 2299   3.572   1.069  12.694
 1435W        W 2300   3.336   2.112  13.553
 1436W        W 2301   1.644   1.445  12.580
 1437W        W 2302   2.190   2.784  12.949
 1438W        W 2303   0.690   2.218  13.181
 1439W        W 2304   0.049   1.746  12.752
 1440W        W 2305   1.085   1.718  13.944
 1441W        W 2306   3.356   1.501  14.198
 1442W        W 2307   2.093   2.634  13.777
 1443W        W 2308   1.313   1.274  13.002
 1444W        W 2309   1.605   2.058  12.645
 1445W        W 2310   2.602   2.831  14.493
 1446W        W 2311   1.681   2.151  14.503
 1447W        W 2312   1.662   1.867  13.981
 1448W        W 2313   0.071   1.258  14.503
 1449W        W 2314   2.903   2.793  14.102
 1450W        W 2315   0.484   0.375  12.100
 1451W        W 2316   1.011   2.633  13.099
 1452W        W 2317   3.474   2.416  12.389
 1453W        W 2318   2.887   0.816  12.956
 1454W        W 2319   3.172   0.769  11.051
 1455W        W 2320   3.637   1.570  13.357
 1456W        W 2321   1.604   3.277  13.110
 1457W        W 2322   3.378   2.743  11.548
 1458W        W 2323   0.507   3.529  11.302
 1459W        W 2324   0.900   3.575  11.978
 1460W        W 2325   0.697   0.329  13.404
 1461W        W 2326   3.320   1.347  13.679
 1462W        W 2327   2.725   1.769  12.138
 1463W        W 2328   2.691   1.457  11.165
 1464W        W 2329   1.899   2.601  13.305
 1465W        W 2330   1.705   0.931  12.504
 1466W        W 2331   2.305   3.018  13.498
 1467W        W 2332   3.176   1.809  11.920
 1468W        W 2333   2.078   0.467  11.936
 1469W        W 2334   0.735   3.161  11.619
 1470W        W 2335   0.106   0.660  12.218
 1471W        W 2336   2.892   1.267  12.692
 1472W        W 2337   0.350   2.884  12.607
 1473W        W 2338   1.691   3.234  11.477
 1474W        W 2339   3.083   1.260  10.941
 1475W        W 2340   0.106   3.018  13.105
 1476W        W 2341   0.897   2.590  13.585
 1477W        W 2342   1.270   1.950  12.204
 1478W        W 2343   1.292   0.355  13.297
 1479W        W 2344   3.521   0.117  12.594
 1480W        W 2345   0.740   1.989  11.062
 1481W        W 2346   0.395   1.022  11.241
 1482W        W 2347   0.457   2.978  12.035
 1483W        W 2348   1.588   2.461  12.283
 1484W        W 2349   2.920   3.320  13.997
 1485W        W 2350   1.846   0.962  11.681
 1486W        W 2351   3.229   3.360  12.453
 1487W        W 2352   2.906   1.213  14.051
 1488W        W 2353   3.619   2.869  12.185
 1489W        W 2354   2.246   2.161  13.669
 1490W        W 2355   0.012   1.712  11.875
 1491W        W 2356   1.123   2.127  13.448
 1492W        W 2357   2.327   1.391  11.826
 1493W        W 2358   2.204   1.881  11.930
 1494W        W 2359   0.547   1.301  13.404
 1495W        W 2360   0.532   1.177  14.326
 1496W        W 2361   0.422   0.094  12.485
 1497W        W 2362   2.190   0.441  13.046
 1498W        W 2363   1.838   0.626  14.209
 1499W        W 2364   2.193   0.775  11.387
 1500W        W 2365   3.376   3.168  14.141
 1501W        W 2366   2.343   0.249  14.180
 1502W        W 2367   3.362   2.550  14.302
 1503W        W 2368   2.792   0.717  13.898
 1504W        W 2369   2.592   0.655  12.168
 1505W        W 2370   2.985   1.789  14.572
 1506W        W 2371   0.725   3.365  12.558
 1507W        W 2372   1.383   1.082  11.544
 1508W        W 2373   0.952   0.366  14.208
 1509W        W 2374   3.004   0.850  11.889
 1510W        W 2375   3.371   1.332  11.834
 1511W        W 2376   1.114   3.549  14.305
 1512W        W 2377   1.040   0.085  11.540
 1513W        W 2378   3.361   0.619  12.575
 1514W        W 2379   3.511   2.868  11.020
 1515W        W 2380   0.418   2.071  12.722
 1516W        W 2381   2.335   0.658  10.952
 1517W        W 2382   3.469   2.990  12.672
 1518W        W 2383   3.508   0.184  13.422
 1519W        W 2384   1.953   1.396  13.976
 1520W        W 2385   2.046   2.735  11.679
 1521W        W 2386   2.446   2.029  14.419
 1522W        W 2387   2.120   0.006  12.728
 1523W        W 2388   0.732   0.909  12.791
 1524W        W 2389   0.286   2.109  13.565
 1525W        W 2390   2.145   3.302  12.271
 1526W        W 2391   3.339   0.899  13.143
 1527W        W 2392   1.976   3.246  13.910
 1528W        W 2393   3.319   2.305  11.115
 1529W        W 2394   1.754   1.788  12.176
 1530W        W 2395   3.606   0.299  13.917
 1531W        W 2396   1.755   2.134  13.511
 1532W        W 2397   1.972   1.020  12.956
 1533W        W 2398   2.824   1.318  11.794
 1534W        W 2399   3.111   1.051  11.436
 1535W        W 2400   2.920   3.091  11.825
 1536W        W 2401   2.754   2.694  12.621
 1537W        W 2402   2.650   1.773  11.599
 1538W        W 2403   2.083   1.983  12.585
 1539W        W 2404   2.964   1.771  12.652
 1540W        W 2405   0.339   0.786  13.076
 1541W        W 2406   3.117   1.838  13.903
 1542W        W 2407   3.468   3.456  13.049
 1543W        W 2408   1.398   2.900  12.451
 1544W        W 2409   2.405   3.433  13.775
 1545W        W 2410   2.399   0.763  13.539
 1546W        W 2411   1.606   3.471  13.600
 1547W        W 2412   3.303   0.425  12.066
 1548W        W 2413   3.094   1.744  13.367
 1549W        W 2414   0.077   1.065  13.405
 1550W        W 2415   2.937   0.860  12.423
 1551W        W 2416   3.348   1.011  14.200
 1552W        W 2417   2.233   2.710  12.418
 1553W        W 2418   1.489   3.301  12.031
 1554W        W 2419   0.604   0.481  11.289
 1555W        W 2420   1.708   0.135  13.099
 1556W        W 2421   0.736   3.255  10.947
 1557W        W 2422   1.110   1.721  11.698
 1558W        W 2423   1.764   2.350  14.011
 1559W        W 2424   1.594   0.708  12.001
 1560W        W 2425   2.950   0.305  12.429
 1561W        W 2426   2.670   3.587  12.757
 1562W        W 2427   2.082   3.235  13.097
 1563W        W 2428   1.478   2.272  13.058
 1564W        W 2429   3.248   2.995  13.184
 1565W        W 2430   0.942   0.498  11.953
 1566W        W 2431   1.464   2.795  12.913
 1567W        W 2432   0.947   0.726  10.978
 1568W        W 2433   1.748   1.335  13.372
 1569W        W 2434   2.596   0.201  13.242
 1570W        W 2435   0.016   2.044  13.127
 1571W        W 2436   1.720   1.862  11.285
 1572W        W 2437   0.988   0.177  11.055
 1573W        W 2438   1.726   1.258  12.106
 1574W        W 2439   2.696   0.234  13.805
 1575W        W 2440   1.284   2.246  13.914
 1576W        W 2441   2.088   2.028  14.131
 1577W        W 2442   2.705   2.058  14.024
 1578W        W 2443   1.989   0.198  14.529
 1579W        W 2444   1.211   0.814  12.922
 1580W        W 2445   0.637   0.770  12.320
 1581W        W 2446   0.423   3.482  11.996
 1582W        W 2447   1.755   2.812  14.121
 1583W        W 2448   0.790   2.297  11.480
 1584W        W 2449   2.470   1.682  12.701
 1585W        W 2450   2.750   1.481  13.100
 1586W        W 2451   1.955   2.155  13.034
 1587W        W 2452   2.425   2.529  11.166
 1588W        W 2453   2.097   0.550  12.494
 1589W        W 2454   3.576   0.828  11.762
 1590W        W 2455   0.070   3.417  13.793
 1591W        W 2456   0.487   2.643  13.325
 1592W        W 2457   0.054   3.489  11.557
 1593W        W 2458   1.953   0.759  13.363
 1594W        W 2459   1.316   2.782  11.212
 1595W        W 2460   3.221   3.164  11.398
 1596W        W 2461   2.196   1.817  11.412
 1597W        W 2462   1.039   1.008  11.929
 1598W        W 2463   1.871   0.918  10.981
 1599W        W 2464   2.455   2.483  14.159
 1600W        W 2465   2.808   0.389  11.776
 1601W        W 2466   0.138   0.237  11.224
 1602W        W 2467   1.424   2.556  13.514
 1603W        W 2468   1.223   2.472  12.606
 1604W        W 2469   0.965   2.424  11.004
 1605W        W 2470   0.206   2.665  11.772
 1606W        W 2471   0.710   1.735  14.214
 1607W        W 2472   1.414   0.295  14.400
 1608W        W 2473   2.123   0.437  13.756
 1609W        W 2474   1.318   0.205  12.037
 1610W        W 2475   2.377   0.282  11.542
 1611W        W 2476   0.322   0.214  13.119
 1612W        W 2477   0.370   1.177  12.489
 1613W        W 2478   3.059   0.285  12.895
 1614W        W 2479   0.481   0.783  11.709
 1615W        W 2480   3.052   0.471  13.325
 1616W        W 2481   3.448   1.674  11.010
 1617W        W 2482   0.740   0.432  12.829
 1618W        W 2483   1.854   1.004  13.769
 1619W        W 2484   0.002   0.694  11.247
 1620W        W 2485   0.788   2.083  13.808
 1621W        W 2486   2.146   1.481  12.987
 1622W        W 2487   2.013   3.560  11.283
 1623W        W 2488   0.159   2.067  10.980
 1624W        W 2489   0.894   2.478  14.106
 1625W        W 2490   0.415   1.645  13.737
 1626W        W 2491   1.406   1.750  13.531
 1627W        W 2492   3.174   0.109  13.793
 1628W        W 2493   3.572   1.719  13.784
 1629W        W 2494   3.560   1.919  11.470
 1630W        W 2495   2.423   2.251  11.569
 1631W        W 2496   2.897   3.551  11.264
 1632W        W 2497   2.074   1.541  14.406
 1633W        W 2498   0.404   2.508  14.446
 1634W        W 2499   3.610   0.430  14.398
 1635W        W 2500   3.328   1.358  13.019
 1636W        W 2501   1.636   3.488  14.496
 1637W        W 2502   1.491   0.117  11.223
 1638W        W 2503   3.030   2.716  11.166
 1639W        W 2504   0.799   0.809  14.052
 1640W        W 2505   1.233   2.803  13.914
 1641W        W 2506   3.359   0.794  13.712
 1642W        W 2507   2.570   3.453  11.680
 1643W        W 2508   2.809   2.072  13.047
 1644W        W 2509   1.059   0.488  13.714
 1645W        W 2510   1.528   1.557  14.471
 1646W        W 2511   1.031   2.736  11.665
 1647W        W 2512   2.786   2.234  11.929
 1648W        W 2513   0.554   0.860  13.653
 1649W        W 2514   1.883   2.922  12.117
 1650W        W 2515   3.633   1.482  12.298
 1651W        W 2516   1.855   0.115  14.017
 1652W        W 2517   2.635   2.820  13.096
 1653W        W 2518   2.938   3.164  12.804
 1654W        W 2519   2.157   2.966  11.232
 1655W        W 2520   0.167   2.858  14.074
 1656W        W 2521   0.910   0.850  13.312
 1657W        W 2522   0.880   0.198  12.422
 1658W        W 2523   2.501   1.040  13.114
 1659W        W 2524   1.299   2.211  11.314
 1660W        W 2525   3.297   2.153  12.813
 1661W        W 2526   0.624   2.911  14.236
 1662W        W 2527   3.011   3.593  12.033
 1663W        W 2528   1.110   0.613  12.478
 1664W        W 2529   0.879   2.106  12.568
 1665W        W 2530   1.192   3.517  13.318
 1666W        W 2531   3.259   3.613  14.350
 1667W        W 2532   2.418   1.801  13.283
 1668W        W 2533   0.267   1.599  11.198
 1669W        W 2534   3.401   3.257  11.895
 1670W        W 2535   3.238   0.581  11.514
 1671W        W 2536   1.377   0.100  13.917
 1672W        W 2537   3.083   2.902  12.375
 1673W        W 2538   3.112   1.458  12.280
 1674W        W 2539   1.229   1.131  12.496
 1675W        W 2540   1.474   1.393  13.820
 1676W        W 2541   2.585   2.546  13.683
 1677W        W 2542   1.235   1.000  13.795
 1678W        W 2543   1.214   3.466  12.411
 1679W        W 2544   0.531   3.425  14.045
 1680W        W 2545   0.643   2.786  11.175
 1681W        W 2546   3.160   2.544  11.985
 1682W        W 2547   0.764   1.336  13.871
 1683W        W 2548   3.537   1.266  11.352
 1684W        W 2549   1.282   2.323  11.823
 1685W        W 2550   2.381   1.705  13.904
 1686W        W 2551   2.272   1.333  13.448
 1687W        W 2552   0.832   1.705  13.477
 1688W        W 2553   3.042   3.593  13.306
 1689W        W 2554   2.833   0.227  14.300
 1690W        W 2555   0.497   0.377  13.887
 1691W        W 2556   0.836   1.400  12.940
 1692W        W 2557   1.205   1.214  11.062
 1693W        W 2558   0.008   2.973  13.607
 1694W        W 2559   1.593   1.682  13.050
 1695W        W 2560   1.416   0.707  11.155
 1696W        W 2561   0.551   1.523  11.936
 1697W        W 2562   0.322   3.375  13.373
 1698W        W 2563   3.117   1.601  11.481
 1699W        W 2564   3.212   0.517  14.167
 1700W        W 2565   2.648   2.726  12.130
 1701W        W 2566   0.246   1.650  14.307
 1702W        W 2567   3.212   0.114  11.603
 1703W        W 2568   2.732   2.589  11.614
 1704W        W 2569   1.634   1.647  11.699
 1705W        W 2570   2.821   0.451  11.222
 1706W        W 2571   2.886   1.058  13.408
 1707W        W 2572   0.595   1.651  12.615
 1708W        W 2573   0.889   2.590  12.264
 1709W        W 2574   2.652   1.210  12.229
 1710W        W 2575   1.675   0.589  12.925
 1711W        W 2576   3.637   2.500  13.436
 1712W        W 2577   3.555   0.487  12.997
 1713W        W 2578   0.094   3.317  12.373
 1714W        W 2579   0.603   2.504  11.909
 1715W        W 2580   0.518   0.121  14.462
 1716W        W 2581   1.637   2.974  14.564
 1717W        W 2582   3.392   1.942  12.354
 1718W        W 2583   2.746   2.119  11.234
 1719W        W 2584   2.041   3.640  13.446
 1720W        W 2585   2.898   2.362  14.483
 1721W        W 2586   1.713   0.072  11.763
 1722W        W 2587   2.426   0.941  12.622
 1723W        W 2588   0.112   2.528  12.954
 1724W        W 2589   1.365   0.490  11.595
 1725W        W 2590   1.169   1.974  14.444
 1726W        W 2591   2.163   0.955  12.158
 1727W        W 2592   2.368   2.365  13.280
 1728W        W 2593   0.522   2.970  13.715
 1729W        W 2594   1.113   2.953  14.438
 1730W        W 2595   0.964   0.750  11.452
 1731W        W 2596   2.481   0.892  11.777
 1732W        W 2597   2.439   3.000  14.014
 1733W        W 2598   1.124   1.592  12.613
 1734W        W 2599   0.779   3.290  13.478
 1735W        W 2600   3.524   3.407  11.079
 1736W        W 2601   0.387   2.079  14.075
 1737W        W 2602   2.382   2.341  12.763
 1738W        W 2603   0.818   1.990  12.005
 1739W        W 2604   1.189   2.997  13.400
 1740W        W 2605   1.567   0.416  12.441
 1741W        W 2606   0.178   2.400  11.371
 1742W        W 2607   1.697   1.351  11.241
 1743W        W 2608   0.343   1.900  12.260
 1744W        W 2609   1.633   0.542  13.724
 1745W        W 2610   3.305   0.251  11.151
 1746W        W 2611   3.398   1.997  14.250
 1747W        W 2612   2.052   3.254  14.402
 1748W        W 2613   3.610   2.348  13.924
 1749W        W 2614   3.018   3.146  14.535
 1750W        W 2615   0.757   3.602  13.013
 1751W        W 2616   3.616   2.224  11.887
 1752W        W 2617   2.146   1.491  12.400
 1753W        W 2618   1.913   0.103  12.290
 1754W        W 2619   0.972   3.087  12.127
 1755W        W 2620   1.471   0.828  13.352
 1756W        W 2621   1.171   0.197  12.821
 1757W        W 2622   0.234   3.019  11.369
 1758W        W 2623   2.050   2.383  12.087
 1759W        W 2624   0.925   3.178  13.966
 1760W        W 2625   0.402   2.001  11.662
 1761W        W 2626   0.287   0.544  12.661
 1762W        W 2627   1.835   2.509  12.718
 1763W        W 2628   0.087   0.363  11.738
 1764W        W 2629   2.751   1.569  13.665
 1765W        W 2630   2.628   0.955  11.237
 1766W        W 2631   3.145   2.627  12.885
 1767W        W 2632   1.806   3.111  12.716
 1768W        W 2633   1.218   3.215  11.627
 1769W        W 2634   2.500   0.118  11.057
 1770W        W 2635   0.300   3.378  12.798
 1771W        W 2636   2.497   1.136  14.433
 1772W        W 2637   0.480   0.666  14.432
 1773W        W 2638   0.211   1.266  11.765
 1774W        W 2639   0.902   1.255  11.490
 1775W        W 2640   2.665   1.582  14.307
 1776W        W 2641   1.008   1.863  13.016
 1777W        W 2642   2.482   0.149  12.136
 1778W        W 2643   1.613   3.580  12.639
 1779W        W 2644   2.827   3.042  13.576
 1780W        W 2645   2.411   3.191  12.687
 1781W        W 2646   2.430   2.171  12.281
 1782W        W 2647   1.892   0.396  11.352
 1783W        W 2648   3.573   0.024  12.074
 1784W        W 2649   1.261   1.659  11.237
 1785W        W 2650   3.427   0.996  12.227
 1786W        W 2651   2.119   2.166  11.104
 1787W        W 2652   3.055   2.366  13.852
 1788W        W 2653   2.709   3.067  11.319
 1789W        W 2654   1.324   0.742  14.225
 1790W        W 2655   1.144   1.326  13.466
 1791W        W 2656   3.236   2.821  13.743
 1792W        W 2657   2.336   0.771  14.120
 1793W        W 2658   0.180   1.242  13.897
 1794W        W 2659   1.940   1.719  13.623
 1795W        W 2660   0.297   2.477  12.280
 1796W        W 2661   0.444   1.774  13.170
 1797W        W 2662   2.761   2.060  13.520
 1798W        W 2663   2.533   3.440  14.331
 1799W        W 2664   2.429   1.179  13.884
 1800W        W 2665   2.706   3.233  12.289
 1801W        W 2666   1.708   2.953  13.612
 1802W        W 2667   1.193   3.308  12.881
 1803W        W 2668   2.998   2.479  13.300
 1804W        W 2669   2.048   2.551  14.437
 1805W        W 2670   0.653   2.504  12.776
 1806W        W 2671   2.999   2.263  12.421
 1807W        W 2672   2.640   3.329  13.172
 1808W        W 2673   0.618   3.058  13.042
 1809W        W 2674   1.639   1.110  14.252
 1810W        W 2675   2.090   3.276  11.763
 1811W        W 2676   1.398   2.531  14.401
 1812W        W 2677   1.524   2.769  11.778
 1813W        W 2678   0.745   1.509  11.037
 1814W        W 2679   0.084   3.595  17.936
 1815W        W 2680   0.460   2.488  17.459
 1816W        W 2681   3.165   2.218  15.229
 1817W        W 2682   3.295   3.303  17.256
 1818W        W 2683   1.213   3.294  14.782
 1819W        W 2684   1.296   1.446  15.765
 1820W        W 2685   0.811   1.294  15.929
 1821W        W 2686   1.802   2.109  15.363
 1822W        W 2687   1.477   3.201  17.718
 1823W        W 2688   0.126   0.762  17.681
 1824W        W 2689   0.888   0.042  17.483
 1825W        W 2690   2.582   0.430  16.370
 1826W        W 2691   2.231   1.301  14.940
 1827W        W 2692   2.801   0.735  18.031
 1828W        W 2693   0.167   0.527  17.156
 1829W        W 2694   0.266   3.146  18.177
 1830W        W 2695   1.788   2.536  14.909
 1831W        W 2696   0.220   1.319  16.602
 1832W        W 2697   1.113   1.210  17.839
 1833W        W 2698   3.572   1.069  16.338
 1834W        W 2699   3.336   2.112  17.197
 1835W        W 2700   1.644   1.445  16.224
 1836W        W 2701   2.190   2.784  16.593
 1837W        W 2702   0.690   2.218  16.825
 1838W        W 2703   0.049   1.746  16.396
 1839W        W 2704   1.085   1.718  17.588
 1840W        W 2705   3.356   1.501  17.842
 1841W        W 2706   0.972   2.945  16.287
 1842W        W 2707   2.093   2.634  17.421
 1843W        W 2708   1.313   1.274  16.646
 1844W        W 2709   1.605   2.058  16.289
 1845W        W 2710   2.602   2.831  18.137
 1846W        W 2711   1.681   2.151  18.147
 1847W        W 2712   1.662   1.867  17.625
 1848W        W 2713   0.071   1.258  18.147
 1849W        W 2714   2.903   2.793  17.746
 1850W        W 2715   0.484   0.375  15.744
 1851W        W 2716   1.011   2.633  16.743
 1852W        W 2717   3.474   2.416  16.033
 1853W        W 2718   2.887   0.816  16.600
 1854W        W 2719   3.172   0.769  14.695
 1855W        W 2720   3.637   1.570  17.001
 1856W        W 2721   1.604   3.277  16.754
 1857W        W 2722   3.378   2.743  15.192
 1858W        W 2723   0.507   3.529  14.946
 1859W        W 2724   0.900   3.575  15.622
 1860W        W 2725   0.697   0.329  17.048
 1861W        W 2726   3.320   1.347  17.323
 1862W        W 2727   2.725   1.769  15.782
 1863W        W 2728   2.691   1.457  14.809
 1864W        W 2729   1.899   2.601  16.949
 1865W        W 2730   1.705   0.931  16.148
 1866W        W 2731   2.305   3.018  17.142
 1867W        W 2732   3.176   1.809  15.564
 1868W        W 2733   2.078   0.467  15.580
 1869W        W 2734   0.735   3.161  15.263
 1870W        W 2735   0.106   0.660  15.862
 1871W        W 2736   2.892   1.267  16.336
 1872W        W 2737   0.350   2.884  16.251
 1873W        W 2738   1.691   3.234  15.121
 1874W        W 2739   3.083   1.260  14.585
 1875W        W 2740   0.106   3.018  16.749
 1876W        W 2741   0.897   2.590  17.229
 1877W        W 2742   1.270   1.950  15.848
 1878W        W 2743   1.292   0.355  16.941
 1879W        W 2744   3.521   0.117  16.238
 1880W        W 2745   0.740   1.989  14.706
 1881W        W 2746   0.395   1.022  14.885
 1882W        W 2747   0.457   2.978  15.679
 1883W        W 2748   1.588   2.461  15.927
 1884W        W 2749   2.920   3.320  17.641
 1885W        W 2750   1.846   0.962  15.325
 1886W        W 2751   3.229   3.360  16.097
 1887W        W 2752   2.906   1.213  17.695
 1888W        W 2753   3.619   2.869  15.829
 1889W        W 2754   2.246   2.161  17.313
 1890W        W 2755   0.012   1.712  15.519
 1891W        W 2756   1.123   2.127  17.092
 1892W        W 2757   2.327   1.391  15.470
 1893W        W 2758   2.204   1.881  15.574
 1894W        W 2759   0.547   1.301  17.048
 1895W        W 2760   0.532   1.177  17.970
 1896W        W 2761   0.422   0.094  16.129
 1897W        W 2762   2.190   0.441  16.690
 1898W        W 2763   1.838   0.626  17.853
 1899W        W 2764   2.193   0.775  15.031
 1900W        W 2765   3.376   3.168  17.785
 1901W        W 2766   2.343   0.249  17.824
 1902W        W 2767   3.362   2.550  17.946
 1903W        W 2768   2.792   0.717  17.542
 1904W        W 2769   2.592   0.655  15.812
 1905W        W 2770   2.985   1.789  18.216
 1906W        W 2771   0.725   3.365  16.202
 1907W        W 2772   1.383   1.082  15.188
 1908W        W 2773   0.952   0.366  17.852
 1909W        W 2774   3.004   0.850  15.533
 1910W        W 2775   3.371   1.332  15.478
 1911W        W 2776   1.114   3.549  17.949
 1912W        W 2777   1.040   0.085  15.184
 1913W        W 2778   3.361   0.619  16.219
 1914W        W 2779   3.511   2.868  14.664
 1915W        W 2780   0.418   2.071  16.366
 1916W        W 2781   2.335   0.658  14.596
 1917W        W 2782   3.469   2.990  16.316
 1918W        W 2783   3.508   0.184  17.066
 1919W        W 2784   1.953   1.396  17.620
 1920W        W 2785   2.046   2.735  15.323
 1921W        W 2786   2.446   2.029  18.063
 1922W        W 2787   2.120   0.006  16.372
 1923W        W 2788   0.732   0.909  16.435
 1924W        W 2789   0.286   2.109  17.209
 1925W        W 2790   2.145   3.302  15.915
 1926W        W 2791   3.339   0.899  16.787
 1927W        W 2792   1.976   3.246  17.554
 1928W        W 2793   3.319   2.305  14.759
 1929W        W 2794   1.754   1.788  15.820
 1930W        W 2795   3.606   0.299  17.561
 1931W        W 2796   1.755   2.134  17.155
 1932W        W 2797   1.972   1.020  16.600
 1933W        W 2798   2.824   1.318  15.438
 1934W        W 2799   3.111   1.051  15.080
 1935W        W 2800   2.920   3.091  15.469
 1936W        W 2801   2.754   2.694  16.265
 1937W        W 2802   2.650   1.773  15.243
 1938W        W 2803   2.083   1.983  16.229
 1939W        W 2804   2.964   1.771  16.296
 1940W        W 2805   0.339   0.786  16.720
 1941W        W 2806   3.117   1.838  17.547
 1942W        W 2807   3.468   3.456  16.693
 1943W        W 2808   1.398   2.900  16.095
 1944W        W 2809   2.405   3.433  17.419
 1945W        W 2810   2.399   0.763  17.183
 1946W        W 2811   1.606   3.471  17.244
 1947W        W 2812   3.303   0.425  15.710
 1948W        W 2813   3.094   1.744  17.011
 1949W        W 2814   0.077   1.065  17.049
 1950W        W 2815   2.937   0.860  16.067
 1951W        W 2816   3.348   1.011  17.844
 1952W        W 2817   2.233   2.710  16.062
 1953W        W 2818   1.489   3.301  15.675
 1954W        W 2819   0.604   0.481  14.933
 1955W        W 2820   1.708   0.135  16.743
 1956W        W 2821   0.736   3.255  14.591
 1957W        W 2822   1.110   1.721  15.342
 1958W        W 2823   1.764   2.350  17.655
 1959W        W 2824   1.594   0.708  15.645
 1960W        W 2825   2.950   0.305  16.073
 1961W        W 2826   2.670   3.587  16.401
 1962W        W 2827   2.082   3.235  16.741
 1963W        W 2828   1.478   2.272  16.702
 1964W        W 2829   3.248   2.995  16.828
 1965W        W 2830   0.942   0.498  15.597
 1966W        W 2831   1.464   2.795  16.557
 1967W        W 2832   0.947   0.726  14.622
 1968W        W 2833   1.748   1.335  17.016
 1969W        W 2834   2.596   0.201  16.886
 1970W        W 2835   0.016   2.044  16.771
 1971W        W 2836   1.720   1.862  14.929
 1972W        W 2837   0.988   0.177  14.699
 1973W        W 2838   1.726   1.258  15.750
 1974W        W 2839   2.696   0.234  17.449
 1975W        W 2840   1.284   2.246  17.558
 1976W        W 2841   2.088   2.028  17.775
 1977W        W 2842   2.705   2.058  17.668
 1978W        W 2843   1.989   0.198  18.173
 1979W        W 2844   1.211   0.814  16.566
 1980W        W 2845   0.637   0.770  15.964
 1981W        W 2846   0.423   3.482  15.640
 1982W        W 2847   1.755   2.812  17.765
 1983W        W 2848   0.790   2.297  15.124
 1984W        W 2849   2.470   1.682  16.345
 1985W        W 2850   2.750   1.481  16.744
 1986W        W 2851   1.955   2.155  16.678
 1987W        W 2852   2.425   2.529  14.810
 1988W        W 2853   2.097   0.550  16.138
 1989W        W 2854   3.576   0.828  15.406
 1990W        W 2855   0.070   3.417  17.437
 1991W        W 2856   0.487   2.643  16.969
 1992W        W 2857   0.054   3.489  15.201
 1993W        W 2858   1.953   0.759  17.007
 1994W        W 2859   1.316   2.782  14.856
 1995W        W 2860   3.221   3.164  15.042
 1996W        W 2861   2.196   1.817  15.056
 1997W        W 2862   1.039   1.008  15.573
 1998W        W 2863   1.871   0.918  14.625
 1999W        W 2864   2.455   2.483  17.803
 2000W        W 2865   2.808   0.389  15.420
 2001W        W 2866   0.138   0.237  14.868
 2002W        W 2867   1.424   2.556  17.158
 2003W        W 2868   1.223   2.472  16.250
 2004W        W 2869   0.965   2.424  14.648
 2005W        W 2870   0.206   2.665  15.416
 2006W        W 2871   0.710   1.735  17.858
 2007W        W 2872   1.414   0.295  18.044
 2008W        W 2873   2.123   0.437  17.400
 2009W        W 2874   1.318   0.205  15.681
 2010W        W 2875   2.377   0.282  15.186
 2011W        W 2876   0.322   0.214  16.763
 2012W        W 2877   0.370   1.177  16.133
 2013W        W 2878   3.059   0.285  16.539
 2014W        W 2879   0.481   0.783  15.353
 2015W        W 2880   3.052   0.471  16.969
 2016W        W 2881   3.448   1.674  14.654
 2017W        W 2882   0.740   0.432  16.473
 2018W        W 2883   1.854   1.004  17.413
 2019W        W 2884   0.002   0.694  14.891
 2020W        W 2885   0.788   2.083  17.452
 2021W        W 2886   2.146   1.481  16.631
 2022W        W 2887   2.013   3.560  14.927
 2023W        W 2888   0.159   2.067  14.624
 2024W        W 2889   0.894   2.478  17.750
 2025W        W 2890   0.415   1.645  17.381
 2026W        W 2891   1.406   1.750  17.175
 2027W        W 2892   3.174   0.109  17.437
 2028W        W 2893   3.572   1.719  17.428
 2029W        W 2894   3.560   1.919  15.114
 2030W        W 2895   2.423   2.251  15.213
 2031W        W 2896   2.897   3.551  14.908
 2032W        W 2897   2.074   1.541  18.050
 2033W        W 2898   0.404   2.508  18.090
 2034W        W 2899   3.610   0.430  18.042
 2035W        W 2900   3.328   1.358  16.663
 2036W        W 2901   1.636   3.488  18.140
 2037W        W 2902   1.491   0.117  14.867
 2038W        W 2903   3.030   2.716  14.810
 2039W        W 2904   0.799   0.809  17.696
 2040W        W 2905   1.233   2.803  17.558
 2041W        W 2906   3.359   0.794  17.356
 2042W        W 2907   2.570   3.453  15.324
 2043W        W 2908   2.809   2.072  16.691
 2044W        W 2909   1.059   0.488  17.358
 2045W        W 2910   1.528   1.557  18.115
 2046W        W 2911   1.031   2.736  15.309
 2047W        W 2912   2.786   2.234  15.573
 2048W        W 2913   0.554   0.860  17.297
 2049W        W 2914   1.883   2.922  15.761
 2050W        W 2915   3.633   1.482  15.942
 2051W        W 2916   1.855   0.115  17.661
 2052W        W 2917   2.635   2.820  16.740
 2053W        W 2918   2.938   3.164  16.448
 2054W        W 2919   2.157   2.966  14.876
 2055W        W 2920   0.167   2.858  17.718
 2056W        W 2921   0.910   0.850  16.956
 2057W        W 2922   0.880   0.198  16.066
 2058W        W 2923   2.501   1.040  16.758
 2059W        W 2924   1.299   2.211  14.958
 2060W        W 2925   3.297   2.153  16.457
 2061W        W 2926   0.624   2.911  17.880
 2062W        W 2927   3.011   3.593  15.677
 2063W        W 2928   1.110   0.613  16.122
 2064W        W 2929   0.879   2.106  16.212
 2065W        W 2930   1.192   3.517  16.962
 2066W        W 2931   3.259   3.613  17.994
 2067W        W 2932   2.418   1.801  16.927
 2068W        W 2933   0.267   1.599  14.842
 2069W        W 2934   3.401   3.257  15.539
 2070W        W 2935   3.238   0.581  15.158
 2071W        W 2936   1.377   0.100  17.561
 2072W        W 2937   3.083   2.902  16.019
 2073W        W 2938   3.112   1.458  15.924
 2074W        W 2939   1.229   1.131  16.140
 2075W        W 2940   1.474   1.393  17.464
 2076W        W 2941   2.585   2.546  17.327
 2077W        W 2942   1.235   1.000  17.439
 2078W        W 2943   1.214   3.466  16.055
 2079W        W 2944   0.531   3.425  17.689
 2080W        W 2945   0.643   2.786  14.819
 2081W        W 2946   3.160   2.544  15.629
 2082W        W 2947   0.764   1.336  17.515
 2083W        W 2948   3.537   1.266  14.996
 2084W        W 2949   1.282   2.323  15.467
 2085W        W 2950   2.381   1.705  17.548
 2086W        W 2951   2.272   1.333  17.092
 2087W        W 2952   0.832   1.705  17.121
 2088W        W 2953   3.042   3.593  16.950
 2089W        W 2954   2.833   0.227  17.944
 2090W        W 2955   0.497   0.377  17.531
 2091W        W 2956   0.836   1.400  16.584
 2092W        W 2957   1.205   1.214  14.706
 2093W        W 2958   0.008   2.973  17.251
 2094W        W 2959   1.593   1.682  16.694
 2095W        W 2960   1.416   0.707  14.799
 2096W        W 2961   0.551   1.523  15.580
 2097W        W 2962   0.322   3.375  17.017
 2098W        W 2963   3.117   1.601  15.125
 2099W        W 2964   3.212   0.517  17.811
 2100W        W 2965   2.648   2.726  15.774
 2101W        W 2966   0.246   1.650  17.951
 2102W        W 2967   3.212   0.114  15.247
 2103W        W 2968   2.732   2.589  15.258
 2104W        W 2969   1.634   1.647  15.343
 2105W        W 2970   2.821   0.451  14.866
 2106W        W 2971   2.886   1.058  17.052
 2107W        W 2972   0.595   1.651  16.259
 2108W        W 2973   0.889   2.590  15.908
 2109W        W 2974   2.652   1.210  15.873
 2110W        W 2975   1.675   0.589  16.569
 2111W        W 2976   3.637   2.500  17.080
 2112W        W 2977   3.555   0.487  16.641
 2113W        W 2978   0.094   3.317  16.017
 2114W        W 2979   0.603   2.504  15.553
 2115W        W 2980   0.518   0.121  18.106
 2116W        W 2981   1.637   2.974  18.208
 2117W        W 2982   3.392   1.942  15.998
 2118W        W 2983   2.746   2.119  14.878
 2119W        W 2984   2.041   3.640  17.090
 2120W        W 2985   2.898   2.362  18.127
 2121W        W 2986   1.713   0.072  15.407
 2122W        W 2987   2.426   0.941  16.266
 2123W        W 2988   0.112   2.528  16.598
 2124W        W 2989   1.365   0.490  15.239
 2125W        W 2990   1.169   1.974  18.088
 2126W        W 2991   2.163   0.955  15.802
 2127W        W 2992   2.368   2.365  16.924
 2128W        W 2993   0.522   2.970  17.359
 2129W        W 2994   1.113   2.953  18.082
 2130W        W 2995   0.964   0.750  15.096
 2131W        W 2996   2.481   0.892  15.421
 2132W        W 2997   2.439   3.000  17.658
 2133W        W 2998   1.124   1.592  16.257
 2134W        W 2999   0.779   3.290  17.122
 2135W        W 3000   3.524   3.407  14.723
 2136W        W 3001   0.387   2.079  17.719
 2137W        W 3002   2.382   2.341  16.407
 2138W        W 3003   0.818   1.990  15.649
 2139W        W 3004   1.189   2.997  17.044
 2140W        W 3005   1.567   0.416  16.085
 2141W        W 3006   0.178   2.400  15.015
 2142W        W 3007   1.697   1.351  14.885
 2143W        W 3008   0.343   1.900  15.904
 2144W        W 3009   1.633   0.542  17.368
 2145W        W 3010   3.305   0.251  14.795
 2146W        W 3011   3.398   1.997  17.894
 2147W        W 3012   2.052   3.254  18.046
 2148W        W 3013   3.610   2.348  17.568
 2149W        W 3014   3.018   3.146  18.179
 2150W        W 3015   0.757   3.602  16.657
 2151W        W 3016   3.616   2.224  15.531
 2152W        W 3017   2.146   1.491  16.044
 2153W        W 3018   1.913   0.103  15.934
 2154W        W 3019   0.972   3.087  15.771
 2155W        W 3020   1.471   0.828  16.996
 2156W        W 3021   1.171   0.197  16.465
 2157W        W 3022   0.234   3.019  15.013
 2158W        W 3023   2.050   2.383  15.731
 2159W        W 3024   0.925   3.178  17.610
 2160W        W 3025   0.402   2.001  15.306
 2161W        W 3026   0.287   0.544  16.305
 2162W        W 3027   1.835   2.509  16.362
 2163W        W 3028   0.087   0.363  15.382
 2164W        W 3029   2.751   1.569  17.309
 2165W        W 3030   2.628   0.955  14.881
 2166W        W 3031   3.145   2.627  16.529
 2167W        W 3032   1.806   3.111  16.360
 2168W        W 3033   1.218   3.215  15.271
 2169W        W 3034   2.500   0.118  14.701
 2170W        W 3035   0.300   3.378  16.442
 2171W        W 3036   2.497   1.136  18.077
 2172W        W 3037   0.480   0.666  18.076
 2173W        W 3038   0.211   1.266  15.409
 2174W        W 3039   0.902   1.255  15.134
 2175W        W 3040   2.665   1.582  17.951
 2176W        W 3041   1.008   1.863  16.660
 2177W        W 3042   2.482   0.149  15.780
 2178W        W 3043   1.613   3.580  16.283
 2179W        W 3044   2.827   3.042  17.220
 2180W        W 3045   2.411   3.191  16.331
 2181W        W 3046   2.430   2.171  15.925
 2182W        W 3047   1.892   0.396  14.996
 2183W        W 3048   3.573   0.024  15.718
 2184W        W 3049   1.261   1.659  14.881
 2185W        W 3050   3.427   0.996  15.871
 2186W        W 3051   2.119   2.166  14.748
 2187W        W 3052   3.055   2.366  17.496
 2188W        W 3053   2.709   3.067  14.963
 2189W        W 3054   1.324   0.742  17.869
 2190W        W 3055   1.144   1.326  17.110
 2191W        W 3056   3.236   2.821  17.387
 2192W        W 3057   2.336   0.771  17.764
 2193W        W 3058   0.180   1.242  17.541
 2194W        W 3059   1.940   1.719  17.267
 2195W        W 3060   0.297   2.477  15.924
 2196W        W 3061   0.444   1.774  16.814
 2197W        W 3062   2.761   2.060  17.164
 2198W        W 3063   2.533   3.440  17.975
 2199W        W 3064   2.429   1.179  17.528
 2200W        W 3065   2.706   3.233  15.933
 2201W        W 3066   1.708   2.953  17.256
 2202W        W 3067   1.193   3.308  16.525
 2203W        W 3068   2.998   2.479  16.944
 2204W        W 3069   2.048   2.551  18.081
 2205W        W 3070   0.653   2.504  16.420
 2206W        W 3071   2.999   2.263  16.065
 2207W        W 3072   2.640   3.329  16.816
 2208W        W 3073   0.618   3.058  16.686
 2209W        W 3074   1.639   1.110  17.896
 2210W        W 3075   2.090   3.276  15.407
 2211W        W 3076   1.398   2.531  18.045
 2212W        W 3077   1.524   2.769  15.422
 2213W        W 3078   0.745   1.509  14.681
 2214W        W 3079   0.084   3.595  21.580
 2215W        W 3080   0.460   2.488  21.103
 2216W        W 3081   3.165   2.218  18.873
 2217W        W 3082   3.295   3.303  20.900
 2218W        W 3083   1.213   3.294  18.426
 2219W        W 3084   1.296   1.446  19.409
 2220W        W 3085   0.811   1.294  19.573
 2221W        W 3086   1.802   2.109  19.007
 2222W        W 3087   1.477   3.201  21.362
 2223W        W 3088   0.126   0.762  21.325
 2224W        W 3089   0.888   0.042  21.127
 2225W        W 3090   2.582   0.430  20.014
 2226W        W 3091   2.231   1.301  18.584
 2227W        W 3092   2.801   0.735  21.675
 2228W        W 3093   0.167   0.527  20.800
 2229W        W 3094   0.266   3.146  21.821
 2230W        W 3095   1.788   2.536  18.553
 2231W        W 3096   0.220   1.319  20.246
 2232W        W 3097   1.113   1.210  21.483
 2233W        W 3098   3.572   1.069  19.982
 2234W        W 3099   3.336   2.112  20.841
 2235W        W 3100   1.644   1.445  19.868
 2236W        W 3101   2.190   2.784  20.237
 2237W        W 3102   0.690   2.218  20.469
 2238W        W 3103   0.049   1.746  20.040
 2239W        W 3104   1.085   1.718  21.232
 2240W        W 3105   3.356   1.501  21.486
 2241W        W 3106   0.972   2.945  19.931
 2242W        W 3107   2.093   2.634  21.065
 2243W        W 3108   1.313   1.274  20.290
 2244W        W 3109   1.605   2.058  19.933
 2245W        W 3110   2.602   2.831  21.781
 2246W        W 3111   1.681   2.151  21.791
 2247W        W 3112   1.662   1.867  21.269
 2248W        W 3113   0.071   1.258  21.791
 2249W        W 3114   2.903   2.793  21.390
 2250W        W 3115   0.484   0.375  19.388
 2251W        W 3116   1.011   2.633  20.387
 2252W        W 3117   3.474   2.416  19.677
 2253W        W 3118   2.887   0.816  20.244
 2254W        W 3119   3.172   0.769  18.339
 2255W        W 3120   3.637   1.570  20.645
 2256W        W 3121   1.604   3.277  20.398
 2257W        W 3122   3.378   2.743  18.836
 2258W        W 3123   0.507   3.529  18.590
 2259W        W 3124   0.900   3.575  19.266
 2260W        W 3125   0.697   0.329  20.692
 2261W        W 3126   3.320   1.347  20.967
 2262W        W 3127   2.725   1.769  19.426
 2263W        W 3128   2.691   1.457  18.453
 2264W        W 3129   1.899   2.601  20.593
 2265W        W 3130   1.705   0.931  19.792
 2266W        W 3131   2.305   3.018  20.786
 2267W        W 3132   3.176   1.809  19.208
 2268W        W 3133   2.078   0.467  19.224
 2269W        W 3134   0.735   3.161  18.907
 2270W        W 3135   0.106   0.660  19.506
 2271W        W 3136   2.892   1.267  19.980
 2272W        W 3137   0.350   2.884  19.895
 2273W        W 3138   1.691   3.234  18.765
 2274W        W 3139   3.083   1.260  18.229
 2275W        W 3140   0.106   3.018  20.393
 2276W        W 3141   0.897   2.590  20.873
 2277W        W 3142   1.270   1.950  19.492
 2278W        W 3143   1.292   0.355  20.585
 2279W        W 3144   3.521   0.117  19.882
 2280W        W 3145   0.740   1.989  18.350
 2281W        W 3146   0.395   1.022  18.529
 2282W        W 3147   0.457   2.978  19.323
 2283W        W 3148   1.588   2.461  19.571
 2284W        W 3149   2.920   3.320  21.285
 2285W        W 3150   1.846   0.962  18.969
 2286W        W 3151   3.229   3.360  19.741
 2287W        W 3152   2.906   1.213  21.339
 2288W        W 3153   3.619   2.869  19.473
 2289W        W 3154   2.246   2.161  20.957
 2290W        W 3155   0.012   1.712  19.163
 2291W        W 3156   1.123   2.127  20.736
 2292W        W 3157   2.327   1.391  19.114
 2293W        W 3158   2.204   1.881  19.218
 2294W        W 3159   0.547   1.301  20.692
 2295W        W 3160   0.532   1.177  21.614
 2296W        W 3161   0.422   0.094  19.773
 2297W        W 3162   2.190   0.441  20.334
 2298W        W 3163   1.838   0.626  21.497
 2299W        W 3164   2.193   0.775  18.675
 2300W        W 3165   3.376   3.168  21.429
 2301W        W 3166   2.343   0.249  21.468
 2302W        W 3167   3.362   2.550  21.590
 2303W        W 3168   2.792   0.717  21.186
 2304W        W 3169   2.592   0.655  19.456
 2305W        W 3170   2.985   1.789  21.860
 2306W        W 3171   0.725   3.365  19.846
 2307W        W 3172   1.383   1.082  18.832
 2308W        W 3173   0.952   0.366  21.496
 2309W        W 3174   3.004   0.850  19.177
 2310W        W 3175   3.371   1.332  19.122
 2311W        W 3176   1.114   3.549  21.593
 2312W        W 3177   1.040   0.085  18.828
 2313W        W 3178   3.361   0.619  19.863
 2314W        W 3179   3.511   2.868  18.308
 2315W        W 3180   0.418   2.071  20.010
 2316W        W 3181   2.335   0.658  18.240
 2317W        W 3182   3.469   2.990  19.960
 2318W        W 3183   3.508   0.184  20.710
 2319W        W 3184   1.953   1.396  21.264
 2320W        W 3185   2.046   2.735  18.967
 2321W        W 3186   2.446   2.029  21.707
 2322W        W 3187   2.120   0.006  20.016
 2323W        W 3188   0.732   0.909  20.079
 2324W        W 3189   0.286   2.109  20.853
 2325W        W 3190   2.145   3.302  19.559
 2326W        W 3191   3.339   0.899  20.431
 2327W        W 3192   1.976   3.246  21.198
 2328W        W 3193   3.319   2.305  18.403
 2329W        W 3194   1.754   1.788  19.464
 2330W        W 3195   3.606   0.299  21.205
 2331W        W 3196   1.755   2.134  20.799
 2332W        W 3197   1.972   1.020  20.244
 2333W        W 3198   2.824   1.318  19.082
 2334W        W 3199   3.111   1.051  18.724
 2335W        W 3200   2.920   3.091  19.113
 2336W        W 3201   2.754   2.694  19.909
 2337W        W 3202   2.650   1.773  18.887
 2338W        W 3203   2.083   1.983  19.873
 2339W        W 3204   2.964   1.771  19.940
 2340W        W 3205   0.339   0.786  20.364
 2341W        W 3206   3.117   1.838  21.191
 2342W        W 3207   3.468   3.456  20.337
 2343W        W 3208   1.398   2.900  19.739
 2344W        W 3209   2.405   3.433  21.063
 2345W        W 3210   2.399   0.763  20.827
 2346W        W 3211   1.606   3.471  20.888
 2347W        W 3212   3.303   0.425  19.354
 2348W        W 3213   3.094   1.744  20.655
 2349W        W 3214   0.077   1.065  20.693
 2350W        W 3215   2.937   0.860  19.711
 2351W        W 3216   3.348   1.011  21.488
 2352W        W 3217   2.233   2.710  19.706
 2353W        W 3218   1.489   3.301  19.319
 2354W        W 3219   0.604   0.481  18.577
 2355W        W 3220   1.708   0.135  20.387
 2356W        W 3221   0.736   3.255  18.235
 2357W        W 3222   1.110   1.721  18.986
 2358W        W 3223   1.764   2.350  21.299
 2359W        W 3224   1.594   0.708  19.289
 2360W        W 3225   2.950   0.305  19.717
 2361W        W 3226   2.670   3.587  20.045
 2362W        W 3227   2.082   3.235  20.385
 2363W        W 3228   1.478   2.272  20.346
 2364W        W 3229   3.248   2.995  20.472
 2365W        W 3230   0.942   0.498  19.241
 2366W        W 3231   1.464   2.795  20.201
 2367W        W 3232   0.947   0.726  18.266
 2368W        W 3233   1.748   1.335  20.660
 2369W        W 3234   2.596   0.201  20.530
 2370W        W 3235   0.016   2.044  20.415
 2371W        W 3236   1.720   1.862  18.573
 2372W        W 3237   0.988   0.177  18.343
 2373W        W 3238   1.726   1.258  19.394
 2374W        W 3239   2.696   0.234  21.093
 2375W        W 3240   1.284   2.246  21.202
 2376W        W 3241   2.088   2.028  21.419
 2377W        W 3242   2.705   2.058  21.312
 2378W        W 3243   1.989   0.198  21.817
 2379W        W 3244   1.211   0.814  20.210
 2380W        W 3245   0.637   0.770  19.608
 2381W        W 3246   0.423   3.482  19.284
 2382W        W 3247   1.755   2.812  21.409
 2383W        W 3248   0.790   2.297  18.768
 2384W        W 3249   2.470   1.682  19.989
 2385W        W 3250   2.750   1.481  20.388
 2386W        W 3251   1.955   2.155  20.322
 2387W        W 3252   2.425   2.529  18.454
 2388W        W 3253   2.097   0.550  19.782
 2389W        W 3254   3.576   0.828  19.050
 2390W        W 3255   0.070   3.417  21.081
 2391W        W 3256   0.487   2.643  20.613
 2392W        W 3257   0.054   3.489  18.845
 2393W        W 3258   1.953   0.759  20.651
 2394W        W 3259   1.316   2.782  18.500
 2395W        W 3260   3.221   3.164  18.686
 2396W        W 3261   2.196   1.817  18.700
 2397W        W 3262   1.039   1.008  19.217
 2398W        W 3263   1.871   0.918  18.269
 2399W        W 3264   2.455   2.483  21.447
 2400W        W 3265   2.808   0.389  19.064
 2401W        W 3266   0.138   0.237  18.512
 2402W        W 3267   1.424   2.556  20.802
 2403W        W 3268   1.223   2.472  19.894
 2404W        W 3269   0.965   2.424  18.292
 2405W        W 3270   0.206   2.665  19.060
 2406W        W 3271   0.710   1.735  21.502
 2407W        W 3272   1.414   0.295  21.688
 2408W        W 3273   2.123   0.437  21.044
 2409W        W 3274   1.318   0.205  19.325
 2410W        W 3275   2.377   0.282  18.830
 2411W        W 3276   0.322   0.214  20.407
 2412W        W 3277   0.370   1.177  19.777
 2413W        W 3278   3.059   0.285  20.183
 2414W        W 3279   0.481   0.783  18.997
 2415W        W 3280   3.052   0.471  20.613
 2416W        W 3281   3.448   1.674  18.298
 2417W        W 3282   0.740   0.432  20.117
 2418W        W 3283   1.854   1.004  21.057
 2419W        W 3284   0.002   0.694  18.535
 2420W        W 3285   0.788   2.083  21.096
 2421W        W 3286   2.146   1.481  20.275
 2422W        W 3287   2.013   3.560  18.571
 2423W        W 3288   0.159   2.067  18.268
 2424W        W 3289   0.894   2.478  21.394
 2425W        W 3290   0.415   1.645  21.025
 2426W        W 3291   1.406   1.750  20.819
 2427W        W 3292   3.174   0.109  21.081
 2428W        W 3293   3.572   1.719  21.072
 2429W        W 3294   3.560   1.919  18.758
 2430W        W 3295   2.423   2.251  18.857
 2431W        W 3296   2.897   3.551  18.552
 2432W        W 3297   2.074   1.541  21.694
 2433W        W 3298   0.404   2.508  21.734
 2434W        W 3299   3.610   0.430  21.686
 2435W        W 3300   3.328   1.358  20.307
 2436W        W 3301   1.636   3.488  21.784
 2437W        W 3302   1.491   0.117  18.511
 2438W        W 3303   3.030   2.716  18.454
 2439W        W 3304   0.799   0.809  21.340
 2440W        W 3305   1.233   2.803  21.202
 2441W        W 3306   3.359   0.794  21.000
 2442W        W 3307   2.570   3.453  18.968
 2443W        W 3308   2.809   2.072  20.335
 2444W        W 3309   1.059   0.488  21.002
 2445W        W 3310   1.528   1.557  21.759
 2446W        W 3311   1.031   2.736  18.953
 2447W        W 3312   2.786   2.234  19.217
 2448W        W 3313   0.554   0.860  20.941
 2449W        W 3314   1.883   2.922  19.405
 2450W        W 3315   1.855   0.115  21.305
 2451W        W 3316   2.635   2.820  20.384
 2452W        W 3317   2.938   3.164  20.092
 2453W        W 3318   2.157   2.966  18.520
 2454W        W 3319   0.167   2.858  21.362
 2455W        W 3320   0.910   0.850  20.600
 2456W        W 3321   0.880   0.198  19.710
 2457W        W 3322   2.501   1.040  20.402
 2458W        W 3323   1.299   2.211  18.602
 2459W        W 3324   3.297   2.153  20.101
 2460W        W 3325   0.624   2.911  21.524
 2461W        W 3326   3.011   3.593  19.321
 2462W        W 3327   1.110   0.613  19.766
 2463W        W 3328   0.879   2.106  19.856
 2464W        W 3329   1.192   3.517  20.606
 2465W        W 3330   3.259   3.613  21.638
 2466W        W 3331   2.418   1.801  20.571
 2467W        W 3332   0.267   1.599  18.486
 2468W        W 3333   3.401   3.257  19.183
 2469W        W 3334   3.238   0.581  18.802
 2470W        W 3335   1.377   0.100  21.205
 2471W        W 3336   3.083   2.902  19.663
 2472W        W 3337   3.112   1.458  19.568
 2473W        W 3338   1.229   1.131  19.784
 2474W        W 3339   1.474   1.393  21.108
 2475W        W 3340   2.585   2.546  20.971
 2476W        W 3341   1.235   1.000  21.083
 2477W        W 3342   1.214   3.466  19.699
 2478W        W 3343   0.531   3.425  21.333
 2479W        W 3344   0.643   2.786  18.463
 2480W        W 3345   3.160   2.544  19.273
 2481W        W 3346   0.764   1.336  21.159
 2482W        W 3347   3.537   1.266  18.640
 2483W        W 3348   1.282   2.323  19.111
 2484W        W 3349   2.381   1.705  21.192
 2485W        W 3350   2.272   1.333  20.736
 2486W        W 3351   0.832   1.705  20.765
 2487W        W 3352   3.042   3.593  20.594
 2488W        W 3353   2.833   0.227  21.588
 2489W        W 3354   0.497   0.377  21.175
 2490W        W 3355   0.836   1.400  20.228
 2491W        W 3356   1.205   1.214  18.350
 2492W        W 3357   0.008   2.973  20.895
 2493W        W 3358   1.593   1.682  20.338
 2494W        W 3359   1.416   0.707  18.443
 2495W        W 3360   0.551   1.523  19.224
 2496W        W 3361   0.322   3.375  20.661
 2497W        W 3362   3.117   1.601  18.769
 2498W        W 3363   3.212   0.517  21.455
 2499W        W 3364   2.648   2.726  19.418
 2500W        W 3365   0.246   1.650  21.595
 2501W        W 3366   3.212   0.114  18.891
 2502W        W 3367   2.732   2.589  18.902
 2503W        W 3368   1.634   1.647  18.987
 2504W        W 3369   2.821   0.451  18.510
 2505W        W 3370   2.886   1.058  20.696
 2506W        W 3371   0.595   1.651  19.903
 2507W        W 3372   0.889   2.590  19.552
 2508W        W 3373   2.652   1.210  19.517
 2509W        W 3374   1.675   0.589  20.213
 2510W        W 3375   3.637   2.500  20.724
 2511W        W 3376   3.555   0.487  20.285
 2512W        W 3377   0.094   3.317  19.661
 2513W        W 3378   0.603   2.504  19.197
 2514W        W 3379   0.518   0.121  21.750
 2515W        W 3380   1.637   2.974  21.852
 2516W        W 3381   3.392   1.942  19.642
 2517W        W 3382   2.746   2.119  18.522
 2518W        W 3383   2.041   3.640  20.734
 2519W        W 3384   2.898   2.362  21.771
 2520W        W 3385   1.713   0.072  19.051
 2521W        W 3386   2.426   0.941  19.910
 2522W        W 3387   0.112   2.528  20.242
 2523W        W 3388   1.365   0.490  18.883
 2524W        W 3389   1.169   1.974  21.732
 2525W        W 3390   2.163   0.955  19.446
 2526W        W 3391   2.368   2.365  20.568
 2527W        W 3392   0.522   2.970  21.003
 2528W        W 3393   1.113   2.953  21.726
 2529W        W 3394   0.964   0.750  18.740
 2530W        W 3395   2.481   0.892  19.065
 2531W        W 3396   2.439   3.000  21.302
 2532W        W 3397   1.124   1.592  19.901
 2533W        W 3398   0.779   3.290  20.766
 2534W        W 3399   3.524   3.407  18.367
 2535W        W 3400   0.387   2.079  21.363
 2536W        W 3401   2.382   2.341  20.051
 2537W        W 3402   0.818   1.990  19.293
 2538W        W 3403   1.189   2.997  20.688
 2539W        W 3404   1.567   0.416  19.729
 2540W        W 3405   0.178   2.400  18.659
 2541W        W 3406   1.697   1.351  18.529
 2542W        W 3407   0.343   1.900  19.548
 2543W        W 3408   1.633   0.542  21.012
 2544W        W 3409   3.305   0.251  18.439
 2545W        W 3410   3.398   1.997  21.538
 2546W        W 3411   2.052   3.254  21.690
 2547W        W 3412   3.610   2.348  21.212
 2548W        W 3413   3.018   3.146  21.823
 2549W        W 3414   0.757   3.602  20.301
 2550W        W 3415   3.616   2.224  19.175
 2551W        W 3416   2.146   1.491  19.688
 2552W        W 3417   1.913   0.103  19.578
 2553W        W 3418   0.972   3.087  19.415
 2554W        W 3419   1.471   0.828  20.640
 2555W        W 3420   1.171   0.197  20.109
 2556W        W 3421   0.234   3.019  18.657
 2557W        W 3422   2.050   2.383  19.375
 2558W        W 3423   0.925   3.178  21.254
 2559W        W 3424   0.402   2.001  18.950
 2560W        W 3425   0.287   0.544  19.949
 2561W        W 3426   1.835   2.509  20.006
 2562W        W 3427   0.087   0.363  19.026
 2563W        W 3428   2.751   1.569  20.953
 2564W        W 3429   2.628   0.955  18.525
 2565W        W 3430   3.145   2.627  20.173
 2566W        W 3431   1.806   3.111  20.004
 2567W        W 3432   1.218   3.215  18.915
 2568W        W 3433   2.500   0.118  18.345
 2569W        W 3434   0.300   3.378  20.086
 2570W        W 3435   2.497   1.136  21.721
 2571W        W 3436   0.480   0.666  21.720
 2572W        W 3437   0.211   1.266  19.053
 2573W        W 3438   0.902   1.255  18.778
 2574W        W 3439   2.665   1.582  21.595
 2575W        W 3440   1.008   1.863  20.304
 2576W        W 3441   2.482   0.149  19.424
 2577W        W 3442   1.613   3.580  19.927
 2578W        W 3443   2.827   3.042  20.864
 2579W        W 3444   2.411   3.191  19.975
 2580W        W 3445   2.430   2.171  19.569
 2581W        W 3446   1.892   0.396  18.640
 2582W        W 3447   3.573   0.024  19.362
 2583W        W 3448   1.261   1.659  18.525
 2584W        W 3449   3.427   0.996  19.515
 2585W        W 3450   2.119   2.166  18.392
 2586W        W 3451   3.055   2.366  21.140
 2587W        W 3452   2.709   3.067  18.607
 2588W        W 3453   1.324   0.742  21.513
 2589W        W 3454   1.144   1.326  20.754
 2590W        W 3455   3.236   2.821  21.031
 2591W        W 3456   2.336   0.771  21.408
 2592W        W 3457   0.180   1.242  21.185
 2593W        W 3458   1.940   1.719  20.911
 2594W        W 3459   0.297   2.477  19.568
 2595W        W 3460   0.444   1.774  20.458
 2596W        W 3461   2.761   2.060  20.808
 2597W        W 3462   2.533   3.440  21.619
 2598W        W 3463   2.429   1.179  21.172
 2599W        W 3464   2.706   3.233  19.577
 2600W        W 3465   1.708   2.953  20.900
 2601W        W 3466   1.193   3.308  20.169
 2602W        W 3467   2.998   2.479  20.588
 2603W        W 3468   2.048   2.551  21.725
 2604W        W 3469   0.653   2.504  20.064
 2605W        W 3470   2.999   2.263  19.709
 2606W        W 3471   2.640   3.329  20.460
 2607W        W 3472   0.618   3.058  20.330
 2608W        W 3473   1.639   1.110  21.540
 2609W        W 3474   2.090   3.276  19.051
 2610W        W 3475   1.398   2.531  21.689
 2611W        W 3476   1.524   2.769  19.066
 2612W        W 3477   0.745   1.509  18.325
 2613W        W 3478   0.084   3.595  25.225
 2614W        W 3479   0.460   2.488  24.748
 2615W        W 3480   3.165   2.218  22.518
 2616W        W 3481   3.295   3.303  24.545
 2617W        W 3482   1.213   3.294  22.071
 2618W        W 3483   1.296   1.446  23.054
 2619W        W 3484   0.811   1.294  23.218
 2620W        W 3485   1.802   2.109  22.652
 2621W        W 3486   1.477   3.201  25.007
 2622W        W 3487   0.126   0.762  24.970
 2623W        W 3488   0.888   0.042  24.772
 2624W        W 3489   2.582   0.430  23.659
 2625W        W 3490   2.231   1.301  22.229
 2626W        W 3491   2.801   0.735  25.320
 2627W        W 3492   0.167   0.527  24.445
 2628W        W 3493   0.266   3.146  25.466
 2629W        W 3494   1.788   2.536  22.198
 2630W        W 3495   0.220   1.319  23.891
 2631W        W 3496   1.113   1.210  25.128
 2632W        W 3497   3.572   1.069  23.627
 2633W        W 3498   3.336   2.112  24.486
 2634W        W 3499   1.644   1.445  23.513
 2635W        W 3500   2.190   2.784  23.882
 2636W        W 3501   0.690   2.218  24.114
 2637W        W 3502   0.049   1.746  23.685
 2638W        W 3503   1.085   1.718  24.877
 2639W        W 3504   3.356   1.501  25.131
 2640W        W 3505   0.972   2.945  23.576
 2641W        W 3506   2.093   2.634  24.710
 2642W        W 3507   1.313   1.274  23.935
 2643W        W 3508   1.605   2.058  23.578
 2644W        W 3509   2.602   2.831  25.426
 2645W        W 3510   1.681   2.151  25.436
 2646W        W 3511   1.662   1.867  24.914
 2647W        W 3512   0.071   1.258  25.436
 2648W        W 3513   2.903   2.793  25.035
 2649W        W 3514   0.484   0.375  23.033
 2650W        W 3515   1.011   2.633  24.032
 2651W        W 3516   3.474   2.416  23.322
 2652W        W 3517   2.887   0.816  23.889
 2653W        W 3518   3.172   0.769  21.984
 2654W        W 3519   3.637   1.570  24.290
 2655W        W 3520   1.604   3.277  24.043
 2656W        W 3521   3.378   2.743  22.481
 2657W        W 3522   0.507   3.529  22.235
 2658W        W 3523   0.900   3.575  22.911
 2659W        W 3524   0.697   0.329  24.337
 2660W        W 3525   3.320   1.347  24.612
 2661W        W 3526   2.725   1.769  23.071
 2662W        W 3527   2.691   1.457  22.098
 2663W        W 3528   1.899   2.601  24.238
 2664W        W 3529   1.705   0.931  23.437
 2665W        W 3530   2.305   3.018  24.431
 2666W        W 3531   3.176   1.809  22.853
 2667W        W 3532   2.078   0.467  22.869
 2668W        W 3533   0.735   3.161  22.552
 2669W        W 3534   0.106   0.660  23.151
 2670W        W 3535   2.892   1.267  23.625
 2671W        W 3536   0.350   2.884  23.540
 2672W        W 3537   1.691   3.234  22.410
 2673W        W 3538   3.083   1.260  21.874
 2674W        W 3539   0.106   3.018  24.038
 2675W        W 3540   0.897   2.590  24.518
 2676W        W 3541   1.270   1.950  23.137
 2677W        W 3542   1.292   0.355  24.230
 2678W        W 3543   3.521   0.117  23.527
 2679W        W 3544   0.740   1.989  21.995
 2680W        W 3545   0.395   1.022  22.174
 2681W        W 3546   0.457   2.978  22.968
 2682W        W 3547   1.588   2.461  23.216
 2683W        W 3548   2.920   3.320  24.930
 2684W        W 3549   1.846   0.962  22.614
 2685W        W 3550   3.229   3.360  23.386
 2686W        W 3551   2.906   1.213  24.984
 2687W        W 3552   3.619   2.869  23.118
 2688W        W 3553   2.246   2.161  24.602
 2689W        W 3554   0.012   1.712  22.808
 2690W        W 3555   1.123   2.127  24.381
 2691W        W 3556   2.327   1.391  22.759
 2692W        W 3557   2.204   1.881  22.863
 2693W        W 3558   0.547   1.301  24.337
 2694W        W 3559   0.532   1.177  25.259
 2695W        W 3560   0.422   0.094  23.418
 2696W        W 3561   2.190   0.441  23.979
 2697W        W 3562   1.838   0.626  25.142
 2698W        W 3563   2.193   0.775  22.320
 2699W        W 3564   3.376   3.168  25.074
 2700W        W 3565   2.343   0.249  25.113
 2701W        W 3566   3.362   2.550  25.235
 2702W        W 3567   2.792   0.717  24.831
 2703W        W 3568   2.592   0.655  23.101
 2704W        W 3569   2.985   1.789  25.505
 2705W        W 3570   0.725   3.365  23.491
 2706W        W 3571   1.383   1.082  22.477
 2707W        W 3572   0.952   0.366  25.141
 2708W        W 3573   3.004   0.850  22.822
 2709W        W 3574   3.371   1.332  22.767
 2710W        W 3575   1.114   3.549  25.238
 2711W        W 3576   1.040   0.085  22.473
 2712W        W 3577   3.361   0.619  23.508
 2713W        W 3578   3.511   2.868  21.953
 2714W        W 3579   0.418   2.071  23.655
 2715W        W 3580   2.335   0.658  21.885
 2716W        W 3581   3.469   2.990  23.605
 2717W        W 3582   3.508   0.184  24.355
 2718W        W 3583   1.953   1.396  24.909
 2719W        W 3584   2.046   2.735  22.612
 2720W        W 3585   2.446   2.029  25.352
 2721W        W 3586   2.120   0.006  23.661
 2722W        W 3587   0.732   0.909  23.724
 2723W        W 3588   0.286   2.109  24.498
 2724W        W 3589   2.145   3.302  23.204
 2725W        W 3590   3.339   0.899  24.076
 2726W        W 3591   1.976   3.246  24.843
 2727W        W 3592   3.319   2.305  22.048
 2728W        W 3593   1.754   1.788  23.109
 2729W        W 3594   3.606   0.299  24.850
 2730W        W 3595   1.755   2.134  24.444
 2731W        W 3596   1.972   1.020  23.889
 2732W        W 3597   2.824   1.318  22.727
 2733W        W 3598   3.111   1.051  22.369
 2734W        W 3599   2.920   3.091  22.758
 2735W        W 3600   2.754   2.694  23.554
 2736W        W 3601   2.650   1.773  22.532
 2737W        W 3602   2.083   1.983  23.518
 2738W        W 3603   2.964   1.771  23.585
 2739W        W 3604   0.339   0.786  24.009
 2740W        W 3605   3.117   1.838  24.836
 2741W        W 3606   3.468   3.456  23.982
 2742W        W 3607   1.398   2.900  23.384
 2743W        W 3608   2.405   3.433  24.708
 2744W        W 3609   2.399   0.763  24.472
 2745W        W 3610   1.606   3.471  24.533
 2746W        W 3611   3.303   0.425  22.999
 2747W        W 3612   3.094   1.744  24.300
 2748W        W 3613   0.077   1.065  24.338
 2749W        W 3614   2.937   0.860  23.356
 2750W        W 3615   3.348   1.011  25.133
 2751W        W 3616   2.233   2.710  23.351
 2752W        W 3617   1.489   3.301  22.964
 2753W        W 3618   0.604   0.481  22.222
 2754W        W 3619   1.708   0.135  24.032
 2755W        W 3620   0.736   3.255  21.880
 2756W        W 3621   1.110   1.721  22.631
 2757W        W 3622   1.764   2.350  24.944
 2758W        W 3623   1.594   0.708  22.934
 2759W        W 3624   2.950   0.305  23.362
 2760W        W 3625   2.670   3.587  23.690
 2761W        W 3626   2.082   3.235  24.030
 2762W        W 3627   1.478   2.272  23.991
 2763W        W 3628   3.248   2.995  24.117
 2764W        W 3629   0.942   0.498  22.886
 2765W        W 3630   1.464   2.795  23.846
 2766W        W 3631   0.947   0.726  21.911
 2767W        W 3632   1.748   1.335  24.305
 2768W        W 3633   2.596   0.201  24.175
 2769W        W 3634   0.016   2.044  24.060
 2770W        W 3635   1.720   1.862  22.218
 2771W        W 3636   0.988   0.177  21.988
 2772W        W 3637   1.726   1.258  23.039
 2773W        W 3638   2.696   0.234  24.738
 2774W        W 3639   1.284   2.246  24.847
 2775W        W 3640   2.088   2.028  25.064
 2776W        W 3641   2.705   2.058  24.957
 2777W        W 3642   1.989   0.198  25.462
 2778W        W 3643   1.211   0.814  23.855
 2779W        W 3644   0.637   0.770  23.253
 2780W        W 3645   0.423   3.482  22.929
 2781W        W 3646   1.755   2.812  25.054
 2782W        W 3647   0.790   2.297  22.413
 2783W        W 3648   2.470   1.682  23.634
 2784W        W 3649   2.750   1.481  24.033
 2785W        W 3650   1.955   2.155  23.967
 2786W        W 3651   2.425   2.529  22.099
 2787W        W 3652   2.097   0.550  23.427
 2788W        W 3653   3.576   0.828  22.695
 2789W        W 3654   0.070   3.417  24.726
 2790W        W 3655   0.487   2.643  24.258
 2791W        W 3656   0.054   3.489  22.490
 2792W        W 3657   1.953   0.759  24.296
 2793W        W 3658   1.316   2.782  22.145
 2794W        W 3659   3.221   3.164  22.331
 2795W        W 3660   2.196   1.817  22.345
 2796W        W 3661   1.039   1.008  22.862
 2797W        W 3662   1.871   0.918  21.914
 2798W        W 3663   2.455   2.483  25.092
 2799W        W 3664   2.808   0.389  22.709
 2800W        W 3665   0.138   0.237  22.157
 2801W        W 3666   1.424   2.556  24.447
 2802W        W 3667   1.223   2.472  23.539
 2803W        W 3668   0.965   2.424  21.937
 2804W        W 3669   0.206   2.665  22.705
 2805W        W 3670   0.710   1.735  25.147
 2806W        W 3671   1.414   0.295  25.333
 2807W        W 3672   2.123   0.437  24.689
 2808W        W 3673   1.318   0.205  22.970
 2809W        W 3674   2.377   0.282  22.475
 2810W        W 3675   0.322   0.214  24.052
 2811W        W 3676   0.370   1.177  23.422
 2812W        W 3677   3.059   0.285  23.828
 2813W        W 3678   0.481   0.783  22.642
 2814W        W 3679   3.052   0.471  24.258
 2815W        W 3680   3.448   1.674  21.943
 2816W        W 3681   0.740   0.432  23.762
 2817W        W 3682   1.854   1.004  24.702
 2818W        W 3683   0.002   0.694  22.180
 2819W        W 3684   0.788   2.083  24.741
 2820W        W 3685   2.146   1.481  23.920
 2821W        W 3686   2.013   3.560  22.216
 2822W        W 3687   0.159   2.067  21.913
 2823W        W 3688   0.894   2.478  25.039
 2824W        W 3689   0.415   1.645  24.670
 2825W        W 3690   1.406   1.750  24.464
 2826W        W 3691   3.174   0.109  24.726
 2827W        W 3692   3.572   1.719  24.717
 2828W        W 3693   3.560   1.919  22.403
 2829W        W 3694   2.423   2.251  22.502
 2830W        W 3695   2.897   3.551  22.197
 2831W        W 3696   2.074   1.541  25.339
 2832W        W 3697   0.404   2.508  25.379
 2833W        W 3698   3.610   0.430  25.331
 2834W        W 3699   3.328   1.358  23.952
 2835W        W 3700   1.636   3.488  25.429
 2836W        W 3701   1.491   0.117  22.156
 2837W        W 3702   3.030   2.716  22.099
 2838W        W 3703   0.799   0.809  24.985
 2839W        W 3704   1.233   2.803  24.847
 2840W        W 3705   3.359   0.794  24.645
 2841W        W 3706   2.570   3.453  22.613
 2842W        W 3707   2.809   2.072  23.980
 2843W        W 3708   1.059   0.488  24.647
 2844W        W 3709   1.528   1.557  25.404
 2845W        W 3710   1.031   2.736  22.598
 2846W        W 3711   2.786   2.234  22.862
 2847W        W 3712   0.554   0.860  24.586
 2848W        W 3713   1.883   2.922  23.050
 2849W        W 3714   3.633   1.482  23.231
 2850W        W 3715   1.855   0.115  24.950
 2851W        W 3716   2.635   2.820  24.029
 2852W        W 3717   2.938   3.164  23.737
 2853W        W 3718   2.157   2.966  22.165
 2854W        W 3719   0.167   2.858  25.007
 2855W        W 3720   0.910   0.850  24.245
 2856W        W 3721   0.880   0.198  23.355
 2857W        W 3722   2.501   1.040  24.047
 2858W        W 3723   1.299   2.211  22.247
 2859W        W 3724   3.297   2.153  23.746
 2860W        W 3725   0.624   2.911  25.169
 2861W        W 3726   3.011   3.593  22.966
 2862W        W 3727   1.110   0.613  23.411
 2863W        W 3728   0.879   2.106  23.501
 2864W        W 3729   1.192   3.517  24.251
 2865W        W 3730   3.259   3.613  25.283
 2866W        W 3731   2.418   1.801  24.216
 2867W        W 3732   0.267   1.599  22.131
 2868W        W 3733   3.401   3.257  22.828
 2869W        W 3734   3.238   0.581  22.447
 2870W        W 3735   1.377   0.100  24.850
 2871W        W 3736   3.083   2.902  23.308
 2872W        W 3737   3.112   1.458  23.213
 2873W        W 3738   1.229   1.131  23.429
 2874W        W 3739   1.474   1.393  24.753
 2875W        W 3740   2.585   2.546  24.616
 2876W        W 3741   1.235   1.000  24.728
 2877W        W 3742   1.214   3.466  23.344
 2878W        W 3743   0.531   3.425  24.978
 2879W        W 3744   0.643   2.786  22.108
 2880W        W 3745   3.160   2.544  22.918
 2881W        W 3746   0.764   1.336  24.804
 2882W        W 3747   3.537   1.266  22.285
 2883W        W 3748   1.282   2.323  22.756
 2884W        W 3749   2.381   1.705  24.837
 2885W        W 3750   2.272   1.333  24.381
 2886W        W 3751   0.832   1.705  24.410
 2887W        W 3752   3.042   3.593  24.239
 2888W        W 3753   2.833   0.227  25.233
 2889W        W 3754   0.497   0.377  24.820
 2890W        W 3755   0.836   1.400  23.873
 2891W        W 3756   1.205   1.214  21.995
 2892W        W 3757   0.008   2.973  24.540
 2893W        W 3758   1.593   1.682  23.983
 2894W        W 3759   1.416   0.707  22.088
 2895W        W 3760   0.551   1.523  22.869
 2896W        W 3761   0.322   3.375  24.306
 2897W        W 3762   3.117   1.601  22.414
 2898W        W 3763   3.212   0.517  25.100
 2899W        W 3764   2.648   2.726  23.063
 2900W        W 3765   0.246   1.650  25.240
 2901W        W 3766   3.212   0.114  22.536
 2902W        W 3767   2.732   2.589  22.547
 2903W        W 3768   1.634   1.647  22.632
 2904W        W 3769   2.821   0.451  22.155
 2905W        W 3770   2.886   1.058  24.341
 2906W        W 3771   0.595   1.651  23.548
 2907W        W 3772   0.889   2.590  23.197
 2908W        W 3773   2.652   1.210  23.162
 2909W        W 3774   1.675   0.589  23.858
 2910W        W 3775   3.637   2.500  24.369
 2911W        W 3776   3.555   0.487  23.930
 2912W        W 3777   0.094   3.317  23.306
 2913W        W 3778   0.603   2.504  22.842
 2914W        W 3779   0.518   0.121  25.395
 2915W        W 3780   1.637   2.974  25.497
 2916W        W 3781   3.392   1.942  23.287
 2917W        W 3782   2.746   2.119  22.167
 2918W        W 3783   2.041   3.640  24.379
 2919W        W 3784   2.898   2.362  25.416
 2920W        W 3785   1.713   0.072  22.696
 2921W        W 3786   2.426   0.941  23.555
 2922W        W 3787   0.112   2.528  23.887
 2923W        W 3788   1.365   0.490  22.528
 2924W        W 3789   1.169   1.974  25.377
 2925W        W 3790   2.163   0.955  23.091
 2926W        W 3791   2.368   2.365  24.213
 2927W        W 3792   0.522   2.970  24.648
 2928W        W 3793   1.113   2.953  25.371
 2929W        W 3794   0.964   0.750  22.385
 2930W        W 3795   2.481   0.892  22.710
 2931W        W 3796   2.439   3.000  24.947
 2932W        W 3797   1.124   1.592  23.546
 2933W        W 3798   0.779   3.290  24.411
 2934W        W 3799   3.524   3.407  22.012
 2935W        W 3800   0.387   2.079  25.008
 2936W        W 3801   2.382   2.341  23.696
 2937W        W 3802   0.818   1.990  22.938
 2938W        W 3803   1.189   2.997  24.333
 2939W        W 3804   1.567   0.416  23.374
 2940W        W 3805   0.178   2.400  22.304
 2941W        W 3806   1.697   1.351  22.174
 2942W        W 3807   0.343   1.900  23.193
 2943W        W 3808   1.633   0.542  24.657
 2944W        W 3809   3.305   0.251  22.084
 2945W        W 3810   3.398   1.997  25.183
 2946W        W 3811   2.052   3.254  25.335
 2947W        W 3812   3.610   2.348  24.857
 2948W        W 3813   3.018   3.146  25.468
 2949W        W 3814   0.757   3.602  23.946
 2950W        W 3815   3.616   2.224  22.820
 2951W        W 3816   2.146   1.491  23.333
 2952W        W 3817   1.913   0.103  23.223
 2953W        W 3818   0.972   3.087  23.060
 2954W        W 3819   1.471   0.828  24.285
 2955W        W 3820   1.171   0.197  23.754
 2956W        W 3821   0.234   3.019  22.302
 2957W        W 3822   2.050   2.383  23.020
 2958W        W 3823   0.925   3.178  24.899
 2959W        W 3824   0.402   2.001  22.595
 2960W        W 3825   0.287   0.544  23.594
 2961W        W 3826   1.835   2.509  23.651
 2962W        W 3827   0.087   0.363  22.671
 2963W        W 3828   2.751   1.569  24.598
 2964W        W 3829   2.628   0.955  22.170
 2965W        W 3830   3.145   2.627  23.818
 2966W        W 3831   1.806   3.111  23.649
 2967W        W 3832   1.218   3.215  22.560
 2968W        W 3833   2.500   0.118  21.990
 2969W        W 3834   0.300   3.378  23.731
 2970W        W 3835   2.497   1.136  25.366
 2971W        W 3836   0.480   0.666  25.365
 2972W        W 3837   0.211   1.266  22.698
 2973W        W 3838   0.902   1.255  22.423
 2974W        W 3839   2.665   1.582  25.240
 2975W        W 3840   1.008   1.863  23.949
 2976W        W 3841   2.482   0.149  23.069
 2977W        W 3842   1.613   3.580  23.572
 2978W        W 3843   2.827   3.042  24.509
 2979W        W 3844   2.411   3.191  23.620
 2980W        W 3845   2.430   2.171  23.214
 2981W        W 3846   1.892   0.396  22.285
 2982W        W 3847   3.573   0.024  23.007
 2983W        W 3848   1.261   1.659  22.170
 2984W        W 3849   3.427   0.996  23.160
 2985W        W 3850   2.119   2.166  22.037
 2986W        W 3851   3.055   2.366  24.785
 2987W        W 3852   2.709   3.067  22.252
 2988W        W 3853   1.324   0.742  25.158
 2989W        W 3854   1.144   1.326  24.399
 2990W        W 3855   3.236   2.821  24.676
 2991W        W 3856   2.336   0.771  25.053
 2992W        W 3857   0.180   1.242  24.830
 2993W        W 3858   1.940   1.719  24.556
 2994W        W 3859   0.297   2.477  23.213
 2995W        W 3860   0.444   1.774  24.103
 2996W        W 3861   2.761   2.060  24.453
 2997W        W 3862   2.533   3.440  25.264
 2998W        W 3863   2.429   1.179  24.817
 2999W        W 3864   2.706   3.233  23.222
 3000W        W 3865   1.708   2.953  24.545
 3001W        W 3866   1.193   3.308  23.814
 3002W        W 3867   2.998   2.479  24.233
 3003W        W 3868   2.048   2.551  25.370
 3004W        W 3869   0.653   2.504  23.709
 3005W        W 3870   2.999   2.263  23.354
 3006W        W 3871   2.640   3.329  24.105
 3007W        W 3872   0.618   3.058  23.975
 3008W        W 3873   1.639   1.110  25.185
 3009W        W 3874   2.090   3.276  22.696
 3010W        W 3875   1.398   2.531  25.334
 3011W        W 3876   1.524   2.769  22.711
 3012W        W 3877   0.745   1.509  21.970
 3013W        W 3878   0.084   3.595  28.869
 3014W        W 3879   0.460   2.488  28.392
 3015W        W 3880   3.165   2.218  26.162
 3016W        W 3881   3.295   3.303  28.189
 3017W        W 3882   1.213   3.294  25.715
 3018W        W 3883   1.296   1.446  26.698
 3019W        W 3884   0.811   1.294  26.862
 3020W        W 3885   1.802   2.109  26.296
 3021W        W 3886   1.477   3.201  28.651
 3022W        W 3887   0.126   0.762  28.614
 3023W        W 3888   0.888   0.042  28.416
 3024W        W 3889   2.582   0.430  27.303
 3025W        W 3890   2.231   1.301  25.873
 3026W        W 3891   2.801   0.735  28.964
 3027W        W 3892   0.167   0.527  28.089
 3028W        W 3893   0.266   3.146  29.110
 3029W        W 3894   1.788   2.536  25.842
 3030W        W 3895   0.220   1.319  27.535
 3031W        W 3896   1.113   1.210  28.772
 3032W        W 3897   3.572   1.069  27.271
 3033W        W 3898   3.336   2.112  28.130
 3034W        W 3899   1.644   1.445  27.157
 3035W        W 3900   2.190   2.784  27.526
 3036W        W 3901   0.690   2.218  27.758
 3037W        W 3902   0.049   1.746  27.329
 3038W        W 3903   1.085   1.718  28.521
 3039W        W 3904   3.356   1.501  28.775
 3040W        W 3905   0.972   2.945  27.220
 3041W        W 3906   2.093   2.634  28.354
 3042W        W 3907   1.313   1.274  27.579
 3043W        W 3908   1.605   2.058  27.222
 3044W        W 3909   2.602   2.831  29.070
 3045W        W 3910   1.681   2.151  29.080
 3046W        W 3911   1.662   1.867  28.558
 3047W        W 3912   0.071   1.258  29.080
 3048W        W 3913   2.903   2.793  28.679
 3049W        W 3914   0.484   0.375  26.677
 3050W        W 3915   1.011   2.633  27.676
 3051W        W 3916   3.474   2.416  26.966
 3052W        W 3917   2.887   0.816  27.533
 3053W        W 3918   3.172   0.769  25.628
 3054W        W 3919   3.637   1.570  27.934
 3055W        W 3920   1.604   3.277  27.687
 3056W        W 3921   3.378   2.743  26.125
 3057W        W 3922   0.507   3.529  25.879
 3058W        W 3923   0.900   3.575  26.555
 3059W        W 3924   0.697   0.329  27.981
 3060W        W 3925   3.320   1.347  28.256
 3061W        W 3926   2.725   1.769  26.715
 3062W        W 3927   2.691   1.457  25.742
 3063W        W 3928   1.899   2.601  27.882
 3064W        W 3929   1.705   0.931  27.081
 3065W        W 3930   2.305   3.018  28.075
 3066W        W 3931   3.176   1.809  26.497
 3067W        W 3932   2.078   0.467  26.513
 3068W        W 3933   0.735   3.161  26.196
 3069W        W 3934   0.106   0.660  26.795
 3070W        W 3935   2.892   1.267  27.269
 3071W        W 3936   0.350   2.884  27.184
 3072W        W 3937   1.691   3.234  26.054
 3073W        W 3938   3.083   1.260  25.518
 3074W        W 3939   0.106   3.018  27.682
 3075W        W 3940   0.897   2.590  28.162
 3076W        W 3941   1.270   1.950  26.781
 3077W        W 3942   1.292   0.355  27.874
 3078W        W 3943   3.521   0.117  27.171
 3079W        W 3944   0.740   1.989  25.639
 3080W        W 3945   0.395   1.022  25.818
 3081W        W 3946   0.457   2.978  26.612
 3082W        W 3947   1.588   2.461  26.860
 3083W        W 3948   2.920   3.320  28.574
 3084W        W 3949   1.846   0.962  26.258
 3085W        W 3950   3.229   3.360  27.030
 3086W        W 3951   2.906   1.213  28.628
 3087W        W 3952   3.619   2.869  26.762
 3088W        W 3953   2.246   2.161  28.246
 3089W        W 3954   0.012   1.712  26.452
 3090W        W 3955   1.123   2.127  28.025
 3091W        W 3956   2.327   1.391  26.403
 3092W        W 3957   2.204   1.881  26.507
 3093W        W 3958   0.547   1.301  27.981
 3094W        W 3959   0.532   1.177  28.903
 3095W        W 3960   0.422   0.094  27.062
 3096W        W 3961   2.190   0.441  27.623
 3097W        W 3962   1.838   0.626  28.786
 3098W        W 3963   2.193   0.775  25.964
 3099W        W 3964   3.376   3.168  28.718
 3100W        W 3965   2.343   0.249  28.757
 3101W        W 3966   3.362   2.550  28.879
 3102W        W 3967   2.792   0.717  28.475
 3103W        W 3968   2.592   0.655  26.745
 3104W        W 3969   2.985   1.789  29.149
 3105W        W 3970   0.725   3.365  27.135
 3106W        W 3971   1.383   1.082  26.121
 3107W        W 3972   0.952   0.366  28.785
 3108W        W 3973   3.004   0.850  26.466
 3109W        W 3974   3.371   1.332  26.411
 3110W        W 3975   1.114   3.549  28.882
 3111W        W 3976   1.040   0.085  26.117
 3112W        W 3977   3.361   0.619  27.152
 3113W        W 3978   3.511   2.868  25.597
 3114W        W 3979   0.418   2.071  27.299
 3115W        W 3980   2.335   0.658  25.529
 3116W        W 3981   3.469   2.990  27.249
 3117W        W 3982   3.508   0.184  27.999
 3118W        W 3983   1.953   1.396  28.553
 3119W        W 3984   2.046   2.735  26.256
 3120W        W 3985   2.446   2.029  28.996
 3121W        W 3986   2.120   0.006  27.305
 3122W        W 3987   0.732   0.909  27.368
 3123W        W 3988   0.286   2.109  28.142
 3124W        W 3989   2.145   3.302  26.848
 3125W        W 3990   3.339   0.899  27.720
 3126W        W 3991   1.976   3.246  28.487
 3127W        W 3992   3.319   2.305  25.692
 3128W        W 3993   1.754   1.788  26.753
 3129W        W 3994   3.606   0.299  28.494
 3130W        W 3995   1.755   2.134  28.088
 3131W        W 3996   1.972   1.020  27.533
 3132W        W 3997   2.824   1.318  26.371
 3133W        W 3998   3.111   1.051  26.013
 3134W        W 3999   2.920   3.091  26.402
 3135W        W 4000   2.754   2.694  27.198
 3136W        W 4001   2.650   1.773  26.176
 3137W        W 4002   2.083   1.983  27.162
 3138W        W 4003   2.964   1.771  27.229
 3139W        W 4004   0.339   0.786  27.653
 3140W        W 4005   3.117   1.838  28.480
 3141W        W 4006   3.468   3.456  27.626
 3142W        W 4007   1.398   2.900  27.028
 3143W        W 4008   2.405   3.433  28.352
 3144W        W 4009   2.399   0.763  28.116
 3145W        W 4010   1.606   3.471  28.177
 3146W        W 4011   3.303   0.425  26.643
 3147W        W 4012   3.094   1.744  27.944
 3148W        W 4013   0.077   1.065  27.982
 3149W        W 4014   2.937   0.860  27.000
 3150W        W 4015   3.348   1.011  28.777
 3151W        W 4016   2.233   2.710  26.995
 3152W        W 4017   1.489   3.301  26.608
 3153W        W 4018   0.604   0.481  25.866
 3154W        W 4019   1.708   0.135  27.676
 3155W        W 4020   0.736   3.255  25.524
 3156W        W 4021   1.110   1.721  26.275
 3157W        W 4022   1.764   2.350  28.588
 3158W        W 4023   1.594   0.708  26.578
 3159W        W 4024   2.950   0.305  27.006
 3160W        W 4025   2.670   3.587  27.334
 3161W        W 4026   2.082   3.235  27.674
 3162W        W 4027   1.478   2.272  27.635
 3163W        W 4028   3.248   2.995  27.761
 3164W        W 4029   0.942   0.498  26.530
 3165W        W 4030   1.464   2.795  27.490
 3166W        W 4031   0.947   0.726  25.555
 3167W        W 4032   1.748   1.335  27.949
 3168W        W 4033   2.596   0.201  27.819
 3169W        W 4034   0.016   2.044  27.704
 3170W        W 4035   1.720   1.862  25.862
 3171W        W 4036   0.988   0.177  25.632
 3172W        W 4037   1.726   1.258  26.683
 3173W        W 4038   2.696   0.234  28.382
 3174W        W 4039   1.284   2.246  28.491
 3175W        W 4040   2.088   2.028  28.708
 3176W        W 4041   2.705   2.058  28.601
 3177W        W 4042   1.989   0.198  29.106
 3178W        W 4043   1.211   0.814  27.499
 3179W        W 4044   0.637   0.770  26.897
 3180W        W 4045   0.423   3.482  26.573
 3181W        W 4046   1.755   2.812  28.698
 3182W        W 4047   0.790   2.297  26.057
 3183W        W 4048   2.470   1.682  27.278
 3184W        W 4049   2.750   1.481  27.677
 3185W        W 4050   1.955   2.155  27.611
 3186W        W 4051   2.425   2.529  25.743
 3187W        W 4052   2.097   0.550  27.071
 3188W        W 4053   3.576   0.828  26.339
 3189W        W 4054   0.070   3.417  28.370
 3190W        W 4055   0.487   2.643  27.902
 3191W        W 4056   0.054   3.489  26.134
 3192W        W 4057   1.953   0.759  27.940
 3193W        W 4058   1.316   2.782  25.789
 3194W        W 4059   3.221   3.164  25.975
 3195W        W 4060   2.196   1.817  25.989
 3196W        W 4061   1.039   1.008  26.506
 3197W        W 4062   1.871   0.918  25.558
 3198W        W 4063   2.455   2.483  28.736
 3199W        W 4064   2.808   0.389  26.353
 3200W        W 4065   0.138   0.237  25.801
 3201W        W 4066   1.424   2.556  28.091
 3202W        W 4067   1.223   2.472  27.183
 3203W        W 4068   0.965   2.424  25.581
 3204W        W 4069   0.206   2.665  26.349
 3205W        W 4070   0.710   1.735  28.791
 3206W        W 4071   1.414   0.295  28.977
 3207W        W 4072   2.123   0.437  28.333
 3208W        W 4073   1.318   0.205  26.614
 3209W        W 4074   2.377   0.282  26.119
 3210W        W 4075   0.322   0.214  27.696
 3211W        W 4076   0.370   1.177  27.066
 3212W        W 4077   3.059   0.285  27.472
 3213W        W 4078   0.481   0.783  26.286
 3214W        W 4079   3.052   0.471  27.902
 3215W        W 4080   3.448   1.674  25.587
 3216W        W 4081   0.740   0.432  27.406
 3217W        W 4082   1.854   1.004  28.346
 3218W        W 4083   0.002   0.694  25.824
 3219W        W 4084   0.788   2.083  28.385
 3220W        W 4085   2.146   1.481  27.564
 3221W        W 4086   2.013   3.560  25.860
 3222W        W 4087   0.159   2.067  25.557
 3223W        W 4088   0.894   2.478  28.683
 3224W        W 4089   0.415   1.645  28.314
 3225W        W 4090   1.406   1.750  28.108
 3226W        W 4091   3.174   0.109  28.370
 3227W        W 4092   3.572   1.719  28.361
 3228W        W 4093   3.560   1.919  26.047
 3229W        W 4094   2.423   2.251  26.146
 3230W        W 4095   2.897   3.551  25.841
 3231W        W 4096   2.074   1.541  28.983
 3232W        W 4097   0.404   2.508  29.023
 3233W        W 4098   3.610   0.430  28.975
 3234W        W 4099   3.328   1.358  27.596
 3235W        W 4100   1.636   3.488  29.073
 3236W        W 4101   1.491   0.117  25.800
 3237W        W 4102   3.030   2.716  25.743
 3238W        W 4103   0.799   0.809  28.629
 3239W        W 4104   1.233   2.803  28.491
 3240W        W 4105   3.359   0.794  28.289
 3241W        W 4106   2.570   3.453  26.257
 3242W        W 4107   2.809   2.072  27.624
 3243W        W 4108   1.059   0.488  28.291
 3244W        W 4109   1.528   1.557  29.048
 3245W        W 4110   1.031   2.736  26.242
 3246W        W 4111   2.786   2.234  26.506
 3247W        W 4112   0.554   0.860  28.230
 3248W        W 4113   1.883   2.922  26.694
 3249W        W 4114   3.633   1.482  26.875
 3250W        W 4115   1.855   0.115  28.594
 3251W        W 4116   2.635   2.820  27.673
 3252W        W 4117   2.938   3.164  27.381
 3253W        W 4118   2.157   2.966  25.809
 3254W        W 4119   0.167   2.858  28.651
 3255W        W 4120   0.910   0.850  27.889
 3256W        W 4121   0.880   0.198  26.999
 3257W        W 4122   2.501   1.040  27.691
 3258W        W 4123   1.299   2.211  25.891
 3259W        W 4124   3.297   2.153  27.390
 3260W        W 4125   0.624   2.911  28.813
 3261W        W 4126   3.011   3.593  26.610
 3262W        W 4127   1.110   0.613  27.055
 3263W        W 4128   0.879   2.106  27.145
 3264W        W 4129   1.192   3.517  27.895
 3265W        W 4130   3.259   3.613  28.927
 3266W        W 4131   2.418   1.801  27.860
 3267W        W 4132   0.267   1.599  25.775
 3268W        W 4133   3.401   3.257  26.472
 3269W        W 4134   3.238   0.581  26.091
 3270W        W 4135   1.377   0.100  28.494
 3271W        W 4136   3.083   2.902  26.952
 3272W        W 4137   3.112   1.458  26.857
 3273W        W 4138   1.229   1.131  27.073
 3274W        W 4139   1.474   1.393  28.397
 3275W        W 4140   2.585   2.546  28.260
 3276W        W 4141   1.235   1.000  28.372
 3277W        W 4142   1.214   3.466  26.988
 3278W        W 4143   0.531   3.425  28.622
 3279W        W 4144   0.643   2.786  25.752
 3280W        W 4145   3.160   2.544  26.562
 3281W        W 4146   0.764   1.336  28.448
 3282W        W 4147   3.537   1.266  25.929
 3283W        W 4148   1.282   2.323  26.400
 3284W        W 4149   2.381   1.705  28.481
 3285W        W 4150   2.272   1.333  28.025
 3286W        W 4151   0.832   1.705  28.054
 3287W        W 4152   3.042   3.593  27.883
 3288W        W 4153   2.833   0.227  28.877
 3289W        W 4154   0.497   0.377  28.464
 3290W        W 4155   0.836   1.400  27.517
 3291W        W 4156   1.205   1.214  25.639
 3292W        W 4157   0.008   2.973  28.184
 3293W        W 4158   1.593   1.682  27.627
 3294W        W 4159   1.416   0.707  25.732
 3295W        W 4160   0.551   1.523  26.513
 3296W        W 4161   0.322   3.375  27.950
 3297W        W 4162   3.117   1.601  26.058
 3298W        W 4163   3.212   0.517  28.744
 3299W        W 4164   2.648   2.726  26.707
 3300W        W 4165   0.246   1.650  28.884
 3301W        W 4166   3.212   0.114  26.180
 3302W        W 4167   2.732   2.589  26.191
 3303W        W 4168   1.634   1.647  26.276
 3304W        W 4169   2.821   0.451  25.799
 3305W        W 4170   2.886   1.058  27.985
 3306W        W 4171   0.595   1.651  27.192
 3307W        W 4172   0.889   2.590  26.841
 3308W        W 4173   2.652   1.210  26.806
 3309W        W 4174   1.675   0.589  27.502
 3310W        W 4175   3.637   2.500  28.013
 3311W        W 4176   3.555   0.487  27.574
 3312W        W 4177   0.094   3.317  26.950
 3313W        W 4178   0.603   2.504  26.486
 3314W        W 4179   0.518   0.121  29.039
 3315W        W 4180   1.637   2.974  29.141
 3316W        W 4181   3.392   1.942  26.931
 3317W        W 4182   2.746   2.119  25.811
 3318W        W 4183   2.041   3.640  28.023
 3319W        W 4184   2.898   2.362  29.060
 3320W        W 4185   1.713   0.072  26.340
 3321W        W 4186   2.426   0.941  27.199
 3322W        W 4187   0.112   2.528  27.531
 3323W        W 4188   1.365   0.490  26.172
 3324W        W 4189   1.169   1.974  29.021
 3325W        W 4190   2.163   0.955  26.735
 3326W        W 4191   2.368   2.365  27.857
 3327W        W 4192   0.522   2.970  28.292
 3328W        W 4193   1.113   2.953  29.015
 3329W        W 4194   0.964   0.750  26.029
 3330W        W 4195   2.481   0.892  26.354
 3331W        W 4196   2.439   3.000  28.591
 3332W        W 4197   1.124   1.592  27.190
 3333W        W 4198   0.779   3.290  28.055
 3334W        W 4199   3.524   3.407  25.656
 3335W        W 4200   0.387   2.079  28.652
 3336W        W 4201   2.382   2.341  27.340
 3337W        W 4202   0.818   1.990  26.582
 3338W        W 4203   1.189   2.997  27.977
 3339W        W 4204   1.567   0.416  27.018
 3340W        W 4205   0.178   2.400  25.948
 3341W        W 4206   1.697   1.351  25.818
 3342W        W 4207   0.343   1.900  26.837
 3343W        W 4208   1.633   0.542  28.301
 3344W        W 4209   3.305   0.251  25.728
 3345W        W 4210   3.398   1.997  28.827
 3346W        W 4211   2.052   3.254  28.979
 3347W        W 4212   3.610   2.348  28.501
 3348W        W 4213   3.018   3.146  29.112
 3349W        W 4214   0.757   3.602  27.590
 3350W        W 4215   3.616   2.224  26.464
 3351W        W 4216   2.146   1.491  26.977
 3352W        W 4217   1.913   0.103  26.867
 3353W        W 4218   0.972   3.087  26.704
 3354W        W 4219   1.471   0.828  27.929
 3355W        W 4220   1.171   0.197  27.398
 3356W        W 4221   0.234   3.019  25.946
 3357W        W 4222   2.050   2.383  26.664
 3358W        W 4223   0.925   3.178  28.543
 3359W        W 4224   0.402   2.001  26.239
 3360W        W 4225   0.287   0.544  27.238
 3361W        W 4226   1.835   2.509  27.295
 3362W        W 4227   0.087   0.363  26.315
 3363W        W 4228   2.751   1.569  28.242
 3364W        W 4229   2.628   0.955  25.814
 3365W        W 4230   3.145   2.627  27.462
 3366W        W 4231   1.806   3.111  27.293
 3367W        W 4232   1.218   3.215  26.204
 3368W        W 4233   2.500   0.118  25.634
 3369W        W 4234   0.300   3.378  27.375
 3370W        W 4235   2.497   1.136  29.010
 3371W        W 4236   0.480   0.666  29.009
 3372W        W 4237   0.211   1.266  26.342
 3373W        W 4238   0.902   1.255  26.067
 3374W        W 4239   2.665   1.582  28.884
 3375W        W 4240   1.008   1.863  27.593
 3376W        W 4241   2.482   0.149  26.713
 3377W        W 4242   1.613   3.580  27.216
 3378W        W 4243   2.827   3.042  28.153
 3379W        W 4244   2.411   3.191  27.264
 3380W        W 4245   2.430   2.171  26.858
 3381W        W 4246   1.892   0.396  25.929
 3382W        W 4247   3.573   0.024  26.651
 3383W        W 4248   1.261   1.659  25.814
 3384W        W 4249   3.427   0.996  26.804
 3385W        W 4250   2.119   2.166  25.681
 3386W        W 4251   3.055   2.366  28.429
 3387W        W 4252   2.709   3.067  25.896
 3388W        W 4253   1.324   0.742  28.802
 3389W        W 4254   1.144   1.326  28.043
 3390W        W 4255   3.236   2.821  28.320
 3391W        W 4256   2.336   0.771  28.697
 3392W        W 4257   0.180   1.242  28.474
 3393W        W 4258   1.940   1.719  28.200
 3394W        W 4259   0.297   2.477  26.857
 3395W        W 4260   0.444   1.774  27.747
 3396W        W 4261   2.761   2.060  28.097
 3397W        W 4262   2.533   3.440  28.908
 3398W        W 4263   2.429   1.179  28.461
 3399W        W 4264   2.706   3.233  26.866
 3400W        W 4265   1.708   2.953  28.189
 3401W        W 4266   1.193   3.308  27.458
 3402W        W 4267   2.998   2.479  27.877
 3403W        W 4268   2.048   2.551  29.014
 3404W        W 4269   0.653   2.504  27.353
 3405W        W 4270   2.999   2.263  26.998
 3406W        W 4271   2.640   3.329  27.749
 3407W        W 4272   0.618   3.058  27.619
 3408W        W 4273   1.639   1.110  28.829
 3409W        W 4274   2.090   3.276  26.340
 3410W        W 4275   1.398   2.531  28.978
 3411W        W 4276   1.524   2.769  26.355
 3412W        W 4277   0.745   1.509  25.614
 3413W        W 4278   0.084   7.239   3.359
 3414W        W 4279   0.460   6.132   2.882
 3415W        W 4280   3.165   5.862   0.652
 3416W        W 4281   3.295   6.947   2.679
 3417W        W 4282   1.213   6.938   0.205
 3418W        W 4283   1.296   5.090   1.188
 3419W        W 4284   0.811   4.938   1.352
 3420W        W 4285   1.802   5.753   0.786
 3421W        W 4286   1.477   6.845   3.141
 3422W        W 4287   0.126   4.406   3.104
 3423W        W 4288   0.888   3.686   2.906
 3424W        W 4289   2.582   4.074   1.793
 3425W        W 4290   2.231   4.945   0.363
 3426W        W 4291   2.801   4.379   3.454
 3427W        W 4292   0.167   4.171   2.579
 3428W        W 4293   0.266   6.790   3.600
 3429W        W 4294   1.788   6.180   0.332
 3430W        W 4295   0.220   4.963   2.025
 3431W        W 4296   1.113   4.854   3.262
 3432W        W 4297   3.572   4.713   1.761
 3433W        W 4298   3.336   5.756   2.620
 3434W        W 4299   1.644   5.089   1.647
 3435W        W 4300   2.190   6.428   2.016
 3436W        W 4301   0.690   5.862   2.248
 3437W        W 4302   0.049   5.390   1.819
 3438W        W 4303   1.085   5.362   3.011
 3439W        W 4304   3.356   5.145   3.265
 3440W        W 4305   0.972   6.589   1.710
 3441W        W 4306   2.093   6.278   2.844
 3442W        W 4307   1.313   4.918   2.069
 3443W        W 4308   1.605   5.702   1.712
 3444W        W 4309   2.602   6.475   3.560
 3445W        W 4310   1.681   5.795   3.570
 3446W        W 4311   1.662   5.511   3.048
 3447W        W 4312   0.071   4.902   3.570
 3448W        W 4313   2.903   6.437   3.169
 3449W        W 4314   0.484   4.019   1.167
 3450W        W 4315   1.011   6.277   2.166
 3451W        W 4316   3.474   6.060   1.456
 3452W        W 4317   2.887   4.460   2.023
 3453W        W 4318   3.172   4.413   0.118
 3454W        W 4319   3.637   5.214   2.424
 3455W        W 4320   1.604   6.921   2.177
 3456W        W 4321   3.378   6.387   0.615
 3457W        W 4322   0.507   7.173   0.369
 3458W        W 4323   0.900   7.219   1.045
 3459W        W 4324   0.697   3.973   2.471
 3460W        W 4325   3.320   4.991   2.746
 3461W        W 4326   2.725   5.413   1.205
 3462W        W 4327   2.691   5.101   0.232
 3463W        W 4328   1.899   6.245   2.372
 3464W        W 4329   1.705   4.575   1.571
 3465W        W 4330   2.305   6.662   2.565
 3466W        W 4331   3.176   5.453   0.987
 3467W        W 4332   2.078   4.111   1.003
 3468W        W 4333   0.735   6.805   0.686
 3469W        W 4334   0.106   4.304   1.285
 3470W        W 4335   2.892   4.911   1.759
 3471W        W 4336   0.350   6.528   1.674
 3472W        W 4337   1.691   6.878   0.544
 3473W        W 4338   3.083   4.904   0.008
 3474W        W 4339   0.106   6.662   2.172
 3475W        W 4340   0.897   6.234   2.652
 3476W        W 4341   1.270   5.594   1.271
 3477W        W 4342   1.292   3.999   2.364
 3478W        W 4343   3.521   3.761   1.661
 3479W        W 4344   0.740   5.633   0.129
 3480W        W 4345   0.395   4.666   0.308
 3481W        W 4346   0.457   6.622   1.102
 3482W        W 4347   1.588   6.105   1.350
 3483W        W 4348   2.920   6.964   3.064
 3484W        W 4349   1.846   4.606   0.748
 3485W        W 4350   3.229   7.004   1.520
 3486W        W 4351   2.906   4.857   3.118
 3487W        W 4352   3.619   6.513   1.252
 3488W        W 4353   2.246   5.805   2.736
 3489W        W 4354   0.012   5.356   0.942
 3490W        W 4355   1.123   5.771   2.515
 3491W        W 4356   2.327   5.035   0.893
 3492W        W 4357   2.204   5.525   0.997
 3493W        W 4358   0.547   4.945   2.471
 3494W        W 4359   0.532   4.821   3.393
 3495W        W 4360   0.422   3.738   1.552
 3496W        W 4361   2.190   4.085   2.113
 3497W        W 4362   1.838   4.270   3.276
 3498W        W 4363   2.193   4.419   0.454
 3499W        W 4364   3.376   6.812   3.208
 3500W        W 4365   2.343   3.893   3.247
 3501W        W 4366   3.362   6.194   3.369
 3502W        W 4367   2.792   4.361   2.965
 3503W        W 4368   2.592   4.299   1.235
 3504W        W 4369   2.985   5.433   3.639
 3505W        W 4370   0.725   7.009   1.625
 3506W        W 4371   1.383   4.726   0.611
 3507W        W 4372   0.952   4.010   3.275
 3508W        W 4373   3.004   4.494   0.956
 3509W        W 4374   3.371   4.976   0.901
 3510W        W 4375   1.114   7.193   3.372
 3511W        W 4376   1.040   3.729   0.607
 3512W        W 4377   3.361   4.263   1.642
 3513W        W 4378   3.511   6.512   0.087
 3514W        W 4379   0.418   5.715   1.789
 3515W        W 4380   2.335   4.302   0.019
 3516W        W 4381   3.469   6.634   1.739
 3517W        W 4382   3.508   3.828   2.489
 3518W        W 4383   1.953   5.040   3.043
 3519W        W 4384   2.046   6.379   0.746
 3520W        W 4385   2.446   5.673   3.486
 3521W        W 4386   2.120   3.650   1.795
 3522W        W 4387   0.732   4.553   1.858
 3523W        W 4388   0.286   5.753   2.632
 3524W        W 4389   2.145   6.946   1.338
 3525W        W 4390   3.339   4.543   2.210
 3526W        W 4391   1.976   6.890   2.977
 3527W        W 4392   3.319   5.949   0.182
 3528W        W 4393   1.754   5.432   1.243
 3529W        W 4394   3.606   3.943   2.984
 3530W        W 4395   1.755   5.778   2.578
 3531W        W 4396   1.972   4.664   2.023
 3532W        W 4397   2.824   4.962   0.861
 3533W        W 4398   3.111   4.695   0.503
 3534W        W 4399   2.920   6.735   0.892
 3535W        W 4400   2.754   6.338   1.688
 3536W        W 4401   2.650   5.417   0.666
 3537W        W 4402   2.083   5.627   1.652
 3538W        W 4403   2.964   5.415   1.719
 3539W        W 4404   0.339   4.430   2.143
 3540W        W 4405   3.117   5.482   2.970
 3541W        W 4406   3.468   7.100   2.116
 3542W        W 4407   1.398   6.544   1.518
 3543W        W 4408   2.405   7.077   2.842
 3544W        W 4409   2.399   4.407   2.606
 3545W        W 4410   1.606   7.115   2.667
 3546W        W 4411   3.303   4.069   1.133
 3547W        W 4412   3.094   5.388   2.434
 3548W        W 4413   0.077   4.709   2.472
 3549W        W 4414   2.937   4.504   1.490
 3550W        W 4415   3.348   4.655   3.267
 3551W        W 4416   2.233   6.354   1.485
 3552W        W 4417   1.489   6.945   1.098
 3553W        W 4418   0.604   4.125   0.356
 3554W        W 4419   1.708   3.779   2.166
 3555W        W 4420   0.736   6.899   0.014
 3556W        W 4421   1.110   5.365   0.765
 3557W        W 4422   1.764   5.994   3.078
 3558W        W 4423   1.594   4.352   1.068
 3559W        W 4424   2.950   3.949   1.496
 3560W        W 4425   2.670   7.231   1.824
 3561W        W 4426   2.082   6.879   2.164
 3562W        W 4427   1.478   5.916   2.125
 3563W        W 4428   3.248   6.639   2.251
 3564W        W 4429   0.942   4.142   1.020
 3565W        W 4430   1.464   6.439   1.980
 3566W        W 4431   0.947   4.370   0.045
 3567W        W 4432   1.748   4.979   2.439
 3568W        W 4433   2.596   3.845   2.309
 3569W        W 4434   0.016   5.688   2.194
 3570W        W 4435   1.720   5.506   0.352
 3571W        W 4436   0.988   3.821   0.122
 3572W        W 4437   1.726   4.902   1.173
 3573W        W 4438   2.696   3.878   2.872
 3574W        W 4439   1.284   5.890   2.981
 3575W        W 4440   2.088   5.672   3.198
 3576W        W 4441   2.705   5.702   3.091
 3577W        W 4442   1.989   3.842   3.596
 3578W        W 4443   1.211   4.458   1.989
 3579W        W 4444   0.637   4.414   1.387
 3580W        W 4445   0.423   7.126   1.063
 3581W        W 4446   1.755   6.456   3.188
 3582W        W 4447   0.790   5.941   0.547
 3583W        W 4448   2.470   5.326   1.768
 3584W        W 4449   2.750   5.125   2.167
 3585W        W 4450   1.955   5.799   2.101
 3586W        W 4451   2.425   6.173   0.233
 3587W        W 4452   2.097   4.194   1.561
 3588W        W 4453   3.576   4.472   0.829
 3589W        W 4454   0.070   7.061   2.860
 3590W        W 4455   0.487   6.287   2.392
 3591W        W 4456   0.054   7.133   0.624
 3592W        W 4457   1.953   4.403   2.430
 3593W        W 4458   1.316   6.426   0.279
 3594W        W 4459   3.221   6.808   0.465
 3595W        W 4460   2.196   5.461   0.479
 3596W        W 4461   1.039   4.652   0.996
 3597W        W 4462   1.871   4.562   0.048
 3598W        W 4463   2.455   6.127   3.226
 3599W        W 4464   2.808   4.033   0.843
 3600W        W 4465   0.138   3.881   0.291
 3601W        W 4466   1.424   6.200   2.581
 3602W        W 4467   1.223   6.116   1.673
 3603W        W 4468   0.965   6.068   0.071
 3604W        W 4469   0.206   6.309   0.839
 3605W        W 4470   0.710   5.379   3.281
 3606W        W 4471   1.414   3.939   3.467
 3607W        W 4472   2.123   4.081   2.823
 3608W        W 4473   1.318   3.849   1.104
 3609W        W 4474   2.377   3.926   0.609
 3610W        W 4475   0.322   3.858   2.186
 3611W        W 4476   0.370   4.821   1.556
 3612W        W 4477   3.059   3.929   1.962
 3613W        W 4478   0.481   4.427   0.776
 3614W        W 4479   3.052   4.115   2.392
 3615W        W 4480   3.448   5.318   0.077
 3616W        W 4481   0.740   4.076   1.896
 3617W        W 4482   1.854   4.648   2.836
 3618W        W 4483   0.002   4.338   0.314
 3619W        W 4484   0.788   5.727   2.875
 3620W        W 4485   2.146   5.125   2.054
 3621W        W 4486   2.013   7.204   0.350
 3622W        W 4487   0.159   5.711   0.047
 3623W        W 4488   0.894   6.122   3.173
 3624W        W 4489   0.415   5.289   2.804
 3625W        W 4490   1.406   5.394   2.598
 3626W        W 4491   3.174   3.753   2.860
 3627W        W 4492   3.572   5.363   2.851
 3628W        W 4493   3.560   5.563   0.537
 3629W        W 4494   2.423   5.895   0.636
 3630W        W 4495   2.897   7.195   0.331
 3631W        W 4496   2.074   5.185   3.473
 3632W        W 4497   0.404   6.152   3.513
 3633W        W 4498   3.610   4.074   3.465
 3634W        W 4499   3.328   5.002   2.086
 3635W        W 4500   1.636   7.132   3.563
 3636W        W 4501   1.491   3.761   0.290
 3637W        W 4502   3.030   6.360   0.233
 3638W        W 4503   0.799   4.453   3.119
 3639W        W 4504   1.233   6.447   2.981
 3640W        W 4505   3.359   4.438   2.779
 3641W        W 4506   2.570   7.097   0.747
 3642W        W 4507   2.809   5.716   2.114
 3643W        W 4508   1.059   4.132   2.781
 3644W        W 4509   1.528   5.201   3.538
 3645W        W 4510   1.031   6.380   0.732
 3646W        W 4511   2.786   5.878   0.996
 3647W        W 4512   0.554   4.504   2.720
 3648W        W 4513   1.883   6.566   1.184
 3649W        W 4514   3.633   5.126   1.365
 3650W        W 4515   1.855   3.759   3.084
 3651W        W 4516   2.635   6.464   2.163
 3652W        W 4517   2.938   6.808   1.871
 3653W        W 4518   2.157   6.610   0.299
 3654W        W 4519   0.167   6.502   3.141
 3655W        W 4520   0.910   4.494   2.379
 3656W        W 4521   0.880   3.842   1.489
 3657W        W 4522   2.501   4.684   2.181
 3658W        W 4523   1.299   5.855   0.381
 3659W        W 4524   3.297   5.797   1.880
 3660W        W 4525   0.624   6.555   3.303
 3661W        W 4526   3.011   7.237   1.100
 3662W        W 4527   1.110   4.257   1.545
 3663W        W 4528   0.879   5.750   1.635
 3664W        W 4529   1.192   7.161   2.385
 3665W        W 4530   3.259   7.257   3.417
 3666W        W 4531   2.418   5.445   2.350
 3667W        W 4532   0.267   5.243   0.265
 3668W        W 4533   3.401   6.901   0.962
 3669W        W 4534   3.238   4.225   0.581
 3670W        W 4535   1.377   3.744   2.984
 3671W        W 4536   3.083   6.546   1.442
 3672W        W 4537   3.112   5.102   1.347
 3673W        W 4538   1.229   4.775   1.563
 3674W        W 4539   1.474   5.037   2.887
 3675W        W 4540   2.585   6.190   2.750
 3676W        W 4541   1.235   4.644   2.862
 3677W        W 4542   1.214   7.110   1.478
 3678W        W 4543   0.531   7.069   3.112
 3679W        W 4544   0.643   6.430   0.242
 3680W        W 4545   3.160   6.188   1.052
 3681W        W 4546   0.764   4.980   2.938
 3682W        W 4547   3.537   4.910   0.419
 3683W        W 4548   1.282   5.967   0.890
 3684W        W 4549   2.381   5.349   2.971
 3685W        W 4550   2.272   4.977   2.515
 3686W        W 4551   0.832   5.349   2.544
 3687W        W 4552   3.042   7.237   2.373
 3688W        W 4553   2.833   3.871   3.367
 3689W        W 4554   0.497   4.021   2.954
 3690W        W 4555   0.836   5.044   2.007
 3691W        W 4556   1.205   4.858   0.129
 3692W        W 4557   0.008   6.617   2.674
 3693W        W 4558   1.593   5.326   2.117
 3694W        W 4559   1.416   4.351   0.222
 3695W        W 4560   0.551   5.167   1.003
 3696W        W 4561   0.322   7.019   2.440
 3697W        W 4562   3.117   5.245   0.548
 3698W        W 4563   3.212   4.161   3.234
 3699W        W 4564   2.648   6.370   1.197
 3700W        W 4565   0.246   5.294   3.374
 3701W        W 4566   3.212   3.758   0.670
 3702W        W 4567   2.732   6.233   0.681
 3703W        W 4568   1.634   5.291   0.766
 3704W        W 4569   2.821   4.095   0.289
 3705W        W 4570   2.886   4.702   2.475
 3706W        W 4571   0.595   5.295   1.682
 3707W        W 4572   0.889   6.234   1.331
 3708W        W 4573   2.652   4.854   1.296
 3709W        W 4574   1.675   4.233   1.992
 3710W        W 4575   3.637   6.144   2.503
 3711W        W 4576   3.555   4.131   2.064
 3712W        W 4577   0.094   6.961   1.440
 3713W        W 4578   0.603   6.148   0.976
 3714W        W 4579   0.518   3.765   3.529
 3715W        W 4580   1.637   6.618   3.631
 3716W        W 4581   3.392   5.586   1.421
 3717W        W 4582   2.746   5.763   0.301
 3718W        W 4583   2.041   7.284   2.513
 3719W        W 4584   2.898   6.006   3.550
 3720W        W 4585   1.713   3.716   0.830
 3721W        W 4586   2.426   4.585   1.689
 3722W        W 4587   0.112   6.172   2.021
 3723W        W 4588   1.365   4.134   0.662
 3724W        W 4589   1.169   5.618   3.511
 3725W        W 4590   2.163   4.599   1.225
 3726W        W 4591   2.368   6.009   2.347
 3727W        W 4592   0.522   6.614   2.782
 3728W        W 4593   1.113   6.597   3.505
 3729W        W 4594   0.964   4.394   0.519
 3730W        W 4595   2.481   4.536   0.844
 3731W        W 4596   2.439   6.644   3.081
 3732W        W 4597   1.124   5.236   1.680
 3733W        W 4598   0.779   6.934   2.545
 3734W        W 4599   3.524   7.051   0.146
 3735W        W 4600   0.387   5.723   3.142
 3736W        W 4601   2.382   5.985   1.830
 3737W        W 4602   0.818   5.634   1.072
 3738W        W 4603   1.189   6.641   2.467
 3739W        W 4604   1.567   4.060   1.508
 3740W        W 4605   0.178   6.044   0.438
 3741W        W 4606   1.697   4.995   0.308
 3742W        W 4607   0.343   5.544   1.327
 3743W        W 4608   1.633   4.186   2.791
 3744W        W 4609   3.305   3.895   0.218
 3745W        W 4610   3.398   5.641   3.317
 3746W        W 4611   2.052   6.898   3.469
 3747W        W 4612   3.610   5.992   2.991
 3748W        W 4613   3.018   6.790   3.602
 3749W        W 4614   0.757   7.246   2.080
 3750W        W 4615   3.616   5.868   0.954
 3751W        W 4616   2.146   5.135   1.467
 3752W        W 4617   1.913   3.747   1.357
 3753W        W 4618   0.972   6.731   1.194
 3754W        W 4619   1.471   4.472   2.419
 3755W        W 4620   1.171   3.841   1.888
 3756W        W 4621   0.234   6.663   0.436
 3757W        W 4622   2.050   6.027   1.154
 3758W        W 4623   0.925   6.822   3.033
 3759W        W 4624   0.402   5.645   0.729
 3760W        W 4625   0.287   4.188   1.728
 3761W        W 4626   1.835   6.153   1.785
 3762W        W 4627   0.087   4.007   0.805
 3763W        W 4628   2.751   5.213   2.732
 3764W        W 4629   2.628   4.599   0.304
 3765W        W 4630   3.145   6.271   1.952
 3766W        W 4631   1.806   6.755   1.783
 3767W        W 4632   1.218   6.859   0.694
 3768W        W 4633   2.500   3.762   0.124
 3769W        W 4634   0.300   7.022   1.865
 3770W        W 4635   2.497   4.780   3.500
 3771W        W 4636   0.480   4.310   3.499
 3772W        W 4637   0.211   4.910   0.832
 3773W        W 4638   0.902   4.899   0.557
 3774W        W 4639   2.665   5.226   3.374
 3775W        W 4640   1.008   5.507   2.083
 3776W        W 4641   2.482   3.793   1.203
 3777W        W 4642   1.613   7.224   1.706
 3778W        W 4643   2.827   6.686   2.643
 3779W        W 4644   2.411   6.835   1.754
 3780W        W 4645   2.430   5.815   1.348
 3781W        W 4646   1.892   4.040   0.419
 3782W        W 4647   3.573   3.668   1.141
 3783W        W 4648   1.261   5.303   0.304
 3784W        W 4649   3.427   4.640   1.294
 3785W        W 4650   2.119   5.810   0.171
 3786W        W 4651   3.055   6.010   2.919
 3787W        W 4652   2.709   6.711   0.386
 3788W        W 4653   1.324   4.386   3.292
 3789W        W 4654   1.144   4.970   2.533
 3790W        W 4655   3.236   6.465   2.810
 3791W        W 4656   2.336   4.415   3.187
 3792W        W 4657   0.180   4.886   2.964
 3793W        W 4658   1.940   5.363   2.690
 3794W        W 4659   0.297   6.121   1.347
 3795W        W 4660   0.444   5.418   2.237
 3796W        W 4661   2.761   5.704   2.587
 3797W        W 4662   2.533   7.084   3.398
 3798W        W 4663   2.429   4.823   2.951
 3799W        W 4664   2.706   6.877   1.356
 3800W        W 4665   1.708   6.597   2.679
 3801W        W 4666   1.193   6.952   1.948
 3802W        W 4667   2.998   6.123   2.367
 3803W        W 4668   2.048   6.195   3.504
 3804W        W 4669   0.653   6.148   1.843
 3805W        W 4670   2.999   5.907   1.488
 3806W        W 4671   2.640   6.973   2.239
 3807W        W 4672   0.618   6.702   2.109
 3808W        W 4673   1.639   4.754   3.319
 3809W        W 4674   2.090   6.920   0.830
 3810W        W 4675   1.398   6.175   3.468
 3811W        W 4676   1.524   6.413   0.845
 3812W        W 4677   0.745   5.153   0.104
 3813W        W 4678   0.084   7.239   7.003
 3814W        W 4679   0.460   6.132   6.526
 3815W        W 4680   3.165   5.862   4.296
 3816W        W 4681   3.295   6.947   6.323
 3817W        W 4682   1.213   6.938   3.849
 3818W        W 4683   1.296   5.090   4.832
 3819W        W 4684   0.811   4.938   4.996
 3820W        W 4685   1.802   5.753   4.430
 3821W        W 4686   1.477   6.845   6.785
 3822W        W 4687   0.126   4.406   6.748
 3823W        W 4688   0.888   3.686   6.550
 3824W        W 4689   2.582   4.074   5.437
 3825W        W 4690   2.231   4.945   4.007
 3826W        W 4691   2.801   4.379   7.098
 3827W        W 4692   0.167   4.171   6.223
 3828W        W 4693   0.266   6.790   7.244
 3829W        W 4694   1.788   6.180   3.976
 3830W        W 4695   0.220   4.963   5.669
 3831W        W 4696   1.113   4.854   6.906
 3832W        W 4697   3.572   4.713   5.405
 3833W        W 4698   3.336   5.756   6.264
 3834W        W 4699   1.644   5.089   5.291
 3835W        W 4700   2.190   6.428   5.660
 3836W        W 4701   0.690   5.862   5.892
 3837W        W 4702   0.049   5.390   5.463
 3838W        W 4703   1.085   5.362   6.655
 3839W        W 4704   3.356   5.145   6.909
 3840W        W 4705   0.972   6.589   5.354
 3841W        W 4706   2.093   6.278   6.488
 3842W        W 4707   1.313   4.918   5.713
 3843W        W 4708   1.605   5.702   5.356
 3844W        W 4709   2.602   6.475   7.204
 3845W        W 4710   1.681   5.795   7.214
 3846W        W 4711   1.662   5.511   6.692
 3847W        W 4712   0.071   4.902   7.214
 3848W        W 4713   2.903   6.437   6.813
 3849W        W 4714   0.484   4.019   4.811
 3850W        W 4715   1.011   6.277   5.810
 3851W        W 4716   3.474   6.060   5.100
 3852W        W 4717   2.887   4.460   5.667
 3853W        W 4718   3.172   4.413   3.762
 3854W        W 4719   3.637   5.214   6.068
 3855W        W 4720   1.604   6.921   5.821
 3856W        W 4721   3.378   6.387   4.259
 3857W        W 4722   0.507   7.173   4.013
 3858W        W 4723   0.900   7.219   4.689
 3859W        W 4724   0.697   3.973   6.115
 3860W        W 4725   3.320   4.991   6.390
 3861W        W 4726   2.725   5.413   4.849
 3862W        W 4727   2.691   5.101   3.876
 3863W        W 4728   1.899   6.245   6.016
 3864W        W 4729   1.705   4.575   5.215
 3865W        W 4730   2.305   6.662   6.209
 3866W        W 4731   3.176   5.453   4.631
 3867W        W 4732   2.078   4.111   4.647
 3868W        W 4733   0.735   6.805   4.330
 3869W        W 4734   0.106   4.304   4.929
 3870W        W 4735   2.892   4.911   5.403
 3871W        W 4736   0.350   6.528   5.318
 3872W        W 4737   1.691   6.878   4.188
 3873W        W 4738   3.083   4.904   3.652
 3874W        W 4739   0.106   6.662   5.816
 3875W        W 4740   0.897   6.234   6.296
 3876W        W 4741   1.270   5.594   4.915
 3877W        W 4742   1.292   3.999   6.008
 3878W        W 4743   3.521   3.761   5.305
 3879W        W 4744   0.740   5.633   3.773
 3880W        W 4745   0.395   4.666   3.952
 3881W        W 4746   0.457   6.622   4.746
 3882W        W 4747   1.588   6.105   4.994
 3883W        W 4748   2.920   6.964   6.708
 3884W        W 4749   1.846   4.606   4.392
 3885W        W 4750   3.229   7.004   5.164
 3886W        W 4751   2.906   4.857   6.762
 3887W        W 4752   3.619   6.513   4.896
 3888W        W 4753   2.246   5.805   6.380
 3889W        W 4754   0.012   5.356   4.586
 3890W        W 4755   1.123   5.771   6.159
 3891W        W 4756   2.327   5.035   4.537
 3892W        W 4757   2.204   5.525   4.641
 3893W        W 4758   0.547   4.945   6.115
 3894W        W 4759   0.532   4.821   7.037
 3895W        W 4760   0.422   3.738   5.196
 3896W        W 4761   2.190   4.085   5.757
 3897W        W 4762   1.838   4.270   6.920
 3898W        W 4763   2.193   4.419   4.098
 3899W        W 4764   3.376   6.812   6.852
 3900W        W 4765   2.343   3.893   6.891
 3901W        W 4766   3.362   6.194   7.013
 3902W        W 4767   2.792   4.361   6.609
 3903W        W 4768   2.592   4.299   4.879
 3904W        W 4769   2.985   5.433   7.283
 3905W        W 4770   0.725   7.009   5.269
 3906W        W 4771   1.383   4.726   4.255
 3907W        W 4772   0.952   4.010   6.919
 3908W        W 4773   3.004   4.494   4.600
 3909W        W 4774   3.371   4.976   4.545
 3910W        W 4775   1.114   7.193   7.016
 3911W        W 4776   1.040   3.729   4.251
 3912W        W 4777   3.361   4.263   5.286
 3913W        W 4778   3.511   6.512   3.731
 3914W        W 4779   0.418   5.715   5.433
 3915W        W 4780   2.335   4.302   3.663
 3916W        W 4781   3.469   6.634   5.383
 3917W        W 4782   3.508   3.828   6.133
 3918W        W 4783   1.953   5.040   6.687
 3919W        W 4784   2.046   6.379   4.390
 3920W        W 4785   2.446   5.673   7.130
 3921W        W 4786   2.120   3.650   5.439
 3922W        W 4787   0.732   4.553   5.502
 3923W        W 4788   0.286   5.753   6.276
 3924W        W 4789   2.145   6.946   4.982
 3925W        W 4790   3.339   4.543   5.854
 3926W        W 4791   1.976   6.890   6.621
 3927W        W 4792   3.319   5.949   3.826
 3928W        W 4793   1.754   5.432   4.887
 3929W        W 4794   3.606   3.943   6.628
 3930W        W 4795   1.755   5.778   6.222
 3931W        W 4796   1.972   4.664   5.667
 3932W        W 4797   2.824   4.962   4.505
 3933W        W 4798   3.111   4.695   4.147
 3934W        W 4799   2.920   6.735   4.536
 3935W        W 4800   2.754   6.338   5.332
 3936W        W 4801   2.650   5.417   4.310
 3937W        W 4802   2.083   5.627   5.296
 3938W        W 4803   2.964   5.415   5.363
 3939W        W 4804   0.339   4.430   5.787
 3940W        W 4805   3.117   5.482   6.614
 3941W        W 4806   3.468   7.100   5.760
 3942W        W 4807   1.398   6.544   5.162
 3943W        W 4808   2.405   7.077   6.486
 3944W        W 4809   2.399   4.407   6.250
 3945W        W 4810   1.606   7.115   6.311
 3946W        W 4811   3.303   4.069   4.777
 3947W        W 4812   3.094   5.388   6.078
 3948W        W 4813   0.077   4.709   6.116
 3949W        W 4814   2.937   4.504   5.134
 3950W        W 4815   3.348   4.655   6.911
 3951W        W 4816   2.233   6.354   5.129
 3952W        W 4817   1.489   6.945   4.742
 3953W        W 4818   0.604   4.125   4.000
 3954W        W 4819   1.708   3.779   5.810
 3955W        W 4820   0.736   6.899   3.658
 3956W        W 4821   1.110   5.365   4.409
 3957W        W 4822   1.764   5.994   6.722
 3958W        W 4823   1.594   4.352   4.712
 3959W        W 4824   2.950   3.949   5.140
 3960W        W 4825   2.670   7.231   5.468
 3961W        W 4826   2.082   6.879   5.808
 3962W        W 4827   1.478   5.916   5.769
 3963W        W 4828   3.248   6.639   5.895
 3964W        W 4829   0.942   4.142   4.664
 3965W        W 4830   1.464   6.439   5.624
 3966W        W 4831   0.947   4.370   3.689
 3967W        W 4832   1.748   4.979   6.083
 3968W        W 4833   2.596   3.845   5.953
 3969W        W 4834   0.016   5.688   5.838
 3970W        W 4835   1.720   5.506   3.996
 3971W        W 4836   0.988   3.821   3.766
 3972W        W 4837   1.726   4.902   4.817
 3973W        W 4838   2.696   3.878   6.516
 3974W        W 4839   1.284   5.890   6.625
 3975W        W 4840   2.088   5.672   6.842
 3976W        W 4841   2.705   5.702   6.735
 3977W        W 4842   1.989   3.842   7.240
 3978W        W 4843   1.211   4.458   5.633
 3979W        W 4844   0.637   4.414   5.031
 3980W        W 4845   0.423   7.126   4.707
 3981W        W 4846   1.755   6.456   6.832
 3982W        W 4847   0.790   5.941   4.191
 3983W        W 4848   2.470   5.326   5.412
 3984W        W 4849   2.750   5.125   5.811
 3985W        W 4850   1.955   5.799   5.745
 3986W        W 4851   2.425   6.173   3.877
 3987W        W 4852   2.097   4.194   5.205
 3988W        W 4853   3.576   4.472   4.473
 3989W        W 4854   0.070   7.061   6.504
 3990W        W 4855   0.487   6.287   6.036
 3991W        W 4856   0.054   7.133   4.268
 3992W        W 4857   1.953   4.403   6.074
 3993W        W 4858   1.316   6.426   3.923
 3994W        W 4859   3.221   6.808   4.109
 3995W        W 4860   2.196   5.461   4.123
 3996W        W 4861   1.039   4.652   4.640
 3997W        W 4862   1.871   4.562   3.692
 3998W        W 4863   2.455   6.127   6.870
 3999W        W 4864   2.808   4.033   4.487
 4000W        W 4865   0.138   3.881   3.935
 4001W        W 4866   1.424   6.200   6.225
 4002W        W 4867   1.223   6.116   5.317
 4003W        W 4868   0.965   6.068   3.715
 4004W        W 4869   0.206   6.309   4.483
 4005W        W 4870   0.710   5.379   6.925
 4006W        W 4871   1.414   3.939   7.111
 4007W        W 4872   2.123   4.081   6.467
 4008W        W 4873   1.318   3.849   4.748
 4009W        W 4874   2.377   3.926   4.253
 4010W        W 4875   0.322   3.858   5.830
 4011W        W 4876   0.370   4.821   5.200
 4012W        W 4877   3.059   3.929   5.606
 4013W        W 4878   0.481   4.427   4.420
 4014W        W 4879   3.052   4.115   6.036
 4015W        W 4880   3.448   5.318   3.721
 4016W        W 4881   0.740   4.076   5.540
 4017W        W 4882   1.854   4.648   6.480
 4018W        W 4883   0.002   4.338   3.958
 4019W        W 4884   0.788   5.727   6.519
 4020W        W 4885   2.146   5.125   5.698
 4021W        W 4886   2.013   7.204   3.994
 4022W        W 4887   0.159   5.711   3.691
 4023W        W 4888   0.894   6.122   6.817
 4024W        W 4889   0.415   5.289   6.448
 4025W        W 4890   1.406   5.394   6.242
 4026W        W 4891   3.174   3.753   6.504
 4027W        W 4892   3.572   5.363   6.495
 4028W        W 4893   3.560   5.563   4.181
 4029W        W 4894   2.423   5.895   4.280
 4030W        W 4895   2.897   7.195   3.975
 4031W        W 4896   2.074   5.185   7.117
 4032W        W 4897   0.404   6.152   7.157
 4033W        W 4898   3.610   4.074   7.109
 4034W        W 4899   3.328   5.002   5.730
 4035W        W 4900   1.636   7.132   7.207
 4036W        W 4901   1.491   3.761   3.934
 4037W        W 4902   3.030   6.360   3.877
 4038W        W 4903   0.799   4.453   6.763
 4039W        W 4904   1.233   6.447   6.625
 4040W        W 4905   3.359   4.438   6.423
 4041W        W 4906   2.570   7.097   4.391
 4042W        W 4907   2.809   5.716   5.758
 4043W        W 4908   1.059   4.132   6.425
 4044W        W 4909   1.528   5.201   7.182
 4045W        W 4910   1.031   6.380   4.376
 4046W        W 4911   2.786   5.878   4.640
 4047W        W 4912   0.554   4.504   6.364
 4048W        W 4913   1.883   6.566   4.828
 4049W        W 4914   3.633   5.126   5.009
 4050W        W 4915   1.855   3.759   6.728
 4051W        W 4916   2.635   6.464   5.807
 4052W        W 4917   2.938   6.808   5.515
 4053W        W 4918   2.157   6.610   3.943
 4054W        W 4919   0.167   6.502   6.785
 4055W        W 4920   0.910   4.494   6.023
 4056W        W 4921   0.880   3.842   5.133
 4057W        W 4922   2.501   4.684   5.825
 4058W        W 4923   1.299   5.855   4.025
 4059W        W 4924   3.297   5.797   5.524
 4060W        W 4925   0.624   6.555   6.947
 4061W        W 4926   3.011   7.237   4.744
 4062W        W 4927   1.110   4.257   5.189
 4063W        W 4928   0.879   5.750   5.279
 4064W        W 4929   1.192   7.161   6.029
 4065W        W 4930   3.259   7.257   7.061
 4066W        W 4931   2.418   5.445   5.994
 4067W        W 4932   0.267   5.243   3.909
 4068W        W 4933   3.401   6.901   4.606
 4069W        W 4934   3.238   4.225   4.225
 4070W        W 4935   1.377   3.744   6.628
 4071W        W 4936   3.083   6.546   5.086
 4072W        W 4937   3.112   5.102   4.991
 4073W        W 4938   1.229   4.775   5.207
 4074W        W 4939   1.474   5.037   6.531
 4075W        W 4940   2.585   6.190   6.394
 4076W        W 4941   1.235   4.644   6.506
 4077W        W 4942   1.214   7.110   5.122
 4078W        W 4943   0.531   7.069   6.756
 4079W        W 4944   0.643   6.430   3.886
 4080W        W 4945   3.160   6.188   4.696
 4081W        W 4946   0.764   4.980   6.582
 4082W        W 4947   3.537   4.910   4.063
 4083W        W 4948   1.282   5.967   4.534
 4084W        W 4949   2.381   5.349   6.615
 4085W        W 4950   2.272   4.977   6.159
 4086W        W 4951   0.832   5.349   6.188
 4087W        W 4952   3.042   7.237   6.017
 4088W        W 4953   2.833   3.871   7.011
 4089W        W 4954   0.497   4.021   6.598
 4090W        W 4955   0.836   5.044   5.651
 4091W        W 4956   1.205   4.858   3.773
 4092W        W 4957   0.008   6.617   6.318
 4093W        W 4958   1.593   5.326   5.761
 4094W        W 4959   1.416   4.351   3.866
 4095W        W 4960   0.551   5.167   4.647
 4096W        W 4961   0.322   7.019   6.084
 4097W        W 4962   3.117   5.245   4.192
 4098W        W 4963   3.212   4.161   6.878
 4099W        W 4964   2.648   6.370   4.841
 4100W        W 4965   0.246   5.294   7.018
 4101W        W 4966   3.212   3.758   4.314
 4102W        W 4967   2.732   6.233   4.325
 4103W        W 4968   1.634   5.291   4.410
 4104W        W 4969   2.821   4.095   3.933
 4105W        W 4970   2.886   4.702   6.119
 4106W        W 4971   0.595   5.295   5.326
 4107W        W 4972   0.889   6.234   4.975
 4108W        W 4973   2.652   4.854   4.940
 4109W        W 4974   1.675   4.233   5.636
 4110W        W 4975   3.637   6.144   6.147
 4111W        W 4976   3.555   4.131   5.708
 4112W        W 4977   0.094   6.961   5.084
 4113W        W 4978   0.603   6.148   4.620
 4114W        W 4979   0.518   3.765   7.173
 4115W        W 4980   1.637   6.618   7.275
 4116W        W 4981   3.392   5.586   5.065
 4117W        W 4982   2.746   5.763   3.945
 4118W        W 4983   2.041   7.284   6.157
 4119W        W 4984   2.898   6.006   7.194
 4120W        W 4985   1.713   3.716   4.474
 4121W        W 4986   2.426   4.585   5.333
 4122W        W 4987   0.112   6.172   5.665
 4123W        W 4988   1.365   4.134   4.306
 4124W        W 4989   1.169   5.618   7.155
 4125W        W 4990   2.163   4.599   4.869
 4126W        W 4991   2.368   6.009   5.991
 4127W        W 4992   0.522   6.614   6.426
 4128W        W 4993   1.113   6.597   7.149
 4129W        W 4994   0.964   4.394   4.163
 4130W        W 4995   2.481   4.536   4.488
 4131W        W 4996   2.439   6.644   6.725
 4132W        W 4997   1.124   5.236   5.324
 4133W        W 4998   0.779   6.934   6.189
 4134W        W 4999   3.524   7.051   3.790
 4135W        W 5000   0.387   5.723   6.786
 4136W        W 5001   2.382   5.985   5.474
 4137W        W 5002   0.818   5.634   4.716
 4138W        W 5003   1.189   6.641   6.111
 4139W        W 5004   1.567   4.060   5.152
 4140W        W 5005   0.178   6.044   4.082
 4141W        W 5006   1.697   4.995   3.952
 4142W        W 5007   0.343   5.544   4.971
 4143W        W 5008   1.633   4.186   6.435
 4144W        W 5009   3.305   3.895   3.862
 4145W        W 5010   3.398   5.641   6.961
 4146W        W 5011   2.052   6.898   7.113
 4147W        W 5012   3.610   5.992   6.635
 4148W        W 5013   3.018   6.790   7.246
 4149W        W 5014   0.757   7.246   5.724
 4150W        W 5015   3.616   5.868   4.598
 4151W        W 5016   2.146   5.135   5.111
 4152W        W 5017   1.913   3.747   5.001
 4153W        W 5018   0.972   6.731   4.838
 4154W        W 5019   1.471   4.472   6.063
 4155W        W 5020   1.171   3.841   5.532
 4156W        W 5021   0.234   6.663   4.080
 4157W        W 5022   2.050   6.027   4.798
 4158W        W 5023   0.925   6.822   6.677
 4159W        W 5024   0.402   5.645   4.373
 4160W        W 5025   0.287   4.188   5.372
 4161W        W 5026   1.835   6.153   5.429
 4162W        W 5027   0.087   4.007   4.449
 4163W        W 5028   2.751   5.213   6.376
 4164W        W 5029   2.628   4.599   3.948
 4165W        W 5030   3.145   6.271   5.596
 4166W        W 5031   1.806   6.755   5.427
 4167W        W 5032   1.218   6.859   4.338
 4168W        W 5033   2.500   3.762   3.768
 4169W        W 5034   0.300   7.022   5.509
 4170W        W 5035   2.497   4.780   7.144
 4171W        W 5036   0.480   4.310   7.143
 4172W        W 5037   0.211   4.910   4.476
 4173W        W 5038   0.902   4.899   4.201
 4174W        W 5039   2.665   5.226   7.018
 4175W        W 5040   1.008   5.507   5.727
 4176W        W 5041   2.482   3.793   4.847
 4177W        W 5042   1.613   7.224   5.350
 4178W        W 5043   2.827   6.686   6.287
 4179W        W 5044   2.411   6.835   5.398
 4180W        W 5045   2.430   5.815   4.992
 4181W        W 5046   1.892   4.040   4.063
 4182W        W 5047   3.573   3.668   4.785
 4183W        W 5048   1.261   5.303   3.948
 4184W        W 5049   3.427   4.640   4.938
 4185W        W 5050   2.119   5.810   3.815
 4186W        W 5051   3.055   6.010   6.563
 4187W        W 5052   2.709   6.711   4.030
 4188W        W 5053   1.324   4.386   6.936
 4189W        W 5054   1.144   4.970   6.177
 4190W        W 5055   3.236   6.465   6.454
 4191W        W 5056   2.336   4.415   6.831
 4192W        W 5057   0.180   4.886   6.608
 4193W        W 5058   1.940   5.363   6.334
 4194W        W 5059   0.297   6.121   4.991
 4195W        W 5060   0.444   5.418   5.881
 4196W        W 5061   2.761   5.704   6.231
 4197W        W 5062   2.533   7.084   7.042
 4198W        W 5063   2.429   4.823   6.595
 4199W        W 5064   2.706   6.877   5.000
 4200W        W 5065   1.708   6.597   6.323
 4201W        W 5066   1.193   6.952   5.592
 4202W        W 5067   2.998   6.123   6.011
 4203W        W 5068   2.048   6.195   7.148
 4204W        W 5069   0.653   6.148   5.487
 4205W        W 5070   2.999   5.907   5.132
 4206W        W 5071   2.640   6.973   5.883
 4207W        W 5072   0.618   6.702   5.753
 4208W        W 5073   1.639   4.754   6.963
 4209W        W 5074   2.090   6.920   4.474
 4210W        W 5075   1.398   6.175   7.112
 4211W        W 5076   1.524   6.413   4.489
 4212W        W 5077   0.745   5.153   3.748
 4213W        W 5078   0.084   7.239  10.648
 4214W        W 5079   0.460   6.132  10.171
 4215W        W 5080   3.165   5.862   7.941
 4216W        W 5081   3.295   6.947   9.968
 4217W        W 5082   1.213   6.938   7.494
 4218W        W 5083   1.296   5.090   8.477
 4219W        W 5084   0.811   4.938   8.641
 4220W        W 5085   1.802   5.753   8.075
 4221W        W 5086   1.477   6.845  10.430
 4222W        W 5087   0.126   4.406  10.393
 4223W        W 5088   0.888   3.686  10.195
 4224W        W 5089   2.582   4.074   9.082
 4225W        W 5090   2.231   4.945   7.652
 4226W        W 5091   2.801   4.379  10.743
 4227W        W 5092   0.167   4.171   9.868
 4228W        W 5093   0.266   6.790  10.889
 4229W        W 5094   1.788   6.180   7.621
 4230W        W 5095   0.220   4.963   9.314
 4231W        W 5096   1.113   4.854  10.551
 4232W        W 5097   3.572   4.713   9.050
 4233W        W 5098   3.336   5.756   9.909
 4234W        W 5099   1.644   5.089   8.936
 4235W        W 5100   2.190   6.428   9.305
 4236W        W 5101   0.690   5.862   9.537
 4237W        W 5102   0.049   5.390   9.108
 4238W        W 5103   1.085   5.362  10.300
 4239W        W 5104   3.356   5.145  10.554
 4240W        W 5105   0.972   6.589   8.999
 4241W        W 5106   2.093   6.278  10.133
 4242W        W 5107   1.313   4.918   9.358
 4243W        W 5108   1.605   5.702   9.001
 4244W        W 5109   2.602   6.475  10.849
 4245W        W 5110   1.681   5.795  10.859
 4246W        W 5111   1.662   5.511  10.337
 4247W        W 5112   0.071   4.902  10.859
 4248W        W 5113   2.903   6.437  10.458
 4249W        W 5114   0.484   4.019   8.456
 4250W        W 5115   1.011   6.277   9.455
 4251W        W 5116   3.474   6.060   8.745
 4252W        W 5117   2.887   4.460   9.312
 4253W        W 5118   3.172   4.413   7.407
 4254W        W 5119   3.637   5.214   9.713
 4255W        W 5120   1.604   6.921   9.466
 4256W        W 5121   3.378   6.387   7.904
 4257W        W 5122   0.507   7.173   7.658
 4258W        W 5123   0.900   7.219   8.334
 4259W        W 5124   0.697   3.973   9.760
 4260W        W 5125   3.320   4.991  10.035
 4261W        W 5126   2.725   5.413   8.494
 4262W        W 5127   2.691   5.101   7.521
 4263W        W 5128   1.899   6.245   9.661
 4264W        W 5129   1.705   4.575   8.860
 4265W        W 5130   2.305   6.662   9.854
 4266W        W 5131   3.176   5.453   8.276
 4267W        W 5132   2.078   4.111   8.292
 4268W        W 5133   0.735   6.805   7.975
 4269W        W 5134   0.106   4.304   8.574
 4270W        W 5135   2.892   4.911   9.048
 4271W        W 5136   0.350   6.528   8.963
 4272W        W 5137   1.691   6.878   7.833
 4273W        W 5138   3.083   4.904   7.297
 4274W        W 5139   0.106   6.662   9.461
 4275W        W 5140   0.897   6.234   9.941
 4276W        W 5141   1.270   5.594   8.560
 4277W        W 5142   1.292   3.999   9.653
 4278W        W 5143   3.521   3.761   8.950
 4279W        W 5144   0.740   5.633   7.418
 4280W        W 5145   0.395   4.666   7.597
 4281W        W 5146   0.457   6.622   8.391
 4282W        W 5147   1.588   6.105   8.639
 4283W        W 5148   2.920   6.964  10.353
 4284W        W 5149   1.846   4.606   8.037
 4285W        W 5150   3.229   7.004   8.809
 4286W        W 5151   2.906   4.857  10.407
 4287W        W 5152   3.619   6.513   8.541
 4288W        W 5153   2.246   5.805  10.025
 4289W        W 5154   0.012   5.356   8.231
 4290W        W 5155   1.123   5.771   9.804
 4291W        W 5156   2.327   5.035   8.182
 4292W        W 5157   2.204   5.525   8.286
 4293W        W 5158   0.547   4.945   9.760
 4294W        W 5159   0.532   4.821  10.682
 4295W        W 5160   0.422   3.738   8.841
 4296W        W 5161   2.190   4.085   9.402
 4297W        W 5162   1.838   4.270  10.565
 4298W        W 5163   2.193   4.419   7.743
 4299W        W 5164   3.376   6.812  10.497
 4300W        W 5165   2.343   3.893  10.536
 4301W        W 5166   3.362   6.194  10.658
 4302W        W 5167   2.792   4.361  10.254
 4303W        W 5168   2.592   4.299   8.524
 4304W        W 5169   2.985   5.433  10.928
 4305W        W 5170   0.725   7.009   8.914
 4306W        W 5171   1.383   4.726   7.900
 4307W        W 5172   0.952   4.010  10.564
 4308W        W 5173   3.004   4.494   8.245
 4309W        W 5174   3.371   4.976   8.190
 4310W        W 5175   1.114   7.193  10.661
 4311W        W 5176   1.040   3.729   7.896
 4312W        W 5177   3.361   4.263   8.931
 4313W        W 5178   3.511   6.512   7.376
 4314W        W 5179   0.418   5.715   9.078
 4315W        W 5180   2.335   4.302   7.308
 4316W        W 5181   3.469   6.634   9.028
 4317W        W 5182   3.508   3.828   9.778
 4318W        W 5183   1.953   5.040  10.332
 4319W        W 5184   2.046   6.379   8.035
 4320W        W 5185   2.446   5.673  10.775
 4321W        W 5186   2.120   3.650   9.084
 4322W        W 5187   0.732   4.553   9.147
 4323W        W 5188   0.286   5.753   9.921
 4324W        W 5189   2.145   6.946   8.627
 4325W        W 5190   3.339   4.543   9.499
 4326W        W 5191   1.976   6.890  10.266
 4327W        W 5192   3.319   5.949   7.471
 4328W        W 5193   1.754   5.432   8.532
 4329W        W 5194   3.606   3.943  10.273
 4330W        W 5195   1.755   5.778   9.867
 4331W        W 5196   1.972   4.664   9.312
 4332W        W 5197   2.824   4.962   8.150
 4333W        W 5198   3.111   4.695   7.792
 4334W        W 5199   2.920   6.735   8.181
 4335W        W 5200   2.754   6.338   8.977
 4336W        W 5201   2.650   5.417   7.955
 4337W        W 5202   2.083   5.627   8.941
 4338W        W 5203   2.964   5.415   9.008
 4339W        W 5204   0.339   4.430   9.432
 4340W        W 5205   3.117   5.482  10.259
 4341W        W 5206   3.468   7.100   9.405
 4342W        W 5207   1.398   6.544   8.807
 4343W        W 5208   2.405   7.077  10.131
 4344W        W 5209   2.399   4.407   9.895
 4345W        W 5210   1.606   7.115   9.956
 4346W        W 5211   3.303   4.069   8.422
 4347W        W 5212   3.094   5.388   9.723
 4348W        W 5213   0.077   4.709   9.761
 4349W        W 5214   2.937   4.504   8.779
 4350W        W 5215   3.348   4.655  10.556
 4351W        W 5216   2.233   6.354   8.774
 4352W        W 5217   1.489   6.945   8.387
 4353W        W 5218   0.604   4.125   7.645
 4354W        W 5219   1.708   3.779   9.455
 4355W        W 5220   0.736   6.899   7.303
 4356W        W 5221   1.110   5.365   8.054
 4357W        W 5222   1.764   5.994  10.367
 4358W        W 5223   1.594   4.352   8.357
 4359W        W 5224   2.950   3.949   8.785
 4360W        W 5225   2.670   7.231   9.113
 4361W        W 5226   2.082   6.879   9.453
 4362W        W 5227   1.478   5.916   9.414
 4363W        W 5228   3.248   6.639   9.540
 4364W        W 5229   0.942   4.142   8.309
 4365W        W 5230   1.464   6.439   9.269
 4366W        W 5231   0.947   4.370   7.334
 4367W        W 5232   1.748   4.979   9.728
 4368W        W 5233   2.596   3.845   9.598
 4369W        W 5234   0.016   5.688   9.483
 4370W        W 5235   1.720   5.506   7.641
 4371W        W 5236   0.988   3.821   7.411
 4372W        W 5237   1.726   4.902   8.462
 4373W        W 5238   2.696   3.878  10.161
 4374W        W 5239   1.284   5.890  10.270
 4375W        W 5240   2.088   5.672  10.487
 4376W        W 5241   2.705   5.702  10.380
 4377W        W 5242   1.989   3.842  10.885
 4378W        W 5243   1.211   4.458   9.278
 4379W        W 5244   0.637   4.414   8.676
 4380W        W 5245   0.423   7.126   8.352
 4381W        W 5246   1.755   6.456  10.477
 4382W        W 5247   0.790   5.941   7.836
 4383W        W 5248   2.470   5.326   9.057
 4384W        W 5249   2.750   5.125   9.456
 4385W        W 5250   1.955   5.799   9.390
 4386W        W 5251   2.425   6.173   7.522
 4387W        W 5252   2.097   4.194   8.850
 4388W        W 5253   3.576   4.472   8.118
 4389W        W 5254   0.070   7.061  10.149
 4390W        W 5255   0.487   6.287   9.681
 4391W        W 5256   0.054   7.133   7.913
 4392W        W 5257   1.953   4.403   9.719
 4393W        W 5258   1.316   6.426   7.568
 4394W        W 5259   3.221   6.808   7.754
 4395W        W 5260   2.196   5.461   7.768
 4396W        W 5261   1.039   4.652   8.285
 4397W        W 5262   1.871   4.562   7.337
 4398W        W 5263   2.455   6.127  10.515
 4399W        W 5264   2.808   4.033   8.132
 4400W        W 5265   0.138   3.881   7.580
 4401W        W 5266   1.424   6.200   9.870
 4402W        W 5267   1.223   6.116   8.962
 4403W        W 5268   0.965   6.068   7.360
 4404W        W 5269   0.206   6.309   8.128
 4405W        W 5270   0.710   5.379  10.570
 4406W        W 5271   1.414   3.939  10.756
 4407W        W 5272   2.123   4.081  10.112
 4408W        W 5273   1.318   3.849   8.393
 4409W        W 5274   2.377   3.926   7.898
 4410W        W 5275   0.322   3.858   9.475
 4411W        W 5276   0.370   4.821   8.845
 4412W        W 5277   3.059   3.929   9.251
 4413W        W 5278   0.481   4.427   8.065
 4414W        W 5279   3.052   4.115   9.681
 4415W        W 5280   3.448   5.318   7.366
 4416W        W 5281   0.740   4.076   9.185
 4417W        W 5282   1.854   4.648  10.125
 4418W        W 5283   0.002   4.338   7.603
 4419W        W 5284   0.788   5.727  10.164
 4420W        W 5285   2.146   5.125   9.343
 4421W        W 5286   2.013   7.204   7.639
 4422W        W 5287   0.159   5.711   7.336
 4423W        W 5288   0.894   6.122  10.462
 4424W        W 5289   0.415   5.289  10.093
 4425W        W 5290   1.406   5.394   9.887
 4426W        W 5291   3.174   3.753  10.149
 4427W        W 5292   3.572   5.363  10.140
 4428W        W 5293   3.560   5.563   7.826
 4429W        W 5294   2.423   5.895   7.925
 4430W        W 5295   2.897   7.195   7.620
 4431W        W 5296   2.074   5.185  10.762
 4432W        W 5297   0.404   6.152  10.802
 4433W        W 5298   3.610   4.074  10.754
 4434W        W 5299   3.328   5.002   9.375
 4435W        W 5300   1.636   7.132  10.852
 4436W        W 5301   1.491   3.761   7.579
 4437W        W 5302   3.030   6.360   7.522
 4438W        W 5303   0.799   4.453  10.408
 4439W        W 5304   1.233   6.447  10.270
 4440W        W 5305   3.359   4.438  10.068
 4441W        W 5306   2.570   7.097   8.036
 4442W        W 5307   2.809   5.716   9.403
 4443W        W 5308   1.059   4.132  10.070
 4444W        W 5309   1.528   5.201  10.827
 4445W        W 5310   1.031   6.380   8.021
 4446W        W 5311   2.786   5.878   8.285
 4447W        W 5312   0.554   4.504  10.009
 4448W        W 5313   1.883   6.566   8.473
 4449W        W 5314   3.633   5.126   8.654
 4450W        W 5315   1.855   3.759  10.373
 4451W        W 5316   2.635   6.464   9.452
 4452W        W 5317   2.938   6.808   9.160
 4453W        W 5318   2.157   6.610   7.588
 4454W        W 5319   0.167   6.502  10.430
 4455W        W 5320   0.910   4.494   9.668
 4456W        W 5321   0.880   3.842   8.778
 4457W        W 5322   2.501   4.684   9.470
 4458W        W 5323   1.299   5.855   7.670
 4459W        W 5324   3.297   5.797   9.169
 4460W        W 5325   0.624   6.555  10.592
 4461W        W 5326   3.011   7.237   8.389
 4462W        W 5327   1.110   4.257   8.834
 4463W        W 5328   0.879   5.750   8.924
 4464W        W 5329   1.192   7.161   9.674
 4465W        W 5330   3.259   7.257  10.706
 4466W        W 5331   2.418   5.445   9.639
 4467W        W 5332   0.267   5.243   7.554
 4468W        W 5333   3.401   6.901   8.251
 4469W        W 5334   3.238   4.225   7.870
 4470W        W 5335   1.377   3.744  10.273
 4471W        W 5336   3.083   6.546   8.731
 4472W        W 5337   3.112   5.102   8.636
 4473W        W 5338   1.229   4.775   8.852
 4474W        W 5339   1.474   5.037  10.176
 4475W        W 5340   2.585   6.190  10.039
 4476W        W 5341   1.235   4.644  10.151
 4477W        W 5342   1.214   7.110   8.767
 4478W        W 5343   0.531   7.069  10.401
 4479W        W 5344   0.643   6.430   7.531
 4480W        W 5345   3.160   6.188   8.341
 4481W        W 5346   0.764   4.980  10.227
 4482W        W 5347   3.537   4.910   7.708
 4483W        W 5348   1.282   5.967   8.179
 4484W        W 5349   2.381   5.349  10.260
 4485W        W 5350   2.272   4.977   9.804
 4486W        W 5351   0.832   5.349   9.833
 4487W        W 5352   3.042   7.237   9.662
 4488W        W 5353   2.833   3.871  10.656
 4489W        W 5354   0.497   4.021  10.243
 4490W        W 5355   0.836   5.044   9.296
 4491W        W 5356   1.205   4.858   7.418
 4492W        W 5357   0.008   6.617   9.963
 4493W        W 5358   1.593   5.326   9.406
 4494W        W 5359   1.416   4.351   7.511
 4495W        W 5360   0.551   5.167   8.292
 4496W        W 5361   0.322   7.019   9.729
 4497W        W 5362   3.117   5.245   7.837
 4498W        W 5363   3.212   4.161  10.523
 4499W        W 5364   2.648   6.370   8.486
 4500W        W 5365   0.246   5.294  10.663
 4501W        W 5366   3.212   3.758   7.959
 4502W        W 5367   2.732   6.233   7.970
 4503W        W 5368   1.634   5.291   8.055
 4504W        W 5369   2.821   4.095   7.578
 4505W        W 5370   2.886   4.702   9.764
 4506W        W 5371   0.595   5.295   8.971
 4507W        W 5372   0.889   6.234   8.620
 4508W        W 5373   2.652   4.854   8.585
 4509W        W 5374   1.675   4.233   9.281
 4510W        W 5375   3.637   6.144   9.792
 4511W        W 5376   3.555   4.131   9.353
 4512W        W 5377   0.094   6.961   8.729
 4513W        W 5378   0.603   6.148   8.265
 4514W        W 5379   0.518   3.765  10.818
 4515W        W 5380   1.637   6.618  10.920
 4516W        W 5381   3.392   5.586   8.710
 4517W        W 5382   2.746   5.763   7.590
 4518W        W 5383   2.041   7.284   9.802
 4519W        W 5384   2.898   6.006  10.839
 4520W        W 5385   1.713   3.716   8.119
 4521W        W 5386   2.426   4.585   8.978
 4522W        W 5387   0.112   6.172   9.310
 4523W        W 5388   1.365   4.134   7.951
 4524W        W 5389   1.169   5.618  10.800
 4525W        W 5390   2.163   4.599   8.514
 4526W        W 5391   2.368   6.009   9.636
 4527W        W 5392   0.522   6.614  10.071
 4528W        W 5393   1.113   6.597  10.794
 4529W        W 5394   0.964   4.394   7.808
 4530W        W 5395   2.481   4.536   8.133
 4531W        W 5396   2.439   6.644  10.370
 4532W        W 5397   1.124   5.236   8.969
 4533W        W 5398   0.779   6.934   9.834
 4534W        W 5399   3.524   7.051   7.435
 4535W        W 5400   0.387   5.723  10.431
 4536W        W 5401   2.382   5.985   9.119
 4537W        W 5402   0.818   5.634   8.361
 4538W        W 5403   1.189   6.641   9.756
 4539W        W 5404   1.567   4.060   8.797
 4540W        W 5405   0.178   6.044   7.727
 4541W        W 5406   1.697   4.995   7.597
 4542W        W 5407   0.343   5.544   8.616
 4543W        W 5408   1.633   4.186  10.080
 4544W        W 5409   3.305   3.895   7.507
 4545W        W 5410   3.398   5.641  10.606
 4546W        W 5411   2.052   6.898  10.758
 4547W        W 5412   3.610   5.992  10.280
 4548W        W 5413   3.018   6.790  10.891
 4549W        W 5414   0.757   7.246   9.369
 4550W        W 5415   3.616   5.868   8.243
 4551W        W 5416   2.146   5.135   8.756
 4552W        W 5417   1.913   3.747   8.646
 4553W        W 5418   0.972   6.731   8.483
 4554W        W 5419   1.471   4.472   9.708
 4555W        W 5420   1.171   3.841   9.177
 4556W        W 5421   0.234   6.663   7.725
 4557W        W 5422   2.050   6.027   8.443
 4558W        W 5423   0.925   6.822  10.322
 4559W        W 5424   0.402   5.645   8.018
 4560W        W 5425   0.287   4.188   9.017
 4561W        W 5426   1.835   6.153   9.074
 4562W        W 5427   0.087   4.007   8.094
 4563W        W 5428   2.751   5.213  10.021
 4564W        W 5429   2.628   4.599   7.593
 4565W        W 5430   3.145   6.271   9.241
 4566W        W 5431   1.806   6.755   9.072
 4567W        W 5432   1.218   6.859   7.983
 4568W        W 5433   2.500   3.762   7.413
 4569W        W 5434   0.300   7.022   9.154
 4570W        W 5435   2.497   4.780  10.789
 4571W        W 5436   0.480   4.310  10.788
 4572W        W 5437   0.211   4.910   8.121
 4573W        W 5438   0.902   4.899   7.846
 4574W        W 5439   2.665   5.226  10.663
 4575W        W 5440   1.008   5.507   9.372
 4576W        W 5441   2.482   3.793   8.492
 4577W        W 5442   1.613   7.224   8.995
 4578W        W 5443   2.827   6.686   9.932
 4579W        W 5444   2.411   6.835   9.043
 4580W        W 5445   2.430   5.815   8.637
 4581W        W 5446   1.892   4.040   7.708
 4582W        W 5447   3.573   3.668   8.430
 4583W        W 5448   1.261   5.303   7.593
 4584W        W 5449   3.427   4.640   8.583
 4585W        W 5450   2.119   5.810   7.460
 4586W        W 5451   3.055   6.010  10.208
 4587W        W 5452   2.709   6.711   7.675
 4588W        W 5453   1.324   4.386  10.581
 4589W        W 5454   1.144   4.970   9.822
 4590W        W 5455   3.236   6.465  10.099
 4591W        W 5456   2.336   4.415  10.476
 4592W        W 5457   0.180   4.886  10.253
 4593W        W 5458   1.940   5.363   9.979
 4594W        W 5459   0.297   6.121   8.636
 4595W        W 5460   0.444   5.418   9.526
 4596W        W 5461   2.761   5.704   9.876
 4597W        W 5462   2.533   7.084  10.687
 4598W        W 5463   2.429   4.823  10.240
 4599W        W 5464   2.706   6.877   8.645
 4600W        W 5465   1.708   6.597   9.968
 4601W        W 5466   1.193   6.952   9.237
 4602W        W 5467   2.998   6.123   9.656
 4603W        W 5468   2.048   6.195  10.793
 4604W        W 5469   0.653   6.148   9.132
 4605W        W 5470   2.999   5.907   8.777
 4606W        W 5471   2.640   6.973   9.528
 4607W        W 5472   0.618   6.702   9.398
 4608W        W 5473   1.639   4.754  10.608
 4609W        W 5474   2.090   6.920   8.119
 4610W        W 5475   1.398   6.175  10.757
 4611W        W 5476   1.524   6.413   8.134
 4612W        W 5477   0.745   5.153   7.393
 4613W        W 5478   0.084   7.239  14.292
 4614W        W 5479   0.460   6.132  13.815
 4615W        W 5480   3.165   5.862  11.585
 4616W        W 5481   3.295   6.947  13.612
 4617W        W 5482   1.213   6.938  11.138
 4618W        W 5483   1.296   5.090  12.121
 4619W        W 5484   0.811   4.938  12.285
 4620W        W 5485   1.802   5.753  11.719
 4621W        W 5486   1.477   6.845  14.074
 4622W        W 5487   0.126   4.406  14.037
 4623W        W 5488   0.888   3.686  13.839
 4624W        W 5489   2.582   4.074  12.726
 4625W        W 5490   2.231   4.945  11.296
 4626W        W 5491   2.801   4.379  14.387
 4627W        W 5492   0.167   4.171  13.512
 4628W        W 5493   0.266   6.790  14.533
 4629W        W 5494   1.788   6.180  11.265
 4630W        W 5495   0.220   4.963  12.958
 4631W        W 5496   1.113   4.854  14.195
 4632W        W 5497   3.572   4.713  12.694
 4633W        W 5498   3.336   5.756  13.553
 4634W        W 5499   1.644   5.089  12.580
 4635W        W 5500   2.190   6.428  12.949
 4636W        W 5501   0.690   5.862  13.181
 4637W        W 5502   0.049   5.390  12.752
 4638W        W 5503   1.085   5.362  13.944
 4639W        W 5504   3.356   5.145  14.198
 4640W        W 5505   0.972   6.589  12.643
 4641W        W 5506   2.093   6.278  13.777
 4642W        W 5507   1.313   4.918  13.002
 4643W        W 5508   1.605   5.702  12.645
 4644W        W 5509   2.602   6.475  14.493
 4645W        W 5510   1.681   5.795  14.503
 4646W        W 5511   1.662   5.511  13.981
 4647W        W 5512   0.071   4.902  14.503
 4648W        W 5513   2.903   6.437  14.102
 4649W        W 5514   0.484   4.019  12.100
 4650W        W 5515   1.011   6.277  13.099
 4651W        W 5516   3.474   6.060  12.389
 4652W        W 5517   2.887   4.460  12.956
 4653W        W 5518   3.172   4.413  11.051
 4654W        W 5519   3.637   5.214  13.357
 4655W        W 5520   1.604   6.921  13.110
 4656W        W 5521   3.378   6.387  11.548
 4657W        W 5522   0.507   7.173  11.302
 4658W        W 5523   0.900   7.219  11.978
 4659W        W 5524   3.320   4.991  13.679
 4660W        W 5525   2.725   5.413  12.138
 4661W        W 5526   2.691   5.101  11.165
 4662W        W 5527   1.899   6.245  13.305
 4663W        W 5528   1.705   4.575  12.504
 4664W        W 5529   2.305   6.662  13.498
 4665W        W 5530   3.176   5.453  11.920
 4666W        W 5531   2.078   4.111  11.936
 4667W        W 5532   0.735   6.805  11.619
 4668W        W 5533   0.106   4.304  12.218
 4669W        W 5534   2.892   4.911  12.692
 4670W        W 5535   0.350   6.528  12.607
 4671W        W 5536   1.691   6.878  11.477
 4672W        W 5537   3.083   4.904  10.941
 4673W        W 5538   0.106   6.662  13.105
 4674W        W 5539   0.897   6.234  13.585
 4675W        W 5540   1.270   5.594  12.204
 4676W        W 5541   1.292   3.999  13.297
 4677W        W 5542   3.521   3.761  12.594
 4678W        W 5543   0.740   5.633  11.062
 4679W        W 5544   0.395   4.666  11.241
 4680W        W 5545   0.457   6.622  12.035
 4681W        W 5546   1.588   6.105  12.283
 4682W        W 5547   2.920   6.964  13.997
 4683W        W 5548   1.846   4.606  11.681
 4684W        W 5549   3.229   7.004  12.453
 4685W        W 5550   2.906   4.857  14.051
 4686W        W 5551   3.619   6.513  12.185
 4687W        W 5552   2.246   5.805  13.669
 4688W        W 5553   0.012   5.356  11.875
 4689W        W 5554   1.123   5.771  13.448
 4690W        W 5555   2.327   5.035  11.826
 4691W        W 5556   2.204   5.525  11.930
 4692W        W 5557   0.547   4.945  13.404
 4693W        W 5558   0.532   4.821  14.326
 4694W        W 5559   0.422   3.738  12.485
 4695W        W 5560   2.190   4.085  13.046
 4696W        W 5561   1.838   4.270  14.209
 4697W        W 5562   2.193   4.419  11.387
 4698W        W 5563   3.376   6.812  14.141
 4699W        W 5564   2.343   3.893  14.180
 4700W        W 5565   3.362   6.194  14.302
 4701W        W 5566   2.792   4.361  13.898
 4702W        W 5567   2.592   4.299  12.168
 4703W        W 5568   2.985   5.433  14.572
 4704W        W 5569   0.725   7.009  12.558
 4705W        W 5570   1.383   4.726  11.544
 4706W        W 5571   0.952   4.010  14.208
 4707W        W 5572   3.004   4.494  11.889
 4708W        W 5573   3.371   4.976  11.834
 4709W        W 5574   1.114   7.193  14.305
 4710W        W 5575   1.040   3.729  11.540
 4711W        W 5576   3.361   4.263  12.575
 4712W        W 5577   3.511   6.512  11.020
 4713W        W 5578   0.418   5.715  12.722
 4714W        W 5579   2.335   4.302  10.952
 4715W        W 5580   3.469   6.634  12.672
 4716W        W 5581   3.508   3.828  13.422
 4717W        W 5582   1.953   5.040  13.976
 4718W        W 5583   2.046   6.379  11.679
 4719W        W 5584   2.446   5.673  14.419
 4720W        W 5585   2.120   3.650  12.728
 4721W        W 5586   0.732   4.553  12.791
 4722W        W 5587   0.286   5.753  13.565
 4723W        W 5588   2.145   6.946  12.271
 4724W        W 5589   3.339   4.543  13.143
 4725W        W 5590   1.976   6.890  13.910
 4726W        W 5591   3.319   5.949  11.115
 4727W        W 5592   1.754   5.432  12.176
 4728W        W 5593   3.606   3.943  13.917
 4729W        W 5594   1.755   5.778  13.511
 4730W        W 5595   1.972   4.664  12.956
 4731W        W 5596   2.824   4.962  11.794
 4732W        W 5597   3.111   4.695  11.436
 4733W        W 5598   2.920   6.735  11.825
 4734W        W 5599   2.754   6.338  12.621
 4735W        W 5600   2.650   5.417  11.599
 4736W        W 5601   2.083   5.627  12.585
 4737W        W 5602   2.964   5.415  12.652
 4738W        W 5603   0.339   4.430  13.076
 4739W        W 5604   3.117   5.482  13.903
 4740W        W 5605   3.468   7.100  13.049
 4741W        W 5606   1.398   6.544  12.451
 4742W        W 5607   2.405   7.077  13.775
 4743W        W 5608   2.399   4.407  13.539
 4744W        W 5609   1.606   7.115  13.600
 4745W        W 5610   3.303   4.069  12.066
 4746W        W 5611   3.094   5.388  13.367
 4747W        W 5612   0.077   4.709  13.405
 4748W        W 5613   2.937   4.504  12.423
 4749W        W 5614   3.348   4.655  14.200
 4750W        W 5615   2.233   6.354  12.418
 4751W        W 5616   1.489   6.945  12.031
 4752W        W 5617   0.604   4.125  11.289
 4753W        W 5618   1.708   3.779  13.099
 4754W        W 5619   0.736   6.899  10.947
 4755W        W 5620   1.110   5.365  11.698
 4756W        W 5621   1.764   5.994  14.011
 4757W        W 5622   1.594   4.352  12.001
 4758W        W 5623   2.950   3.949  12.429
 4759W        W 5624   2.670   7.231  12.757
 4760W        W 5625   2.082   6.879  13.097
 4761W        W 5626   1.478   5.916  13.058
 4762W        W 5627   3.248   6.639  13.184
 4763W        W 5628   0.942   4.142  11.953
 4764W        W 5629   1.464   6.439  12.913
 4765W        W 5630   0.947   4.370  10.978
 4766W        W 5631   1.748   4.979  13.372
 4767W        W 5632   2.596   3.845  13.242
 4768W        W 5633   0.016   5.688  13.127
 4769W        W 5634   1.720   5.506  11.285
 4770W        W 5635   0.988   3.821  11.055
 4771W        W 5636   1.726   4.902  12.106
 4772W        W 5637   2.696   3.878  13.805
 4773W        W 5638   1.284   5.890  13.914
 4774W        W 5639   2.088   5.672  14.131
 4775W        W 5640   2.705   5.702  14.024
 4776W        W 5641   1.989   3.842  14.529
 4777W        W 5642   1.211   4.458  12.922
 4778W        W 5643   0.637   4.414  12.320
 4779W        W 5644   0.423   7.126  11.996
 4780W        W 5645   1.755   6.456  14.121
 4781W        W 5646   0.790   5.941  11.480
 4782W        W 5647   2.470   5.326  12.701
 4783W        W 5648   2.750   5.125  13.100
 4784W        W 5649   1.955   5.799  13.034
 4785W        W 5650   2.425   6.173  11.166
 4786W        W 5651   2.097   4.194  12.494
 4787W        W 5652   3.576   4.472  11.762
 4788W        W 5653   0.070   7.061  13.793
 4789W        W 5654   0.487   6.287  13.325
 4790W        W 5655   0.054   7.133  11.557
 4791W        W 5656   1.953   4.403  13.363
 4792W        W 5657   1.316   6.426  11.212
 4793W        W 5658   3.221   6.808  11.398
 4794W        W 5659   2.196   5.461  11.412
 4795W        W 5660   1.039   4.652  11.929
 4796W        W 5661   1.871   4.562  10.981
 4797W        W 5662   2.455   6.127  14.159
 4798W        W 5663   2.808   4.033  11.776
 4799W        W 5664   0.138   3.881  11.224
 4800W        W 5665   1.424   6.200  13.514
 4801W        W 5666   1.223   6.116  12.606
 4802W        W 5667   0.965   6.068  11.004
 4803W        W 5668   0.206   6.309  11.772
 4804W        W 5669   0.710   5.379  14.214
 4805W        W 5670   1.414   3.939  14.400
 4806W        W 5671   2.123   4.081  13.756
 4807W        W 5672   1.318   3.849  12.037
 4808W        W 5673   2.377   3.926  11.542
 4809W        W 5674   0.322   3.858  13.119
 4810W        W 5675   0.370   4.821  12.489
 4811W        W 5676   3.059   3.929  12.895
 4812W        W 5677   0.481   4.427  11.709
 4813W        W 5678   3.052   4.115  13.325
 4814W        W 5679   3.448   5.318  11.010
 4815W        W 5680   0.740   4.076  12.829
 4816W        W 5681   1.854   4.648  13.769
 4817W        W 5682   0.002   4.338  11.247
 4818W        W 5683   0.788   5.727  13.808
 4819W        W 5684   2.146   5.125  12.987
 4820W        W 5685   2.013   7.204  11.283
 4821W        W 5686   0.159   5.711  10.980
 4822W        W 5687   0.894   6.122  14.106
 4823W        W 5688   0.415   5.289  13.737
 4824W        W 5689   1.406   5.394  13.531
 4825W        W 5690   3.174   3.753  13.793
 4826W        W 5691   3.572   5.363  13.784
 4827W        W 5692   3.560   5.563  11.470
 4828W        W 5693   2.423   5.895  11.569
 4829W        W 5694   2.897   7.195  11.264
 4830W        W 5695   2.074   5.185  14.406
 4831W        W 5696   0.404   6.152  14.446
 4832W        W 5697   3.610   4.074  14.398
 4833W        W 5698   3.328   5.002  13.019
 4834W        W 5699   1.636   7.132  14.496
 4835W        W 5700   1.491   3.761  11.223
 4836W        W 5701   3.030   6.360  11.166
 4837W        W 5702   0.799   4.453  14.052
 4838W        W 5703   1.233   6.447  13.914
 4839W        W 5704   3.359   4.438  13.712
 4840W        W 5705   2.570   7.097  11.680
 4841W        W 5706   2.809   5.716  13.047
 4842W        W 5707   1.059   4.132  13.714
 4843W        W 5708   1.528   5.201  14.471
 4844W        W 5709   1.031   6.380  11.665
 4845W        W 5710   2.786   5.878  11.929
 4846W        W 5711   0.554   4.504  13.653
 4847W        W 5712   1.883   6.566  12.117
 4848W        W 5713   3.633   5.126  12.298
 4849W        W 5714   1.855   3.759  14.017
 4850W        W 5715   2.635   6.464  13.096
 4851W        W 5716   2.938   6.808  12.804
 4852W        W 5717   2.157   6.610  11.232
 4853W        W 5718   0.167   6.502  14.074
 4854W        W 5719   0.910   4.494  13.312
 4855W        W 5720   0.880   3.842  12.422
 4856W        W 5721   2.501   4.684  13.114
 4857W        W 5722   1.299   5.855  11.314
 4858W        W 5723   3.297   5.797  12.813
 4859W        W 5724   0.624   6.555  14.236
 4860W        W 5725   3.011   7.237  12.033
 4861W        W 5726   1.110   4.257  12.478
 4862W        W 5727   0.879   5.750  12.568
 4863W        W 5728   1.192   7.161  13.318
 4864W        W 5729   3.259   7.257  14.350
 4865W        W 5730   2.418   5.445  13.283
 4866W        W 5731   0.267   5.243  11.198
 4867W        W 5732   3.401   6.901  11.895
 4868W        W 5733   3.238   4.225  11.514
 4869W        W 5734   1.377   3.744  13.917
 4870W        W 5735   3.083   6.546  12.375
 4871W        W 5736   3.112   5.102  12.280
 4872W        W 5737   1.229   4.775  12.496
 4873W        W 5738   1.474   5.037  13.820
 4874W        W 5739   2.585   6.190  13.683
 4875W        W 5740   1.235   4.644  13.795
 4876W        W 5741   1.214   7.110  12.411
 4877W        W 5742   0.531   7.069  14.045
 4878W        W 5743   0.643   6.430  11.175
 4879W        W 5744   3.160   6.188  11.985
 4880W        W 5745   0.764   4.980  13.871
 4881W        W 5746   3.537   4.910  11.352
 4882W        W 5747   1.282   5.967  11.823
 4883W        W 5748   2.381   5.349  13.904
 4884W        W 5749   2.272   4.977  13.448
 4885W        W 5750   0.832   5.349  13.477
 4886W        W 5751   3.042   7.237  13.306
 4887W        W 5752   2.833   3.871  14.300
 4888W        W 5753   0.497   4.021  13.887
 4889W        W 5754   0.836   5.044  12.940
 4890W        W 5755   1.205   4.858  11.062
 4891W        W 5756   0.008   6.617  13.607
 4892W        W 5757   1.593   5.326  13.050
 4893W        W 5758   1.416   4.351  11.155
 4894W        W 5759   0.551   5.167  11.936
 4895W        W 5760   0.322   7.019  13.373
 4896W        W 5761   3.117   5.245  11.481
 4897W        W 5762   3.212   4.161  14.167
 4898W        W 5763   2.648   6.370  12.130
 4899W        W 5764   0.246   5.294  14.307
 4900W        W 5765   3.212   3.758  11.603
 4901W        W 5766   2.732   6.233  11.614
 4902W        W 5767   1.634   5.291  11.699
 4903W        W 5768   2.821   4.095  11.222
 4904W        W 5769   2.886   4.702  13.408
 4905W        W 5770   0.595   5.295  12.615
 4906W        W 5771   0.889   6.234  12.264
 4907W        W 5772   2.652   4.854  12.229
 4908W        W 5773   1.675   4.233  12.925
 4909W        W 5774   3.637   6.144  13.436
 4910W        W 5775   3.555   4.131  12.997
 4911W        W 5776   0.094   6.961  12.373
 4912W        W 5777   0.603   6.148  11.909
 4913W        W 5778   0.518   3.765  14.462
 4914W        W 5779   1.637   6.618  14.564
 4915W        W 5780   3.392   5.586  12.354
 4916W        W 5781   2.746   5.763  11.234
 4917W        W 5782   2.041   7.284  13.446
 4918W        W 5783   2.898   6.006  14.483
 4919W        W 5784   1.713   3.716  11.763
 4920W        W 5785   2.426   4.585  12.622
 4921W        W 5786   0.112   6.172  12.954
 4922W        W 5787   1.365   4.134  11.595
 4923W        W 5788   1.169   5.618  14.444
 4924W        W 5789   2.163   4.599  12.158
 4925W        W 5790   2.368   6.009  13.280
 4926W        W 5791   0.522   6.614  13.715
 4927W        W 5792   1.113   6.597  14.438
 4928W        W 5793   0.964   4.394  11.452
 4929W        W 5794   2.481   4.536  11.777
 4930W        W 5795   2.439   6.644  14.014
 4931W        W 5796   1.124   5.236  12.613
 4932W        W 5797   0.779   6.934  13.478
 4933W        W 5798   3.524   7.051  11.079
 4934W        W 5799   0.387   5.723  14.075
 4935W        W 5800   2.382   5.985  12.763
 4936W        W 5801   0.818   5.634  12.005
 4937W        W 5802   1.189   6.641  13.400
 4938W        W 5803   1.567   4.060  12.441
 4939W        W 5804   0.178   6.044  11.371
 4940W        W 5805   1.697   4.995  11.241
 4941W        W 5806   0.343   5.544  12.260
 4942W        W 5807   1.633   4.186  13.724
 4943W        W 5808   3.305   3.895  11.151
 4944W        W 5809   3.398   5.641  14.250
 4945W        W 5810   2.052   6.898  14.402
 4946W        W 5811   3.610   5.992  13.924
 4947W        W 5812   3.018   6.790  14.535
 4948W        W 5813   0.757   7.246  13.013
 4949W        W 5814   3.616   5.868  11.887
 4950W        W 5815   2.146   5.135  12.400
 4951W        W 5816   1.913   3.747  12.290
 4952W        W 5817   0.972   6.731  12.127
 4953W        W 5818   1.471   4.472  13.352
 4954W        W 5819   1.171   3.841  12.821
 4955W        W 5820   0.234   6.663  11.369
 4956W        W 5821   2.050   6.027  12.087
 4957W        W 5822   0.925   6.822  13.966
 4958W        W 5823   0.402   5.645  11.662
 4959W        W 5824   0.287   4.188  12.661
 4960W        W 5825   1.835   6.153  12.718
 4961W        W 5826   0.087   4.007  11.738
 4962W        W 5827   2.751   5.213  13.665
 4963W        W 5828   2.628   4.599  11.237
 4964W        W 5829   3.145   6.271  12.885
 4965W        W 5830   1.806   6.755  12.716
 4966W        W 5831   1.218   6.859  11.627
 4967W        W 5832   2.500   3.762  11.057
 4968W        W 5833   0.300   7.022  12.798
 4969W        W 5834   2.497   4.780  14.433
 4970W        W 5835   0.480   4.310  14.432
 4971W        W 5836   0.211   4.910  11.765
 4972W        W 5837   0.902   4.899  11.490
 4973W        W 5838   2.665   5.226  14.307
 4974W        W 5839   1.008   5.507  13.016
 4975W        W 5840   2.482   3.793  12.136
 4976W        W 5841   1.613   7.224  12.639
 4977W        W 5842   2.827   6.686  13.576
 4978W        W 5843   2.411   6.835  12.687
 4979W        W 5844   2.430   5.815  12.281
 4980W        W 5845   1.892   4.040  11.352
 4981W        W 5846   3.573   3.668  12.074
 4982W        W 5847   1.261   5.303  11.237
 4983W        W 5848   3.427   4.640  12.227
 4984W        W 5849   2.119   5.810  11.104
 4985W        W 5850   3.055   6.010  13.852
 4986W        W 5851   2.709   6.711  11.319
 4987W        W 5852   1.324   4.386  14.225
 4988W        W 5853   1.144   4.970  13.466
 4989W        W 5854   3.236   6.465  13.743
 4990W        W 5855   2.336   4.415  14.120
 4991W        W 5856   0.180   4.886  13.897
 4992W        W 5857   1.940   5.363  13.623
 4993W        W 5858   0.297   6.121  12.280
 4994W        W 5859   0.444   5.418  13.170
 4995W        W 5860   2.761   5.704  13.520
 4996W        W 5861   2.533   7.084  14.331
 4997W        W 5862   2.429   4.823  13.884
 4998W        W 5863   2.706   6.877  12.289
 4999W        W 5864   1.708   6.597  13.612
 5000W        W 5865   1.193   6.952  12.881
 5001W        W 5866   2.998   6.123  13.300
 5002W        W 5867   2.048   6.195  14.437
 5003W        W 5868   0.653   6.148  12.776
 5004W        W 5869   2.999   5.907  12.421
 5005W        W 5870   2.640   6.973  13.172
 5006W        W 5871   0.618   6.702  13.042
 5007W        W 5872   1.639   4.754  14.252
 5008W        W 5873   2.090   6.920  11.763
 5009W        W 5874   1.398   6.175  14.401
 5010W        W 5875   1.524   6.413  11.778
 5011W        W 5876   0.745   5.153  11.037
 5012W        W 5877   0.084   7.239  17.936
 5013W        W 5878   0.460   6.132  17.459
 5014W        W 5879   3.165   5.862  15.229
 5015W        W 5880   3.295   6.947  17.256
 5016W        W 5881   1.213   6.938  14.782
 5017W        W 5882   1.296   5.090  15.765
 5018W        W 5883   0.811   4.938  15.929
 5019W        W 5884   1.802   5.753  15.363
 5020W        W 5885   1.477   6.845  17.718
 5021W        W 5886   0.126   4.406  17.681
 5022W        W 5887   0.888   3.686  17.483
 5023W        W 5888   2.582   4.074  16.370
 5024W        W 5889   2.231   4.945  14.940
 5025W        W 5890   2.801   4.379  18.031
 5026W        W 5891   0.167   4.171  17.156
 5027W        W 5892   0.266   6.790  18.177
 5028W        W 5893   1.788   6.180  14.909
 5029W        W 5894   0.220   4.963  16.602
 5030W        W 5895   1.113   4.854  17.839
 5031W        W 5896   3.572   4.713  16.338
 5032W        W 5897   3.336   5.756  17.197
 5033W        W 5898   1.644   5.089  16.224
 5034W        W 5899   2.190   6.428  16.593
 5035W        W 5900   0.690   5.862  16.825
 5036W        W 5901   0.049   5.390  16.396
 5037W        W 5902   1.085   5.362  17.588
 5038W        W 5903   3.356   5.145  17.842
 5039W        W 5904   0.972   6.589  16.287
 5040W        W 5905   2.093   6.278  17.421
 5041W        W 5906   1.313   4.918  16.646
 5042W        W 5907   1.605   5.702  16.289
 5043W        W 5908   2.602   6.475  18.137
 5044W        W 5909   1.681   5.795  18.147
 5045W        W 5910   1.662   5.511  17.625
 5046W        W 5911   0.071   4.902  18.147
 5047W        W 5912   2.903   6.437  17.746
 5048W        W 5913   0.484   4.019  15.744
 5049W        W 5914   1.011   6.277  16.743
 5050W        W 5915   3.474   6.060  16.033
 5051W        W 5916   2.887   4.460  16.600
 5052W        W 5917   3.172   4.413  14.695
 5053W        W 5918   3.637   5.214  17.001
 5054W        W 5919   1.604   6.921  16.754
 5055W        W 5920   3.378   6.387  15.192
 5056W        W 5921   0.507   7.173  14.946
 5057W        W 5922   0.900   7.219  15.622
 5058W        W 5923   0.697   3.973  17.048
 5059W        W 5924   3.320   4.991  17.323
 5060W        W 5925   2.725   5.413  15.782
 5061W        W 5926   2.691   5.101  14.809
 5062W        W 5927   1.899   6.245  16.949
 5063W        W 5928   1.705   4.575  16.148
 5064W        W 5929   2.305   6.662  17.142
 5065W        W 5930   3.176   5.453  15.564
 5066W        W 5931   2.078   4.111  15.580
 5067W        W 5932   0.735   6.805  15.263
 5068W        W 5933   0.106   4.304  15.862
 5069W        W 5934   2.892   4.911  16.336
 5070W        W 5935   0.350   6.528  16.251
 5071W        W 5936   1.691   6.878  15.121
 5072W        W 5937   3.083   4.904  14.585
 5073W        W 5938   0.106   6.662  16.749
 5074W        W 5939   0.897   6.234  17.229
 5075W        W 5940   1.270   5.594  15.848
 5076W        W 5941   1.292   3.999  16.941
 5077W        W 5942   3.521   3.761  16.238
 5078W        W 5943   0.740   5.633  14.706
 5079W        W 5944   0.395   4.666  14.885
 5080W        W 5945   0.457   6.622  15.679
 5081W        W 5946   1.588   6.105  15.927
 5082W        W 5947   2.920   6.964  17.641
 5083W        W 5948   1.846   4.606  15.325
 5084W        W 5949   3.229   7.004  16.097
 5085W        W 5950   2.906   4.857  17.695
 5086W        W 5951   3.619   6.513  15.829
 5087W        W 5952   2.246   5.805  17.313
 5088W        W 5953   0.012   5.356  15.519
 5089W        W 5954   1.123   5.771  17.092
 5090W        W 5955   2.327   5.035  15.470
 5091W        W 5956   2.204   5.525  15.574
 5092W        W 5957   0.547   4.945  17.048
 5093W        W 5958   0.532   4.821  17.970
 5094W        W 5959   0.422   3.738  16.129
 5095W        W 5960   2.190   4.085  16.690
 5096W        W 5961   1.838   4.270  17.853
 5097W        W 5962   2.193   4.419  15.031
 5098W        W 5963   3.376   6.812  17.785
 5099W        W 5964   2.343   3.893  17.824
 5100W        W 5965   3.362   6.194  17.946
 5101W        W 5966   2.792   4.361  17.542
 5102W        W 5967   2.592   4.299  15.812
 5103W        W 5968   2.985   5.433  18.216
 5104W        W 5969   0.725   7.009  16.202
 5105W        W 5970   1.383   4.726  15.188
 5106W        W 5971   0.952   4.010  17.852
 5107W        W 5972   3.004   4.494  15.533
 5108W        W 5973   3.371   4.976  15.478
 5109W        W 5974   1.114   7.193  17.949
 5110W        W 5975   1.040   3.729  15.184
 5111W        W 5976   3.361   4.263  16.219
 5112W        W 5977   3.511   6.512  14.664
 5113W        W 5978   0.418   5.715  16.366
 5114W        W 5979   2.335   4.302  14.596
 5115W        W 5980   3.469   6.634  16.316
 5116W        W 5981   3.508   3.828  17.066
 5117W        W 5982   1.953   5.040  17.620
 5118W        W 5983   2.046   6.379  15.323
 5119W        W 5984   2.446   5.673  18.063
 5120W        W 5985   2.120   3.650  16.372
 5121W        W 5986   0.732   4.553  16.435
 5122W        W 5987   0.286   5.753  17.209
 5123W        W 5988   2.145   6.946  15.915
 5124W        W 5989   3.339   4.543  16.787
 5125W        W 5990   1.976   6.890  17.554
 5126W        W 5991   3.319   5.949  14.759
 5127W        W 5992   1.754   5.432  15.820
 5128W        W 5993   3.606   3.943  17.561
 5129W        W 5994   1.755   5.778  17.155
 5130W        W 5995   1.972   4.664  16.600
 5131W        W 5996   2.824   4.962  15.438
 5132W        W 5997   3.111   4.695  15.080
 5133W        W 5998   2.920   6.735  15.469
 5134W        W 5999   2.754   6.338  16.265
 5135W        W 6000   2.650   5.417  15.243
 5136W        W 6001   2.083   5.627  16.229
 5137W        W 6002   2.964   5.415  16.296
 5138W        W 6003   0.339   4.430  16.720
 5139W        W 6004   3.117   5.482  17.547
 5140W        W 6005   3.468   7.100  16.693
 5141W        W 6006   1.398   6.544  16.095
 5142W        W 6007   2.405   7.077  17.419
 5143W        W 6008   2.399   4.407  17.183
 5144W        W 6009   1.606   7.115  17.244
 5145W        W 6010   3.303   4.069  15.710
 5146W        W 6011   3.094   5.388  17.011
 5147W        W 6012   0.077   4.709  17.049
 5148W        W 6013   2.937   4.504  16.067
 5149W        W 6014   3.348   4.655  17.844
 5150W        W 6015   2.233   6.354  16.062
 5151W        W 6016   1.489   6.945  15.675
 5152W        W 6017   0.604   4.125  14.933
 5153W        W 6018   1.708   3.779  16.743
 5154W        W 6019   0.736   6.899  14.591
 5155W        W 6020   1.110   5.365  15.342
 5156W        W 6021   1.764   5.994  17.655
 5157W        W 6022   1.594   4.352  15.645
 5158W        W 6023   2.950   3.949  16.073
 5159W        W 6024   2.670   7.231  16.401
 5160W        W 6025   2.082   6.879  16.741
 5161W        W 6026   1.478   5.916  16.702
 5162W        W 6027   3.248   6.639  16.828
 5163W        W 6028   0.942   4.142  15.597
 5164W        W 6029   1.464   6.439  16.557
 5165W        W 6030   0.947   4.370  14.622
 5166W        W 6031   1.748   4.979  17.016
 5167W        W 6032   2.596   3.845  16.886
 5168W        W 6033   0.016   5.688  16.771
 5169W        W 6034   1.720   5.506  14.929
 5170W        W 6035   0.988   3.821  14.699
 5171W        W 6036   1.726   4.902  15.750
 5172W        W 6037   2.696   3.878  17.449
 5173W        W 6038   1.284   5.890  17.558
 5174W        W 6039   2.088   5.672  17.775
 5175W        W 6040   2.705   5.702  17.668
 5176W        W 6041   1.989   3.842  18.173
 5177W        W 6042   1.211   4.458  16.566
 5178W        W 6043   0.637   4.414  15.964
 5179W        W 6044   0.423   7.126  15.640
 5180W        W 6045   1.755   6.456  17.765
 5181W        W 6046   0.790   5.941  15.124
 5182W        W 6047   2.470   5.326  16.345
 5183W        W 6048   2.750   5.125  16.744
 5184W        W 6049   1.955   5.799  16.678
 5185W        W 6050   2.425   6.173  14.810
 5186W        W 6051   2.097   4.194  16.138
 5187W        W 6052   3.576   4.472  15.406
 5188W        W 6053   0.070   7.061  17.437
 5189W        W 6054   0.487   6.287  16.969
 5190W        W 6055   0.054   7.133  15.201
 5191W        W 6056   1.953   4.403  17.007
 5192W        W 6057   1.316   6.426  14.856
 5193W        W 6058   3.221   6.808  15.042
 5194W        W 6059   2.196   5.461  15.056
 5195W        W 6060   1.039   4.652  15.573
 5196W        W 6061   1.871   4.562  14.625
 5197W        W 6062   2.455   6.127  17.803
 5198W        W 6063   2.808   4.033  15.420
 5199W        W 6064   0.138   3.881  14.868
 5200W        W 6065   1.424   6.200  17.158
 5201W        W 6066   1.223   6.116  16.250
 5202W        W 6067   0.965   6.068  14.648
 5203W        W 6068   0.206   6.309  15.416
 5204W        W 6069   0.710   5.379  17.858
 5205W        W 6070   1.414   3.939  18.044
 5206W        W 6071   2.123   4.081  17.400
 5207W        W 6072   1.318   3.849  15.681
 5208W        W 6073   2.377   3.926  15.186
 5209W        W 6074   0.322   3.858  16.763
 5210W        W 6075   0.370   4.821  16.133
 5211W        W 6076   3.059   3.929  16.539
 5212W        W 6077   0.481   4.427  15.353
 5213W        W 6078   3.052   4.115  16.969
 5214W        W 6079   3.448   5.318  14.654
 5215W        W 6080   0.740   4.076  16.473
 5216W        W 6081   1.854   4.648  17.413
 5217W        W 6082   0.002   4.338  14.891
 5218W        W 6083   0.788   5.727  17.452
 5219W        W 6084   2.146   5.125  16.631
 5220W        W 6085   2.013   7.204  14.927
 5221W        W 6086   0.159   5.711  14.624
 5222W        W 6087   0.894   6.122  17.750
 5223W        W 6088   0.415   5.289  17.381
 5224W        W 6089   1.406   5.394  17.175
 5225W        W 6090   3.174   3.753  17.437
 5226W        W 6091   3.572   5.363  17.428
 5227W        W 6092   3.560   5.563  15.114
 5228W        W 6093   2.423   5.895  15.213
 5229W        W 6094   2.897   7.195  14.908
 5230W        W 6095   2.074   5.185  18.050
 5231W        W 6096   0.404   6.152  18.090
 5232W        W 6097   3.610   4.074  18.042
 5233W        W 6098   3.328   5.002  16.663
 5234W        W 6099   1.636   7.132  18.140
 5235W        W 6100   1.491   3.761  14.867
 5236W        W 6101   3.030   6.360  14.810
 5237W        W 6102   0.799   4.453  17.696
 5238W        W 6103   1.233   6.447  17.558
 5239W        W 6104   3.359   4.438  17.356
 5240W        W 6105   2.570   7.097  15.324
 5241W        W 6106   2.809   5.716  16.691
 5242W        W 6107   1.059   4.132  17.358
 5243W        W 6108   1.528   5.201  18.115
 5244W        W 6109   1.031   6.380  15.309
 5245W        W 6110   2.786   5.878  15.573
 5246W        W 6111   0.554   4.504  17.297
 5247W        W 6112   1.883   6.566  15.761
 5248W        W 6113   3.633   5.126  15.942
 5249W        W 6114   1.855   3.759  17.661
 5250W        W 6115   2.635   6.464  16.740
 5251W        W 6116   2.938   6.808  16.448
 5252W        W 6117   2.157   6.610  14.876
 5253W        W 6118   0.167   6.502  17.718
 5254W        W 6119   0.910   4.494  16.956
 5255W        W 6120   0.880   3.842  16.066
 5256W        W 6121   2.501   4.684  16.758
 5257W        W 6122   1.299   5.855  14.958
 5258W        W 6123   3.297   5.797  16.457
 5259W        W 6124   0.624   6.555  17.880
 5260W        W 6125   3.011   7.237  15.677
 5261W        W 6126   1.110   4.257  16.122
 5262W        W 6127   0.879   5.750  16.212
 5263W        W 6128   1.192   7.161  16.962
 5264W        W 6129   3.259   7.257  17.994
 5265W        W 6130   2.418   5.445  16.927
 5266W        W 6131   0.267   5.243  14.842
 5267W        W 6132   3.401   6.901  15.539
 5268W        W 6133   3.238   4.225  15.158
 5269W        W 6134   1.377   3.744  17.561
 5270W        W 6135   3.083   6.546  16.019
 5271W        W 6136   3.112   5.102  15.924
 5272W        W 6137   1.229   4.775  16.140
 5273W        W 6138   1.474   5.037  17.464
 5274W        W 6139   2.585   6.190  17.327
 5275W        W 6140   1.235   4.644  17.439
 5276W        W 6141   1.214   7.110  16.055
 5277W        W 6142   0.531   7.069  17.689
 5278W        W 6143   0.643   6.430  14.819
 5279W        W 6144   3.160   6.188  15.629
 5280W        W 6145   0.764   4.980  17.515
 5281W        W 6146   3.537   4.910  14.996
 5282W        W 6147   1.282   5.967  15.467
 5283W        W 6148   2.381   5.349  17.548
 5284W        W 6149   2.272   4.977  17.092
 5285W        W 6150   0.832   5.349  17.121
 5286W        W 6151   3.042   7.237  16.950
 5287W        W 6152   2.833   3.871  17.944
 5288W        W 6153   0.497   4.021  17.531
 5289W        W 6154   0.836   5.044  16.584
 5290W        W 6155   1.205   4.858  14.706
 5291W        W 6156   0.008   6.617  17.251
 5292W        W 6157   1.593   5.326  16.694
 5293W        W 6158   1.416   4.351  14.799
 5294W        W 6159   0.551   5.167  15.580
 5295W        W 6160   0.322   7.019  17.017
 5296W        W 6161   3.117   5.245  15.125
 5297W        W 6162   3.212   4.161  17.811
 5298W        W 6163   2.648   6.370  15.774
 5299W        W 6164   0.246   5.294  17.951
 5300W        W 6165   3.212   3.758  15.247
 5301W        W 6166   2.732   6.233  15.258
 5302W        W 6167   1.634   5.291  15.343
 5303W        W 6168   2.821   4.095  14.866
 5304W        W 6169   2.886   4.702  17.052
 5305W        W 6170   0.595   5.295  16.259
 5306W        W 6171   0.889   6.234  15.908
 5307W        W 6172   2.652   4.854  15.873
 5308W        W 6173   1.675   4.233  16.569
 5309W        W 6174   3.637   6.144  17.080
 5310W        W 6175   3.555   4.131  16.641
 5311W        W 6176   0.094   6.961  16.017
 5312W        W 6177   0.603   6.148  15.553
 5313W        W 6178   0.518   3.765  18.106
 5314W        W 6179   1.637   6.618  18.208
 5315W        W 6180   3.392   5.586  15.998
 5316W        W 6181   2.746   5.763  14.878
 5317W        W 6182   2.041   7.284  17.090
 5318W        W 6183   2.898   6.006  18.127
 5319W        W 6184   1.713   3.716  15.407
 5320W        W 6185   2.426   4.585  16.266
 5321W        W 6186   0.112   6.172  16.598
 5322W        W 6187   1.365   4.134  15.239
 5323W        W 6188   1.169   5.618  18.088
 5324W        W 6189   2.163   4.599  15.802
 5325W        W 6190   2.368   6.009  16.924
 5326W        W 6191   0.522   6.614  17.359
 5327W        W 6192   1.113   6.597  18.082
 5328W        W 6193   0.964   4.394  15.096
 5329W        W 6194   2.481   4.536  15.421
 5330W        W 6195   2.439   6.644  17.658
 5331W        W 6196   1.124   5.236  16.257
 5332W        W 6197   0.779   6.934  17.122
 5333W        W 6198   3.524   7.051  14.723
 5334W        W 6199   0.387   5.723  17.719
 5335W        W 6200   2.382   5.985  16.407
 5336W        W 6201   0.818   5.634  15.649
 5337W        W 6202   1.189   6.641  17.044
 5338W        W 6203   1.567   4.060  16.085
 5339W        W 6204   0.178   6.044  15.015
 5340W        W 6205   1.697   4.995  14.885
 5341W        W 6206   0.343   5.544  15.904
 5342W        W 6207   1.633   4.186  17.368
 5343W        W 6208   3.305   3.895  14.795
 5344W        W 6209   3.398   5.641  17.894
 5345W        W 6210   2.052   6.898  18.046
 5346W        W 6211   3.610   5.992  17.568
 5347W        W 6212   3.018   6.790  18.179
 5348W        W 6213   0.757   7.246  16.657
 5349W        W 6214   3.616   5.868  15.531
 5350W        W 6215   2.146   5.135  16.044
 5351W        W 6216   1.913   3.747  15.934
 5352W        W 6217   0.972   6.731  15.771
 5353W        W 6218   1.471   4.472  16.996
 5354W        W 6219   1.171   3.841  16.465
 5355W        W 6220   0.234   6.663  15.013
 5356W        W 6221   2.050   6.027  15.731
 5357W        W 6222   0.925   6.822  17.610
 5358W        W 6223   0.402   5.645  15.306
 5359W        W 6224   0.287   4.188  16.305
 5360W        W 6225   1.835   6.153  16.362
 5361W        W 6226   0.087   4.007  15.382
 5362W        W 6227   2.751   5.213  17.309
 5363W        W 6228   2.628   4.599  14.881
 5364W        W 6229   3.145   6.271  16.529
 5365W        W 6230   1.806   6.755  16.360
 5366W        W 6231   1.218   6.859  15.271
 5367W        W 6232   2.500   3.762  14.701
 5368W        W 6233   0.300   7.022  16.442
 5369W        W 6234   2.497   4.780  18.077
 5370W        W 6235   0.480   4.310  18.076
 5371W        W 6236   0.211   4.910  15.409
 5372W        W 6237   0.902   4.899  15.134
 5373W        W 6238   2.665   5.226  17.951
 5374W        W 6239   1.008   5.507  16.660
 5375W        W 6240   2.482   3.793  15.780
 5376W        W 6241   1.613   7.224  16.283
 5377W        W 6242   2.827   6.686  17.220
 5378W        W 6243   2.411   6.835  16.331
 5379W        W 6244   2.430   5.815  15.925
 5380W        W 6245   1.892   4.040  14.996
 5381W        W 6246   3.573   3.668  15.718
 5382W        W 6247   1.261   5.303  14.881
 5383W        W 6248   3.427   4.640  15.871
 5384W        W 6249   2.119   5.810  14.748
 5385W        W 6250   3.055   6.010  17.496
 5386W        W 6251   2.709   6.711  14.963
 5387W        W 6252   1.324   4.386  17.869
 5388W        W 6253   1.144   4.970  17.110
 5389W        W 6254   3.236   6.465  17.387
 5390W        W 6255   2.336   4.415  17.764
 5391W        W 6256   0.180   4.886  17.541
 5392W        W 6257   1.940   5.363  17.267
 5393W        W 6258   0.297   6.121  15.924
 5394W        W 6259   0.444   5.418  16.814
 5395W        W 6260   2.761   5.704  17.164
 5396W        W 6261   2.533   7.084  17.975
 5397W        W 6262   2.429   4.823  17.528
 5398W        W 6263   2.706   6.877  15.933
 5399W        W 6264   1.708   6.597  17.256
 5400W        W 6265   1.193   6.952  16.525
 5401W        W 6266   2.998   6.123  16.944
 5402W        W 6267   2.048   6.195  18.081
 5403W        W 6268   0.653   6.148  16.420
 5404W        W 6269   2.999   5.907  16.065
 5405W        W 6270   2.640   6.973  16.816
 5406W        W 6271   0.618   6.702  16.686
 5407W        W 6272   1.639   4.754  17.896
 5408W        W 6273   2.090   6.920  15.407
 5409W        W 6274   1.398   6.175  18.045
 5410W        W 6275   1.524   6.413  15.422
 5411W        W 6276   0.745   5.153  14.681
 5412W        W 6277   0.084   7.239  21.580
 5413W        W 6278   0.460   6.132  21.103
 5414W        W 6279   3.165   5.862  18.873
 5415W        W 6280   3.295   6.947  20.900
 5416W        W 6281   1.213   6.938  18.426
 5417W        W 6282   1.296   5.090  19.409
 5418W        W 6283   0.811   4.938  19.573
 5419W        W 6284   1.802   5.753  19.007
 5420W        W 6285   1.477   6.845  21.362
 5421W        W 6286   0.126   4.406  21.325
 5422W        W 6287   0.888   3.686  21.127
 5423W        W 6288   2.582   4.074  20.014
 5424W        W 6289   2.231   4.945  18.584
 5425W        W 6290   2.801   4.379  21.675
 5426W        W 6291   0.167   4.171  20.800
 5427W        W 6292   0.266   6.790  21.821
 5428W        W 6293   1.788   6.180  18.553
 5429W        W 6294   0.220   4.963  20.246
 5430W        W 6295   1.113   4.854  21.483
 5431W        W 6296   3.572   4.713  19.982
 5432W        W 6297   3.336   5.756  20.841
 5433W        W 6298   1.644   5.089  19.868
 5434W        W 6299   2.190   6.428  20.237
 5435W        W 6300   0.690   5.862  20.469
 5436W        W 6301   0.049   5.390  20.040
 5437W        W 6302   1.085   5.362  21.232
 5438W        W 6303   3.356   5.145  21.486
 5439W        W 6304   0.972   6.589  19.931
 5440W        W 6305   2.093   6.278  21.065
 5441W        W 6306   1.313   4.918  20.290
 5442W        W 6307   1.605   5.702  19.933
 5443W        W 6308   2.602   6.475  21.781
 5444W        W 6309   1.681   5.795  21.791
 5445W        W 6310   1.662   5.511  21.269
 5446W        W 6311   0.071   4.902  21.791
 5447W        W 6312   2.903   6.437  21.390
 5448W        W 6313   0.484   4.019  19.388
 5449W        W 6314   1.011   6.277  20.387
 5450W        W 6315   3.474   6.060  19.677
 5451W        W 6316   2.887   4.460  20.244
 5452W        W 6317   3.172   4.413  18.339
 5453W        W 6318   3.637   5.214  20.645
 5454W        W 6319   1.604   6.921  20.398
 5455W        W 6320   3.378   6.387  18.836
 5456W        W 6321   0.507   7.173  18.590
 5457W        W 6322   0.900   7.219  19.266
 5458W        W 6323   0.697   3.973  20.692
 5459W        W 6324   3.320   4.991  20.967
 5460W        W 6325   2.725   5.413  19.426
 5461W        W 6326   2.691   5.101  18.453
 5462W        W 6327   1.899   6.245  20.593
 5463W        W 6328   1.705   4.575  19.792
 5464W        W 6329   2.305   6.662  20.786
 5465W        W 6330   3.176   5.453  19.208
 5466W        W 6331   2.078   4.111  19.224
 5467W        W 6332   0.735   6.805  18.907
 5468W        W 6333   0.106   4.304  19.506
 5469W        W 6334   2.892   4.911  19.980
 5470W        W 6335   0.350   6.528  19.895
 5471W        W 6336   1.691   6.878  18.765
 5472W        W 6337   3.083   4.904  18.229
 5473W        W 6338   0.106   6.662  20.393
 5474W        W 6339   0.897   6.234  20.873
 5475W        W 6340   1.270   5.594  19.492
 5476W        W 6341   1.292   3.999  20.585
 5477W        W 6342   3.521   3.761  19.882
 5478W        W 6343   0.740   5.633  18.350
 5479W        W 6344   0.395   4.666  18.529
 5480W        W 6345   0.457   6.622  19.323
 5481W        W 6346   1.588   6.105  19.571
 5482W        W 6347   2.920   6.964  21.285
 5483W        W 6348   1.846   4.606  18.969
 5484W        W 6349   3.229   7.004  19.741
 5485W        W 6350   2.906   4.857  21.339
 5486W        W 6351   3.619   6.513  19.473
 5487W        W 6352   2.246   5.805  20.957
 5488W        W 6353   0.012   5.356  19.163
 5489W        W 6354   1.123   5.771  20.736
 5490W        W 6355   2.327   5.035  19.114
 5491W        W 6356   2.204   5.525  19.218
 5492W        W 6357   0.547   4.945  20.692
 5493W        W 6358   0.532   4.821  21.614
 5494W        W 6359   0.422   3.738  19.773
 5495W        W 6360   2.190   4.085  20.334
 5496W        W 6361   1.838   4.270  21.497
 5497W        W 6362   2.193   4.419  18.675
 5498W        W 6363   3.376   6.812  21.429
 5499W        W 6364   2.343   3.893  21.468
 5500W        W 6365   3.362   6.194  21.590
 5501W        W 6366   2.792   4.361  21.186
 5502W        W 6367   2.592   4.299  19.456
 5503W        W 6368   2.985   5.433  21.860
 5504W        W 6369   0.725   7.009  19.846
 5505W        W 6370   1.383   4.726  18.832
 5506W        W 6371   0.952   4.010  21.496
 5507W        W 6372   3.004   4.494  19.177
 5508W        W 6373   3.371   4.976  19.122
 5509W        W 6374   1.114   7.193  21.593
 5510W        W 6375   1.040   3.729  18.828
 5511W        W 6376   3.361   4.263  19.863
 5512W        W 6377   3.511   6.512  18.308
 5513W        W 6378   0.418   5.715  20.010
 5514W        W 6379   2.335   4.302  18.240
 5515W        W 6380   3.469   6.634  19.960
 5516W        W 6381   3.508   3.828  20.710
 5517W        W 6382   1.953   5.040  21.264
 5518W        W 6383   2.046   6.379  18.967
 5519W        W 6384   2.446   5.673  21.707
 5520W        W 6385   2.120   3.650  20.016
 5521W        W 6386   0.732   4.553  20.079
 5522W        W 6387   0.286   5.753  20.853
 5523W        W 6388   2.145   6.946  19.559
 5524W        W 6389   3.339   4.543  20.431
 5525W        W 6390   1.976   6.890  21.198
 5526W        W 6391   3.319   5.949  18.403
 5527W        W 6392   1.754   5.432  19.464
 5528W        W 6393   3.606   3.943  21.205
 5529W        W 6394   1.755   5.778  20.799
 5530W        W 6395   1.972   4.664  20.244
 5531W        W 6396   2.824   4.962  19.082
 5532W        W 6397   3.111   4.695  18.724
 5533W        W 6398   2.920   6.735  19.113
 5534W        W 6399   2.754   6.338  19.909
 5535W        W 6400   2.650   5.417  18.887
 5536W        W 6401   2.083   5.627  19.873
 5537W        W 6402   2.964   5.415  19.940
 5538W        W 6403   0.339   4.430  20.364
 5539W        W 6404   3.117   5.482  21.191
 5540W        W 6405   3.468   7.100  20.337
 5541W        W 6406   1.398   6.544  19.739
 5542W        W 6407   2.405   7.077  21.063
 5543W        W 6408   2.399   4.407  20.827
 5544W        W 6409   1.606   7.115  20.888
 5545W        W 6410   3.303   4.069  19.354
 5546W        W 6411   3.094   5.388  20.655
 5547W        W 6412   0.077   4.709  20.693
 5548W        W 6413   2.937   4.504  19.711
 5549W        W 6414   3.348   4.655  21.488
 5550W        W 6415   2.233   6.354  19.706
 5551W        W 6416   1.489   6.945  19.319
 5552W        W 6417   0.604   4.125  18.577
 5553W        W 6418   1.708   3.779  20.387
 5554W        W 6419   0.736   6.899  18.235
 5555W        W 6420   1.110   5.365  18.986
 5556W        W 6421   1.764   5.994  21.299
 5557W        W 6422   1.594   4.352  19.289
 5558W        W 6423   2.950   3.949  19.717
 5559W        W 6424   2.670   7.231  20.045
 5560W        W 6425   2.082   6.879  20.385
 5561W        W 6426   1.478   5.916  20.346
 5562W        W 6427   3.248   6.639  20.472
 5563W        W 6428   0.942   4.142  19.241
 5564W        W 6429   1.464   6.439  20.201
 5565W        W 6430   0.947   4.370  18.266
 5566W        W 6431   1.748   4.979  20.660
 5567W        W 6432   2.596   3.845  20.530
 5568W        W 6433   0.016   5.688  20.415
 5569W        W 6434   1.720   5.506  18.573
 5570W        W 6435   0.988   3.821  18.343
 5571W        W 6436   1.726   4.902  19.394
 5572W        W 6437   2.696   3.878  21.093
 5573W        W 6438   1.284   5.890  21.202
 5574W        W 6439   2.088   5.672  21.419
 5575W        W 6440   2.705   5.702  21.312
 5576W        W 6441   1.989   3.842  21.817
 5577W        W 6442   1.211   4.458  20.210
 5578W        W 6443   0.637   4.414  19.608
 5579W        W 6444   0.423   7.126  19.284
 5580W        W 6445   1.755   6.456  21.409
 5581W        W 6446   0.790   5.941  18.768
 5582W        W 6447   2.470   5.326  19.989
 5583W        W 6448   2.750   5.125  20.388
 5584W        W 6449   1.955   5.799  20.322
 5585W        W 6450   2.425   6.173  18.454
 5586W        W 6451   2.097   4.194  19.782
 5587W        W 6452   3.576   4.472  19.050
 5588W        W 6453   0.070   7.061  21.081
 5589W        W 6454   0.487   6.287  20.613
 5590W        W 6455   0.054   7.133  18.845
 5591W        W 6456   1.953   4.403  20.651
 5592W        W 6457   1.316   6.426  18.500
 5593W        W 6458   3.221   6.808  18.686
 5594W        W 6459   2.196   5.461  18.700
 5595W        W 6460   1.039   4.652  19.217
 5596W        W 6461   1.871   4.562  18.269
 5597W        W 6462   2.455   6.127  21.447
 5598W        W 6463   2.808   4.033  19.064
 5599W        W 6464   0.138   3.881  18.512
 5600W        W 6465   1.424   6.200  20.802
 5601W        W 6466   1.223   6.116  19.894
 5602W        W 6467   0.965   6.068  18.292
 5603W        W 6468   0.206   6.309  19.060
 5604W        W 6469   0.710   5.379  21.502
 5605W        W 6470   1.414   3.939  21.688
 5606W        W 6471   2.123   4.081  21.044
 5607W        W 6472   1.318   3.849  19.325
 5608W        W 6473   2.377   3.926  18.830
 5609W        W 6474   0.322   3.858  20.407
 5610W        W 6475   0.370   4.821  19.777
 5611W        W 6476   3.059   3.929  20.183
 5612W        W 6477   0.481   4.427  18.997
 5613W        W 6478   3.052   4.115  20.613
 5614W        W 6479   3.448   5.318  18.298
 5615W        W 6480   0.740   4.076  20.117
 5616W        W 6481   1.854   4.648  21.057
 5617W        W 6482   0.002   4.338  18.535
 5618W        W 6483   0.788   5.727  21.096
 5619W        W 6484   2.146   5.125  20.275
 5620W        W 6485   2.013   7.204  18.571
 5621W        W 6486   0.159   5.711  18.268
 5622W        W 6487   0.894   6.122  21.394
 5623W        W 6488   0.415   5.289  21.025
 5624W        W 6489   1.406   5.394  20.819
 5625W        W 6490   3.174   3.753  21.081
 5626W        W 6491   3.572   5.363  21.072
 5627W        W 6492   3.560   5.563  18.758
 5628W        W 6493   2.423   5.895  18.857
 5629W        W 6494   2.897   7.195  18.552
 5630W        W 6495   2.074   5.185  21.694
 5631W        W 6496   0.404   6.152  21.734
 5632W        W 6497   3.610   4.074  21.686
 5633W        W 6498   3.328   5.002  20.307
 5634W        W 6499   1.636   7.132  21.784
 5635W        W 6500   1.491   3.761  18.511
 5636W        W 6501   3.030   6.360  18.454
 5637W        W 6502   0.799   4.453  21.340
 5638W        W 6503   1.233   6.447  21.202
 5639W        W 6504   3.359   4.438  21.000
 5640W        W 6505   2.570   7.097  18.968
 5641W        W 6506   2.809   5.716  20.335
 5642W        W 6507   1.059   4.132  21.002
 5643W        W 6508   1.528   5.201  21.759
 5644W        W 6509   1.031   6.380  18.953
 5645W        W 6510   2.786   5.878  19.217
 5646W        W 6511   0.554   4.504  20.941
 5647W        W 6512   1.883   6.566  19.405
 5648W        W 6513   3.633   5.126  19.586
 5649W        W 6514   1.855   3.759  21.305
 5650W        W 6515   2.635   6.464  20.384
 5651W        W 6516   2.938   6.808  20.092
 5652W        W 6517   2.157   6.610  18.520
 5653W        W 6518   0.167   6.502  21.362
 5654W        W 6519   0.910   4.494  20.600
 5655W        W 6520   0.880   3.842  19.710
 5656W        W 6521   2.501   4.684  20.402
 5657W        W 6522   1.299   5.855  18.602
 5658W        W 6523   3.297   5.797  20.101
 5659W        W 6524   0.624   6.555  21.524
 5660W        W 6525   3.011   7.237  19.321
 5661W        W 6526   1.110   4.257  19.766
 5662W        W 6527   0.879   5.750  19.856
 5663W        W 6528   1.192   7.161  20.606
 5664W        W 6529   3.259   7.257  21.638
 5665W        W 6530   2.418   5.445  20.571
 5666W        W 6531   0.267   5.243  18.486
 5667W        W 6532   3.401   6.901  19.183
 5668W        W 6533   3.238   4.225  18.802
 5669W        W 6534   1.377   3.744  21.205
 5670W        W 6535   3.083   6.546  19.663
 5671W        W 6536   3.112   5.102  19.568
 5672W        W 6537   1.229   4.775  19.784
 5673W        W 6538   1.474   5.037  21.108
 5674W        W 6539   2.585   6.190  20.971
 5675W        W 6540   1.235   4.644  21.083
 5676W        W 6541   1.214   7.110  19.699
 5677W        W 6542   0.531   7.069  21.333
 5678W        W 6543   0.643   6.430  18.463
 5679W        W 6544   3.160   6.188  19.273
 5680W        W 6545   0.764   4.980  21.159
 5681W        W 6546   3.537   4.910  18.640
 5682W        W 6547   1.282   5.967  19.111
 5683W        W 6548   2.381   5.349  21.192
 5684W        W 6549   2.272   4.977  20.736
 5685W        W 6550   0.832   5.349  20.765
 5686W        W 6551   3.042   7.237  20.594
 5687W        W 6552   2.833   3.871  21.588
 5688W        W 6553   0.497   4.021  21.175
 5689W        W 6554   0.836   5.044  20.228
 5690W        W 6555   1.205   4.858  18.350
 5691W        W 6556   0.008   6.617  20.895
 5692W        W 6557   1.593   5.326  20.338
 5693W        W 6558   1.416   4.351  18.443
 5694W        W 6559   0.551   5.167  19.224
 5695W        W 6560   0.322   7.019  20.661
 5696W        W 6561   3.117   5.245  18.769
 5697W        W 6562   3.212   4.161  21.455
 5698W        W 6563   2.648   6.370  19.418
 5699W        W 6564   0.246   5.294  21.595
 5700W        W 6565   3.212   3.758  18.891
 5701W        W 6566   2.732   6.233  18.902
 5702W        W 6567   1.634   5.291  18.987
 5703W        W 6568   2.821   4.095  18.510
 5704W        W 6569   2.886   4.702  20.696
 5705W        W 6570   0.595   5.295  19.903
 5706W        W 6571   0.889   6.234  19.552
 5707W        W 6572   2.652   4.854  19.517
 5708W        W 6573   1.675   4.233  20.213
 5709W        W 6574   3.637   6.144  20.724
 5710W        W 6575   3.555   4.131  20.285
 5711W        W 6576   0.094   6.961  19.661
 5712W        W 6577   0.603   6.148  19.197
 5713W        W 6578   0.518   3.765  21.750
 5714W        W 6579   1.637   6.618  21.852
 5715W        W 6580   3.392   5.586  19.642
 5716W        W 6581   2.746   5.763  18.522
 5717W        W 6582   2.041   7.284  20.734
 5718W        W 6583   2.898   6.006  21.771
 5719W        W 6584   1.713   3.716  19.051
 5720W        W 6585   2.426   4.585  19.910
 5721W        W 6586   0.112   6.172  20.242
 5722W        W 6587   1.365   4.134  18.883
 5723W        W 6588   1.169   5.618  21.732
 5724W        W 6589   2.163   4.599  19.446
 5725W        W 6590   2.368   6.009  20.568
 5726W        W 6591   0.522   6.614  21.003
 5727W        W 6592   1.113   6.597  21.726
 5728W        W 6593   0.964   4.394  18.740
 5729W        W 6594   2.481   4.536  19.065
 5730W        W 6595   2.439   6.644  21.302
 5731W        W 6596   1.124   5.236  19.901
 5732W        W 6597   0.779   6.934  20.766
 5733W        W 6598   3.524   7.051  18.367
 5734W        W 6599   0.387   5.723  21.363
 5735W        W 6600   2.382   5.985  20.051
 5736W        W 6601   0.818   5.634  19.293
 5737W        W 6602   1.189   6.641  20.688
 5738W        W 6603   1.567   4.060  19.729
 5739W        W 6604   0.178   6.044  18.659
 5740W        W 6605   1.697   4.995  18.529
 5741W        W 6606   0.343   5.544  19.548
 5742W        W 6607   1.633   4.186  21.012
 5743W        W 6608   3.305   3.895  18.439
 5744W        W 6609   3.398   5.641  21.538
 5745W        W 6610   2.052   6.898  21.690
 5746W        W 6611   3.610   5.992  21.212
 5747W        W 6612   3.018   6.790  21.823
 5748W        W 6613   0.757   7.246  20.301
 5749W        W 6614   3.616   5.868  19.175
 5750W        W 6615   2.146   5.135  19.688
 5751W        W 6616   1.913   3.747  19.578
 5752W        W 6617   0.972   6.731  19.415
 5753W        W 6618   1.471   4.472  20.640
 5754W        W 6619   1.171   3.841  20.109
 5755W        W 6620   0.234   6.663  18.657
 5756W        W 6621   2.050   6.027  19.375
 5757W        W 6622   0.925   6.822  21.254
 5758W        W 6623   0.402   5.645  18.950
 5759W        W 6624   0.287   4.188  19.949
 5760W        W 6625   1.835   6.153  20.006
 5761W        W 6626   0.087   4.007  19.026
 5762W        W 6627   2.751   5.213  20.953
 5763W        W 6628   2.628   4.599  18.525
 5764W        W 6629   3.145   6.271  20.173
 5765W        W 6630   1.806   6.755  20.004
 5766W        W 6631   1.218   6.859  18.915
 5767W        W 6632   2.500   3.762  18.345
 5768W        W 6633   0.300   7.022  20.086
 5769W        W 6634   2.497   4.780  21.721
 5770W        W 6635   0.480   4.310  21.720
 5771W        W 6636   0.211   4.910  19.053
 5772W        W 6637   0.902   4.899  18.778
 5773W        W 6638   2.665   5.226  21.595
 5774W        W 6639   1.008   5.507  20.304
 5775W        W 6640   2.482   3.793  19.424
 5776W        W 6641   1.613   7.224  19.927
 5777W        W 6642   2.827   6.686  20.864
 5778W        W 6643   2.411   6.835  19.975
 5779W        W 6644   2.430   5.815  19.569
 5780W        W 6645   1.892   4.040  18.640
 5781W        W 6646   3.573   3.668  19.362
 5782W        W 6647   1.261   5.303  18.525
 5783W        W 6648   3.427   4.640  19.515
 5784W        W 6649   2.119   5.810  18.392
 5785W        W 6650   3.055   6.010  21.140
 5786W        W 6651   2.709   6.711  18.607
 5787W        W 6652   1.324   4.386  21.513
 5788W        W 6653   1.144   4.970  20.754
 5789W        W 6654   3.236   6.465  21.031
 5790W        W 6655   2.336   4.415  21.408
 5791W        W 6656   0.180   4.886  21.185
 5792W        W 6657   1.940   5.363  20.911
 5793W        W 6658   0.297   6.121  19.568
 5794W        W 6659   0.444   5.418  20.458
 5795W        W 6660   2.761   5.704  20.808
 5796W        W 6661   2.533   7.084  21.619
 5797W        W 6662   2.429   4.823  21.172
 5798W        W 6663   2.706   6.877  19.577
 5799W        W 6664   1.708   6.597  20.900
 5800W        W 6665   1.193   6.952  20.169
 5801W        W 6666   2.998   6.123  20.588
 5802W        W 6667   2.048   6.195  21.725
 5803W        W 6668   0.653   6.148  20.064
 5804W        W 6669   2.999   5.907  19.709
 5805W        W 6670   2.640   6.973  20.460
 5806W        W 6671   0.618   6.702  20.330
 5807W        W 6672   1.639   4.754  21.540
 5808W        W 6673   2.090   6.920  19.051
 5809W        W 6674   1.398   6.175  21.689
 5810W        W 6675   1.524   6.413  19.066
 5811W        W 6676   0.745   5.153  18.325
 5812W        W 6677   0.084   7.239  25.225
 5813W        W 6678   0.460   6.132  24.748
 5814W        W 6679   3.165   5.862  22.518
 5815W        W 6680   3.295   6.947  24.545
 5816W        W 6681   1.213   6.938  22.071
 5817W        W 6682   1.296   5.090  23.054
 5818W        W 6683   0.811   4.938  23.218
 5819W        W 6684   1.802   5.753  22.652
 5820W        W 6685   1.477   6.845  25.007
 5821W        W 6686   0.126   4.406  24.970
 5822W        W 6687   0.888   3.686  24.772
 5823W        W 6688   2.582   4.074  23.659
 5824W        W 6689   2.231   4.945  22.229
 5825W        W 6690   2.801   4.379  25.320
 5826W        W 6691   0.167   4.171  24.445
 5827W        W 6692   0.266   6.790  25.466
 5828W        W 6693   1.788   6.180  22.198
 5829W        W 6694   0.220   4.963  23.891
 5830W        W 6695   1.113   4.854  25.128
 5831W        W 6696   3.572   4.713  23.627
 5832W        W 6697   3.336   5.756  24.486
 5833W        W 6698   1.644   5.089  23.513
 5834W        W 6699   2.190   6.428  23.882
 5835W        W 6700   0.690   5.862  24.114
 5836W        W 6701   0.049   5.390  23.685
 5837W        W 6702   1.085   5.362  24.877
 5838W        W 6703   3.356   5.145  25.131
 5839W        W 6704   0.972   6.589  23.576
 5840W        W 6705   2.093   6.278  24.710
 5841W        W 6706   1.313   4.918  23.935
 5842W        W 6707   1.605   5.702  23.578
 5843W        W 6708   2.602   6.475  25.426
 5844W        W 6709   1.681   5.795  25.436
 5845W        W 6710   1.662   5.511  24.914
 5846W        W 6711   0.071   4.902  25.436
 5847W        W 6712   2.903   6.437  25.035
 5848W        W 6713   0.484   4.019  23.033
 5849W        W 6714   1.011   6.277  24.032
 5850W        W 6715   3.474   6.060  23.322
 5851W        W 6716   2.887   4.460  23.889
 5852W        W 6717   3.172   4.413  21.984
 5853W        W 6718   3.637   5.214  24.290
 5854W        W 6719   1.604   6.921  24.043
 5855W        W 6720   3.378   6.387  22.481
 5856W        W 6721   0.507   7.173  22.235
 5857W        W 6722   0.900   7.219  22.911
 5858W        W 6723   0.697   3.973  24.337
 5859W        W 6724   3.320   4.991  24.612
 5860W        W 6725   2.725   5.413  23.071
 5861W        W 6726   2.691   5.101  22.098
 5862W        W 6727   1.899   6.245  24.238
 5863W        W 6728   1.705   4.575  23.437
 5864W        W 6729   2.305   6.662  24.431
 5865W        W 6730   3.176   5.453  22.853
 5866W        W 6731   2.078   4.111  22.869
 5867W        W 6732   0.735   6.805  22.552
 5868W        W 6733   0.106   4.304  23.151
 5869W        W 6734   2.892   4.911  23.625
 5870W        W 6735   0.350   6.528  23.540
 5871W        W 6736   1.691   6.878  22.410
 5872W        W 6737   3.083   4.904  21.874
 5873W        W 6738   0.106   6.662  24.038
 5874W        W 6739   0.897   6.234  24.518
 5875W        W 6740   1.270   5.594  23.137
 5876W        W 6741   1.292   3.999  24.230
 5877W        W 6742   3.521   3.761  23.527
 5878W        W 6743   0.740   5.633  21.995
 5879W        W 6744   0.395   4.666  22.174
 5880W        W 6745   0.457   6.622  22.968
 5881W        W 6746   1.588   6.105  23.216
 5882W        W 6747   2.920   6.964  24.930
 5883W        W 6748   1.846   4.606  22.614
 5884W        W 6749   3.229   7.004  23.386
 5885W        W 6750   2.906   4.857  24.984
 5886W        W 6751   3.619   6.513  23.118
 5887W        W 6752   2.246   5.805  24.602
 5888W        W 6753   0.012   5.356  22.808
 5889W        W 6754   1.123   5.771  24.381
 5890W        W 6755   2.327   5.035  22.759
 5891W        W 6756   2.204   5.525  22.863
 5892W        W 6757   0.547   4.945  24.337
 5893W        W 6758   0.532   4.821  25.259
 5894W        W 6759   0.422   3.738  23.418
 5895W        W 6760   2.190   4.085  23.979
 5896W        W 6761   1.838   4.270  25.142
 5897W        W 6762   2.193   4.419  22.320
 5898W        W 6763   3.376   6.812  25.074
 5899W        W 6764   2.343   3.893  25.113
 5900W        W 6765   3.362   6.194  25.235
 5901W        W 6766   2.792   4.361  24.831
 5902W        W 6767   2.592   4.299  23.101
 5903W        W 6768   2.985   5.433  25.505
 5904W        W 6769   0.725   7.009  23.491
 5905W        W 6770   1.383   4.726  22.477
 5906W        W 6771   0.952   4.010  25.141
 5907W        W 6772   3.004   4.494  22.822
 5908W        W 6773   3.371   4.976  22.767
 5909W        W 6774   1.114   7.193  25.238
 5910W        W 6775   1.040   3.729  22.473
 5911W        W 6776   3.361   4.263  23.508
 5912W        W 6777   3.511   6.512  21.953
 5913W        W 6778   0.418   5.715  23.655
 5914W        W 6779   2.335   4.302  21.885
 5915W        W 6780   3.469   6.634  23.605
 5916W        W 6781   3.508   3.828  24.355
 5917W        W 6782   1.953   5.040  24.909
 5918W        W 6783   2.046   6.379  22.612
 5919W        W 6784   2.446   5.673  25.352
 5920W        W 6785   2.120   3.650  23.661
 5921W        W 6786   0.732   4.553  23.724
 5922W        W 6787   0.286   5.753  24.498
 5923W        W 6788   2.145   6.946  23.204
 5924W        W 6789   3.339   4.543  24.076
 5925W        W 6790   1.976   6.890  24.843
 5926W        W 6791   3.319   5.949  22.048
 5927W        W 6792   1.754   5.432  23.109
 5928W        W 6793   3.606   3.943  24.850
 5929W        W 6794   1.755   5.778  24.444
 5930W        W 6795   1.972   4.664  23.889
 5931W        W 6796   2.824   4.962  22.727
 5932W        W 6797   3.111   4.695  22.369
 5933W        W 6798   2.920   6.735  22.758
 5934W        W 6799   2.754   6.338  23.554
 5935W        W 6800   2.650   5.417  22.532
 5936W        W 6801   2.083   5.627  23.518
 5937W        W 6802   2.964   5.415  23.585
 5938W        W 6803   0.339   4.430  24.009
 5939W        W 6804   3.117   5.482  24.836
 5940W        W 6805   3.468   7.100  23.982
 5941W        W 6806   1.398   6.544  23.384
 5942W        W 6807   2.405   7.077  24.708
 5943W        W 6808   2.399   4.407  24.472
 5944W        W 6809   1.606   7.115  24.533
 5945W        W 6810   3.303   4.069  22.999
 5946W        W 6811   3.094   5.388  24.300
 5947W        W 6812   0.077   4.709  24.338
 5948W        W 6813   2.937   4.504  23.356
 5949W        W 6814   3.348   4.655  25.133
 5950W        W 6815   2.233   6.354  23.351
 5951W        W 6816   1.489   6.945  22.964
 5952W        W 6817   0.604   4.125  22.222
 5953W        W 6818   1.708   3.779  24.032
 5954W        W 6819   0.736   6.899  21.880
 5955W        W 6820   1.110   5.365  22.631
 5956W        W 6821   1.764   5.994  24.944
 5957W        W 6822   1.594   4.352  22.934
 5958W        W 6823   2.950   3.949  23.362
 5959W        W 6824   2.670   7.231  23.690
 5960W        W 6825   2.082   6.879  24.030
 5961W        W 6826   1.478   5.916  23.991
 5962W        W 6827   3.248   6.639  24.117
 5963W        W 6828   0.942   4.142  22.886
 5964W        W 6829   1.464   6.439  23.846
 5965W        W 6830   0.947   4.370  21.911
 5966W        W 6831   1.748   4.979  24.305
 5967W        W 6832   2.596   3.845  24.175
 5968W        W 6833   0.016   5.688  24.060
 5969W        W 6834   1.720   5.506  22.218
 5970W        W 6835   0.988   3.821  21.988
 5971W        W 6836   1.726   4.902  23.039
 5972W        W 6837   2.696   3.878  24.738
 5973W        W 6838   1.284   5.890  24.847
 5974W        W 6839   2.088   5.672  25.064
 5975W        W 6840   2.705   5.702  24.957
 5976W        W 6841   1.989   3.842  25.462
 5977W        W 6842   1.211   4.458  23.855
 5978W        W 6843   0.637   4.414  23.253
 5979W        W 6844   0.423   7.126  22.929
 5980W        W 6845   1.755   6.456  25.054
 5981W        W 6846   0.790   5.941  22.413
 5982W        W 6847   2.470   5.326  23.634
 5983W        W 6848   2.750   5.125  24.033
 5984W        W 6849   1.955   5.799  23.967
 5985W        W 6850   2.425   6.173  22.099
 5986W        W 6851   2.097   4.194  23.427
 5987W        W 6852   3.576   4.472  22.695
 5988W        W 6853   0.070   7.061  24.726
 5989W        W 6854   0.487   6.287  24.258
 5990W        W 6855   0.054   7.133  22.490
 5991W        W 6856   1.953   4.403  24.296
 5992W        W 6857   1.316   6.426  22.145
 5993W        W 6858   3.221   6.808  22.331
 5994W        W 6859   2.196   5.461  22.345
 5995W        W 6860   1.039   4.652  22.862
 5996W        W 6861   1.871   4.562  21.914
 5997W        W 6862   2.455   6.127  25.092
 5998W        W 6863   2.808   4.033  22.709
 5999W        W 6864   0.138   3.881  22.157
 6000W        W 6865   1.424   6.200  24.447
 6001W        W 6866   1.223   6.116  23.539
 6002W        W 6867   0.965   6.068  21.937
 6003W        W 6868   0.206   6.309  22.705
 6004W        W 6869   0.710   5.379  25.147
 6005W        W 6870   1.414   3.939  25.333
 6006W        W 6871   2.123   4.081  24.689
 6007W        W 6872   1.318   3.849  22.970
 6008W        W 6873   2.377   3.926  22.475
 6009W        W 6874   0.322   3.858  24.052
 6010W        W 6875   0.370   4.821  23.422
 6011W        W 6876   3.059   3.929  23.828
 6012W        W 6877   0.481   4.427  22.642
 6013W        W 6878   3.052   4.115  24.258
 6014W        W 6879   3.448   5.318  21.943
 6015W        W 6880   0.740   4.076  23.762
 6016W        W 6881   1.854   4.648  24.702
 6017W        W 6882   0.002   4.338  22.180
 6018W        W 6883   0.788   5.727  24.741
 6019W        W 6884   2.146   5.125  23.920
 6020W        W 6885   2.013   7.204  22.216
 6021W        W 6886   0.159   5.711  21.913
 6022W        W 6887   0.894   6.122  25.039
 6023W        W 6888   0.415   5.289  24.670
 6024W        W 6889   1.406   5.394  24.464
 6025W        W 6890   3.174   3.753  24.726
 6026W        W 6891   3.572   5.363  24.717
 6027W        W 6892   3.560   5.563  22.403
 6028W        W 6893   2.423   5.895  22.502
 6029W        W 6894   2.897   7.195  22.197
 6030W        W 6895   2.074   5.185  25.339
 6031W        W 6896   0.404   6.152  25.379
 6032W        W 6897   3.610   4.074  25.331
 6033W        W 6898   3.328   5.002  23.952
 6034W        W 6899   1.636   7.132  25.429
 6035W        W 6900   1.491   3.761  22.156
 6036W        W 6901   3.030   6.360  22.099
 6037W        W 6902   0.799   4.453  24.985
 6038W        W 6903   1.233   6.447  24.847
 6039W        W 6904   3.359   4.438  24.645
 6040W        W 6905   2.570   7.097  22.613
 6041W        W 6906   2.809   5.716  23.980
 6042W        W 6907   1.059   4.132  24.647
 6043W        W 6908   1.528   5.201  25.404
 6044W        W 6909   1.031   6.380  22.598
 6045W        W 6910   2.786   5.878  22.862
 6046W        W 6911   0.554   4.504  24.586
 6047W        W 6912   1.883   6.566  23.050
 6048W        W 6913   3.633   5.126  23.231
 6049W        W 6914   1.855   3.759  24.950
 6050W        W 6915   2.635   6.464  24.029
 6051W        W 6916   2.938   6.808  23.737
 6052W        W 6917   2.157   6.610  22.165
 6053W        W 6918   0.167   6.502  25.007
 6054W        W 6919   0.910   4.494  24.245
 6055W        W 6920   0.880   3.842  23.355
 6056W        W 6921   2.501   4.684  24.047
 6057W        W 6922   1.299   5.855  22.247
 6058W        W 6923   3.297   5.797  23.746
 6059W        W 6924   0.624   6.555  25.169
 6060W        W 6925   3.011   7.237  22.966
 6061W        W 6926   1.110   4.257  23.411
 6062W        W 6927   0.879   5.750  23.501
 6063W        W 6928   1.192   7.161  24.251
 6064W        W 6929   3.259   7.257  25.283
 6065W        W 6930   2.418   5.445  24.216
 6066W        W 6931   0.267   5.243  22.131
 6067W        W 6932   3.401   6.901  22.828
 6068W        W 6933   3.238   4.225  22.447
 6069W        W 6934   1.377   3.744  24.850
 6070W        W 6935   3.083   6.546  23.308
 6071W        W 6936   3.112   5.102  23.213
 6072W        W 6937   1.229   4.775  23.429
 6073W        W 6938   1.474   5.037  24.753
 6074W        W 6939   2.585   6.190  24.616
 6075W        W 6940   1.235   4.644  24.728
 6076W        W 6941   1.214   7.110  23.344
 6077W        W 6942   0.531   7.069  24.978
 6078W        W 6943   0.643   6.430  22.108
 6079W        W 6944   3.160   6.188  22.918
 6080W        W 6945   0.764   4.980  24.804
 6081W        W 6946   3.537   4.910  22.285
 6082W        W 6947   1.282   5.967  22.756
 6083W        W 6948   2.381   5.349  24.837
 6084W        W 6949   2.272   4.977  24.381
 6085W        W 6950   0.832   5.349  24.410
 6086W        W 6951   3.042   7.237  24.239
 6087W        W 6952   2.833   3.871  25.233
 6088W        W 6953   0.497   4.021  24.820
 6089W        W 6954   0.836   5.044  23.873
 6090W        W 6955   1.205   4.858  21.995
 6091W        W 6956   0.008   6.617  24.540
 6092W        W 6957   1.593   5.326  23.983
 6093W        W 6958   1.416   4.351  22.088
 6094W        W 6959   0.551   5.167  22.869
 6095W        W 6960   0.322   7.019  24.306
 6096W        W 6961   3.117   5.245  22.414
 6097W        W 6962   3.212   4.161  25.100
 6098W        W 6963   2.648   6.370  23.063
 6099W        W 6964   0.246   5.294  25.240
 6100W        W 6965   3.212   3.758  22.536
 6101W        W 6966   2.732   6.233  22.547
 6102W        W 6967   1.634   5.291  22.632
 6103W        W 6968   2.821   4.095  22.155
 6104W        W 6969   2.886   4.702  24.341
 6105W        W 6970   0.595   5.295  23.548
 6106W        W 6971   0.889   6.234  23.197
 6107W        W 6972   2.652   4.854  23.162
 6108W        W 6973   1.675   4.233  23.858
 6109W        W 6974   3.637   6.144  24.369
 6110W        W 6975   3.555   4.131  23.930
 6111W        W 6976   0.094   6.961  23.306
 6112W        W 6977   0.603   6.148  22.842
 6113W        W 6978   0.518   3.765  25.395
 6114W        W 6979   1.637   6.618  25.497
 6115W        W 6980   3.392   5.586  23.287
 6116W        W 6981   2.746   5.763  22.167
 6117W        W 6982   2.041   7.284  24.379
 6118W        W 6983   2.898   6.006  25.416
 6119W        W 6984   1.713   3.716  22.696
 6120W        W 6985   2.426   4.585  23.555
 6121W        W 6986   0.112   6.172  23.887
 6122W        W 6987   1.365   4.134  22.528
 6123W        W 6988   1.169   5.618  25.377
 6124W        W 6989   2.163   4.599  23.091
 6125W        W 6990   2.368   6.009  24.213
 6126W        W 6991   0.522   6.614  24.648
 6127W        W 6992   1.113   6.597  25.371
 6128W        W 6993   0.964   4.394  22.385
 6129W        W 6994   2.481   4.536  22.710
 6130W        W 6995   2.439   6.644  24.947
 6131W        W 6996   1.124   5.236  23.546
 6132W        W 6997   0.779   6.934  24.411
 6133W        W 6998   3.524   7.051  22.012
 6134W        W 6999   0.387   5.723  25.008
 6135W        W 7000   2.382   5.985  23.696
 6136W        W 7001   0.818   5.634  22.938
 6137W        W 7002   1.189   6.641  24.333
 6138W        W 7003   1.567   4.060  23.374
 6139W        W 7004   0.178   6.044  22.304
 6140W        W 7005   1.697   4.995  22.174
 6141W        W 7006   0.343   5.544  23.193
 6142W        W 7007   1.633   4.186  24.657
 6143W        W 7008   3.305   3.895  22.084
 6144W        W 7009   3.398   5.641  25.183
 6145W        W 7010   2.052   6.898  25.335
 6146W        W 7011   3.610   5.992  24.857
 6147W        W 7012   3.018   6.790  25.468
 6148W        W 7013   0.757   7.246  23.946
 6149W        W 7014   3.616   5.868  22.820
 6150W        W 7015   2.146   5.135  23.333
 6151W        W 7016   1.913   3.747  23.223
 6152W        W 7017   0.972   6.731  23.060
 6153W        W 7018   1.471   4.472  24.285
 6154W        W 7019   1.171   3.841  23.754
 6155W        W 7020   0.234   6.663  22.302
 6156W        W 7021   2.050   6.027  23.020
 6157W        W 7022   0.925   6.822  24.899
 6158W        W 7023   0.402   5.645  22.595
 6159W        W 7024   0.287   4.188  23.594
 6160W        W 7025   1.835   6.153  23.651
 6161W        W 7026   0.087   4.007  22.671
 6162W        W 7027   2.751   5.213  24.598
 6163W        W 7028   2.628   4.599  22.170
 6164W        W 7029   3.145   6.271  23.818
 6165W        W 7030   1.806   6.755  23.649
 6166W        W 7031   1.218   6.859  22.560
 6167W        W 7032   2.500   3.762  21.990
 6168W        W 7033   0.300   7.022  23.731
 6169W        W 7034   2.497   4.780  25.366
 6170W        W 7035   0.480   4.310  25.365
 6171W        W 7036   0.211   4.910  22.698
 6172W        W 7037   0.902   4.899  22.423
 6173W        W 7038   2.665   5.226  25.240
 6174W        W 7039   1.008   5.507  23.949
 6175W        W 7040   2.482   3.793  23.069
 6176W        W 7041   1.613   7.224  23.572
 6177W        W 7042   2.827   6.686  24.509
 6178W        W 7043   2.411   6.835  23.620
 6179W        W 7044   2.430   5.815  23.214
 6180W        W 7045   1.892   4.040  22.285
 6181W        W 7046   3.573   3.668  23.007
 6182W        W 7047   1.261   5.303  22.170
 6183W        W 7048   3.427   4.640  23.160
 6184W        W 7049   2.119   5.810  22.037
 6185W        W 7050   3.055   6.010  24.785
 6186W        W 7051   2.709   6.711  22.252
 6187W        W 7052   1.324   4.386  25.158
 6188W        W 7053   1.144   4.970  24.399
 6189W        W 7054   3.236   6.465  24.676
 6190W        W 7055   2.336   4.415  25.053
 6191W        W 7056   0.180   4.886  24.830
 6192W        W 7057   1.940   5.363  24.556
 6193W        W 7058   0.297   6.121  23.213
 6194W        W 7059   0.444   5.418  24.103
 6195W        W 7060   2.761   5.704  24.453
 6196W        W 7061   2.533   7.084  25.264
 6197W        W 7062   2.429   4.823  24.817
 6198W        W 7063   2.706   6.877  23.222
 6199W        W 7064   1.708   6.597  24.545
 6200W        W 7065   1.193   6.952  23.814
 6201W        W 7066   2.998   6.123  24.233
 6202W        W 7067   2.048   6.195  25.370
 6203W        W 7068   0.653   6.148  23.709
 6204W        W 7069   2.999   5.907  23.354
 6205W        W 7070   2.640   6.973  24.105
 6206W        W 7071   0.618   6.702  23.975
 6207W        W 7072   1.639   4.754  25.185
 6208W        W 7073   2.090   6.920  22.696
 6209W        W 7074   1.398   6.175  25.334
 6210W        W 7075   1.524   6.413  22.711
 6211W        W 7076   0.745   5.153  21.970
 6212W        W 7077   0.084   7.239  28.869
 6213W        W 7078   0.460   6.132  28.392
 6214W        W 7079   3.165   5.862  26.162
 6215W        W 7080   3.295   6.947  28.189
 6216W        W 7081   1.213   6.938  25.715
 6217W        W 7082   1.296   5.090  26.698
 6218W        W 7083   0.811   4.938  26.862
 6219W        W 7084   1.802   5.753  26.296
 6220W        W 7085   1.477   6.845  28.651
 6221W        W 7086   0.126   4.406  28.614
 6222W        W 7087   0.888   3.686  28.416
 6223W        W 7088   2.582   4.074  27.303
 6224W        W 7089   2.231   4.945  25.873
 6225W        W 7090   2.801   4.379  28.964
 6226W        W 7091   0.167   4.171  28.089
 6227W        W 7092   0.266   6.790  29.110
 6228W        W 7093   1.788   6.180  25.842
 6229W        W 7094   0.220   4.963  27.535
 6230W        W 7095   1.113   4.854  28.772
 6231W        W 7096   3.572   4.713  27.271
 6232W        W 7097   3.336   5.756  28.130
 6233W        W 7098   1.644   5.089  27.157
 6234W        W 7099   2.190   6.428  27.526
 6235W        W 7100   0.690   5.862  27.758
 6236W        W 7101   0.049   5.390  27.329
 6237W        W 7102   1.085   5.362  28.521
 6238W        W 7103   3.356   5.145  28.775
 6239W        W 7104   0.972   6.589  27.220
 6240W        W 7105   2.093   6.278  28.354
 6241W        W 7106   1.313   4.918  27.579
 6242W        W 7107   1.605   5.702  27.222
 6243W        W 7108   2.602   6.475  29.070
 6244W        W 7109   1.681   5.795  29.080
 6245W        W 7110   1.662   5.511  28.558
 6246W        W 7111   0.071   4.902  29.080
 6247W        W 7112   2.903   6.437  28.679
 6248W        W 7113   0.484   4.019  26.677
 6249W        W 7114   1.011   6.277  27.676
 6250W        W 7115   3.474   6.060  26.966
 6251W        W 7116   2.887   4.460  27.533
 6252W        W 7117   3.172   4.413  25.628
 6253W        W 7118   3.637   5.214  27.934
 6254W        W 7119   1.604   6.921  27.687
 6255W        W 7120   3.378   6.387  26.125
 6256W        W 7121   0.507   7.173  25.879
 6257W        W 7122   0.900   7.219  26.555
 6258W        W 7123   0.697   3.973  27.981
 6259W        W 7124   3.320   4.991  28.256
 6260W        W 7125   2.725   5.413  26.715
 6261W        W 7126   2.691   5.101  25.742
 6262W        W 7127   1.899   6.245  27.882
 6263W        W 7128   1.705   4.575  27.081
 6264W        W 7129   2.305   6.662  28.075
 6265W        W 7130   3.176   5.453  26.497
 6266W        W 7131   2.078   4.111  26.513
 6267W        W 7132   0.735   6.805  26.196
 6268W        W 7133   0.106   4.304  26.795
 6269W        W 7134   2.892   4.911  27.269
 6270W        W 7135   0.350   6.528  27.184
 6271W        W 7136   1.691   6.878  26.054
 6272W        W 7137   3.083   4.904  25.518
 6273W        W 7138   0.106   6.662  27.682
 6274W        W 7139   0.897   6.234  28.162
 6275W        W 7140   1.270   5.594  26.781
 6276W        W 7141   1.292   3.999  27.874
 6277W        W 7142   3.521   3.761  27.171
 6278W        W 7143   0.740   5.633  25.639
 6279W        W 7144   0.395   4.666  25.818
 6280W        W 7145   0.457   6.622  26.612
 6281W        W 7146   1.588   6.105  26.860
 6282W        W 7147   2.920   6.964  28.574
 6283W        W 7148   1.846   4.606  26.258
 6284W        W 7149   3.229   7.004  27.030
 6285W        W 7150   2.906   4.857  28.628
 6286W        W 7151   3.619   6.513  26.762
 6287W        W 7152   2.246   5.805  28.246
 6288W        W 7153   0.012   5.356  26.452
 6289W        W 7154   1.123   5.771  28.025
 6290W        W 7155   2.327   5.035  26.403
 6291W        W 7156   2.204   5.525  26.507
 6292W        W 7157   0.547   4.945  27.981
 6293W        W 7158   0.532   4.821  28.903
 6294W        W 7159   0.422   3.738  27.062
 6295W        W 7160   2.190   4.085  27.623
 6296W        W 7161   1.838   4.270  28.786
 6297W        W 7162   2.193   4.419  25.964
 6298W        W 7163   3.376   6.812  28.718
 6299W        W 7164   2.343   3.893  28.757
 6300W        W 7165   3.362   6.194  28.879
 6301W        W 7166   2.792   4.361  28.475
 6302W        W 7167   2.592   4.299  26.745
 6303W        W 7168   2.985   5.433  29.149
 6304W        W 7169   0.725   7.009  27.135
 6305W        W 7170   1.383   4.726  26.121
 6306W        W 7171   0.952   4.010  28.785
 6307W        W 7172   3.004   4.494  26.466
 6308W        W 7173   3.371   4.976  26.411
 6309W        W 7174   1.114   7.193  28.882
 6310W        W 7175   1.040   3.729  26.117
 6311W        W 7176   3.361   4.263  27.152
 6312W        W 7177   3.511   6.512  25.597
 6313W        W 7178   0.418   5.715  27.299
 6314W        W 7179   2.335   4.302  25.529
 6315W        W 7180   3.469   6.634  27.249
 6316W        W 7181   3.508   3.828  27.999
 6317W        W 7182   1.953   5.040  28.553
 6318W        W 7183   2.046   6.379  26.256
 6319W        W 7184   2.446   5.673  28.996
 6320W        W 7185   2.120   3.650  27.305
 6321W        W 7186   0.732   4.553  27.368
 6322W        W 7187   0.286   5.753  28.142
 6323W        W 7188   2.145   6.946  26.848
 6324W        W 7189   3.339   4.543  27.720
 6325W        W 7190   1.976   6.890  28.487
 6326W        W 7191   3.319   5.949  25.692
 6327W        W 7192   1.754   5.432  26.753
 6328W        W 7193   3.606   3.943  28.494
 6329W        W 7194   1.755   5.778  28.088
 6330W        W 7195   1.972   4.664  27.533
 6331W        W 7196   2.824   4.962  26.371
 6332W        W 7197   3.111   4.695  26.013
 6333W        W 7198   2.920   6.735  26.402
 6334W        W 7199   2.754   6.338  27.198
 6335W        W 7200   2.650   5.417  26.176
 6336W        W 7201   2.083   5.627  27.162
 6337W        W 7202   2.964   5.415  27.229
 6338W        W 7203   0.339   4.430  27.653
 6339W        W 7204   3.117   5.482  28.480
 6340W        W 7205   3.468   7.100  27.626
 6341W        W 7206   1.398   6.544  27.028
 6342W        W 7207   2.405   7.077  28.352
 6343W        W 7208   2.399   4.407  28.116
 6344W        W 7209   1.606   7.115  28.177
 6345W        W 7210   3.303   4.069  26.643
 6346W        W 7211   3.094   5.388  27.944
 6347W        W 7212   0.077   4.709  27.982
 6348W        W 7213   2.937   4.504  27.000
 6349W        W 7214   3.348   4.655  28.777
 6350W        W 7215   2.233   6.354  26.995
 6351W        W 7216   1.489   6.945  26.608
 6352W        W 7217   0.604   4.125  25.866
 6353W        W 7218   1.708   3.779  27.676
 6354W        W 7219   0.736   6.899  25.524
 6355W        W 7220   1.110   5.365  26.275
 6356W        W 7221   1.764   5.994  28.588
 6357W        W 7222   1.594   4.352  26.578
 6358W        W 7223   2.950   3.949  27.006
 6359W        W 7224   2.670   7.231  27.334
 6360W        W 7225   2.082   6.879  27.674
 6361W        W 7226   1.478   5.916  27.635
 6362W        W 7227   3.248   6.639  27.761
 6363W        W 7228   0.942   4.142  26.530
 6364W        W 7229   1.464   6.439  27.490
 6365W        W 7230   0.947   4.370  25.555
 6366W        W 7231   1.748   4.979  27.949
 6367W        W 7232   2.596   3.845  27.819
 6368W        W 7233   0.016   5.688  27.704
 6369W        W 7234   1.720   5.506  25.862
 6370W        W 7235   0.988   3.821  25.632
 6371W        W 7236   1.726   4.902  26.683
 6372W        W 7237   2.696   3.878  28.382
 6373W        W 7238   1.284   5.890  28.491
 6374W        W 7239   2.088   5.672  28.708
 6375W        W 7240   2.705   5.702  28.601
 6376W        W 7241   1.989   3.842  29.106
 6377W        W 7242   1.211   4.458  27.499
 6378W        W 7243   0.637   4.414  26.897
 6379W        W 7244   0.423   7.126  26.573
 6380W        W 7245   1.755   6.456  28.698
 6381W        W 7246   0.790   5.941  26.057
 6382W        W 7247   2.470   5.326  27.278
 6383W        W 7248   2.750   5.125  27.677
 6384W        W 7249   1.955   5.799  27.611
 6385W        W 7250   2.425   6.173  25.743
 6386W        W 7251   2.097   4.194  27.071
 6387W        W 7252   3.576   4.472  26.339
 6388W        W 7253   0.070   7.061  28.370
 6389W        W 7254   0.487   6.287  27.902
 6390W        W 7255   0.054   7.133  26.134
 6391W        W 7256   1.953   4.403  27.940
 6392W        W 7257   1.316   6.426  25.789
 6393W        W 7258   3.221   6.808  25.975
 6394W        W 7259   2.196   5.461  25.989
 6395W        W 7260   1.039   4.652  26.506
 6396W        W 7261   1.871   4.562  25.558
 6397W        W 7262   2.455   6.127  28.736
 6398W        W 7263   2.808   4.033  26.353
 6399W        W 7264   0.138   3.881  25.801
 6400W        W 7265   1.424   6.200  28.091
 6401W        W 7266   1.223   6.116  27.183
 6402W        W 7267   0.965   6.068  25.581
 6403W        W 7268   0.206   6.309  26.349
 6404W        W 7269   0.710   5.379  28.791
 6405W        W 7270   1.414   3.939  28.977
 6406W        W 7271   2.123   4.081  28.333
 6407W        W 7272   1.318   3.849  26.614
 6408W        W 7273   2.377   3.926  26.119
 6409W        W 7274   0.322   3.858  27.696
 6410W        W 7275   0.370   4.821  27.066
 6411W        W 7276   3.059   3.929  27.472
 6412W        W 7277   0.481   4.427  26.286
 6413W        W 7278   3.052   4.115  27.902
 6414W        W 7279   3.448   5.318  25.587
 6415W        W 7280   0.740   4.076  27.406
 6416W        W 7281   1.854   4.648  28.346
 6417W        W 7282   0.002   4.338  25.824
 6418W        W 7283   0.788   5.727  28.385
 6419W        W 7284   2.146   5.125  27.564
 6420W        W 7285   2.013   7.204  25.860
 6421W        W 7286   0.159   5.711  25.557
 6422W        W 7287   0.894   6.122  28.683
 6423W        W 7288   0.415   5.289  28.314
 6424W        W 7289   1.406   5.394  28.108
 6425W        W 7290   3.174   3.753  28.370
 6426W        W 7291   3.572   5.363  28.361
 6427W        W 7292   3.560   5.563  26.047
 6428W        W 7293   2.423   5.895  26.146
 6429W        W 7294   2.897   7.195  25.841
 6430W        W 7295   2.074   5.185  28.983
 6431W        W 7296   0.404   6.152  29.023
 6432W        W 7297   3.610   4.074  28.975
 6433W        W 7298   3.328   5.002  27.596
 6434W        W 7299   1.636   7.132  29.073
 6435W        W 7300   1.491   3.761  25.800
 6436W        W 7301   3.030   6.360  25.743
 6437W        W 7302   0.799   4.453  28.629
 6438W        W 7303   1.233   6.447  28.491
 6439W        W 7304   3.359   4.438  28.289
 6440W        W 7305   2.570   7.097  26.257
 6441W        W 7306   2.809   5.716  27.624
 6442W        W 7307   1.059   4.132  28.291
 6443W        W 7308   1.528   5.201  29.048
 6444W        W 7309   1.031   6.380  26.242
 6445W        W 7310   2.786   5.878  26.506
 6446W        W 7311   0.554   4.504  28.230
 6447W        W 7312   1.883   6.566  26.694
 6448W        W 7313   3.633   5.126  26.875
 6449W        W 7314   1.855   3.759  28.594
 6450W        W 7315   2.635   6.464  27.673
 6451W        W 7316   2.938   6.808  27.381
 6452W        W 7317   2.157   6.610  25.809
 6453W        W 7318   0.167   6.502  28.651
 6454W        W 7319   0.910   4.494  27.889
 6455W        W 7320   0.880   3.842  26.999
 6456W        W 7321   2.501   4.684  27.691
 6457W        W 7322   1.299   5.855  25.891
 6458W        W 7323   3.297   5.797  27.390
 6459W        W 7324   0.624   6.555  28.813
 6460W        W 7325   3.011   7.237  26.610
 6461W        W 7326   1.110   4.257  27.055
 6462W        W 7327   0.879   5.750  27.145
 6463W        W 7328   1.192   7.161  27.895
 6464W        W 7329   3.259   7.257  28.927
 6465W        W 7330   2.418   5.445  27.860
 6466W        W 7331   0.267   5.243  25.775
 6467W        W 7332   3.401   6.901  26.472
 6468W        W 7333   3.238   4.225  26.091
 6469W        W 7334   1.377   3.744  28.494
 6470W        W 7335   3.083   6.546  26.952
 6471W        W 7336   3.112   5.102  26.857
 6472W        W 7337   1.229   4.775  27.073
 6473W        W 7338   1.474   5.037  28.397
 6474W        W 7339   2.585   6.190  28.260
 6475W        W 7340   1.235   4.644  28.372
 6476W        W 7341   1.214   7.110  26.988
 6477W        W 7342   0.531   7.069  28.622
 6478W        W 7343   0.643   6.430  25.752
 6479W        W 7344   3.160   6.188  26.562
 6480W        W 7345   0.764   4.980  28.448
 6481W        W 7346   3.537   4.910  25.929
 6482W        W 7347   1.282   5.967  26.400
 6483W        W 7348   2.381   5.349  28.481
 6484W        W 7349   2.272   4.977  28.025
 6485W        W 7350   0.832   5.349  28.054
 6486W        W 7351   3.042   7.237  27.883
 6487W        W 7352   2.833   3.871  28.877
 6488W        W 7353   0.497   4.021  28.464
 6489W        W 7354   0.836   5.044  27.517
 6490W        W 7355   1.205   4.858  25.639
 6491W        W 7356   0.008   6.617  28.184
 6492W        W 7357   1.593   5.326  27.627
 6493W        W 7358   1.416   4.351  25.732
 6494W        W 7359   0.551   5.167  26.513
 6495W        W 7360   0.322   7.019  27.950
 6496W        W 7361   3.117   5.245  26.058
 6497W        W 7362   3.212   4.161  28.744
 6498W        W 7363   2.648   6.370  26.707
 6499W        W 7364   0.246   5.294  28.884
 6500W        W 7365   3.212   3.758  26.180
 6501W        W 7366   2.732   6.233  26.191
 6502W        W 7367   1.634   5.291  26.276
 6503W        W 7368   2.821   4.095  25.799
 6504W        W 7369   2.886   4.702  27.985
 6505W        W 7370   0.595   5.295  27.192
 6506W        W 7371   0.889   6.234  26.841
 6507W        W 7372   2.652   4.854  26.806
 6508W        W 7373   1.675   4.233  27.502
 6509W        W 7374   3.637   6.144  28.013
 6510W        W 7375   3.555   4.131  27.574
 6511W        W 7376   0.094   6.961  26.950
 6512W        W 7377   0.603   6.148  26.486
 6513W        W 7378   0.518   3.765  29.039
 6514W        W 7379   1.637   6.618  29.141
 6515W        W 7380   3.392   5.586  26.931
 6516W        W 7381   2.746   5.763  25.811
 6517W        W 7382   2.041   7.284  28.023
 6518W        W 7383   2.898   6.006  29.060
 6519W        W 7384   1.713   3.716  26.340
 6520W        W 7385   2.426   4.585  27.199
 6521W        W 7386   0.112   6.172  27.531
 6522W        W 7387   1.365   4.134  26.172
 6523W        W 7388   1.169   5.618  29.021
 6524W        W 7389   2.163   4.599  26.735
 6525W        W 7390   2.368   6.009  27.857
 6526W        W 7391   0.522   6.614  28.292
 6527W        W 7392   1.113   6.597  29.015
 6528W        W 7393   0.964   4.394  26.029
 6529W        W 7394   2.481   4.536  26.354
 6530W        W 7395   2.439   6.644  28.591
 6531W        W 7396   1.124   5.236  27.190
 6532W        W 7397   0.779   6.934  28.055
 6533W        W 7398   3.524   7.051  25.656
 6534W        W 7399   0.387   5.723  28.652
 6535W        W 7400   2.382   5.985  27.340
 6536W        W 7401   0.818   5.634  26.582
 6537W        W 7402   1.189   6.641  27.977
 6538W        W 7403   1.567   4.060  27.018
 6539W        W 7404   0.178   6.044  25.948
 6540W        W 7405   1.697   4.995  25.818
 6541W        W 7406   0.343   5.544  26.837
 6542W        W 7407   1.633   4.186  28.301
 6543W        W 7408   3.305   3.895  25.728
 6544W        W 7409   3.398   5.641  28.827
 6545W        W 7410   2.052   6.898  28.979
 6546W        W 7411   3.610   5.992  28.501
 6547W        W 7412   3.018   6.790  29.112
 6548W        W 7413   0.757   7.246  27.590
 6549W        W 7414   3.616   5.868  26.464
 6550W        W 7415   2.146   5.135  26.977
 6551W        W 7416   1.913   3.747  26.867
 6552W        W 7417   0.972   6.731  26.704
 6553W        W 7418   1.471   4.472  27.929
 6554W        W 7419   1.171   3.841  27.398
 6555W        W 7420   0.234   6.663  25.946
 6556W        W 7421   2.050   6.027  26.664
 6557W        W 7422   0.925   6.822  28.543
 6558W        W 7423   0.402   5.645  26.239
 6559W        W 7424   0.287   4.188  27.238
 6560W        W 7425   1.835   6.153  27.295
 6561W        W 7426   0.087   4.007  26.315
 6562W        W 7427   2.751   5.213  28.242
 6563W        W 7428   2.628   4.599  25.814
 6564W        W 7429   3.145   6.271  27.462
 6565W        W 7430   1.806   6.755  27.293
 6566W        W 7431   1.218   6.859  26.204
 6567W        W 7432   2.500   3.762  25.634
 6568W        W 7433   0.300   7.022  27.375
 6569W        W 7434   2.497   4.780  29.010
 6570W        W 7435   0.480   4.310  29.009
 6571W        W 7436   0.211   4.910  26.342
 6572W        W 7437   0.902   4.899  26.067
 6573W        W 7438   2.665   5.226  28.884
 6574W        W 7439   1.008   5.507  27.593
 6575W        W 7440   2.482   3.793  26.713
 6576W        W 7441   1.613   7.224  27.216
 6577W        W 7442   2.827   6.686  28.153
 6578W        W 7443   2.411   6.835  27.264
 6579W        W 7444   2.430   5.815  26.858
 6580W        W 7445   1.892   4.040  25.929
 6581W        W 7446   3.573   3.668  26.651
 6582W        W 7447   1.261   5.303  25.814
 6583W        W 7448   3.427   4.640  26.804
 6584W        W 7449   2.119   5.810  25.681
 6585W        W 7450   3.055   6.010  28.429
 6586W        W 7451   2.709   6.711  25.896
 6587W        W 7452   1.324   4.386  28.802
 6588W        W 7453   1.144   4.970  28.043
 6589W        W 7454   3.236   6.465  28.320
 6590W        W 7455   2.336   4.415  28.697
 6591W        W 7456   0.180   4.886  28.474
 6592W        W 7457   1.940   5.363  28.200
 6593W        W 7458   0.297   6.121  26.857
 6594W        W 7459   0.444   5.418  27.747
 6595W        W 7460   2.761   5.704  28.097
 6596W        W 7461   2.533   7.084  28.908
 6597W        W 7462   2.429   4.823  28.461
 6598W        W 7463   2.706   6.877  26.866
 6599W        W 7464   1.708   6.597  28.189
 6600W        W 7465   1.193   6.952  27.458
 6601W        W 7466   2.998   6.123  27.877
 6602W        W 7467   2.048   6.195  29.014
 6603W        W 7468   0.653   6.148  27.353
 6604W        W 7469   2.999   5.907  26.998
 6605W        W 7470   2.640   6.973  27.749
 6606W        W 7471   0.618   6.702  27.619
 6607W        W 7472   1.639   4.754  28.829
 6608W        W 7473   2.090   6.920  26.340
 6609W        W 7474   1.398   6.175  28.978
 6610W        W 7475   1.524   6.413  26.355
 6611W        W 7476   0.745   5.153  25.614
 6612W        W 7477   0.084  10.884   3.359
 6613W        W 7478   0.460   9.777   2.882
 6614W        W 7479   3.165   9.507   0.652
 6615W        W 7480   3.295  10.592   2.679
 6616W        W 7481   1.213  10.583   0.205
 6617W        W 7482   1.296   8.735   1.188
 6618W        W 7483   0.811   8.583   1.352
 6619W        W 7484   1.802   9.398   0.786
 6620W        W 7485   1.477  10.490   3.141
 6621W        W 7486   0.126   8.051   3.104
 6622W        W 7487   0.888   7.331   2.906
 6623W        W 7488   2.582   7.719   1.793
 6624W        W 7489   2.231   8.590   0.363
 6625W        W 7490   2.801   8.024   3.454
 6626W        W 7491   0.167   7.816   2.579
 6627W        W 7492   0.266  10.435   3.600
 6628W        W 7493   1.788   9.825   0.332
 6629W        W 7494   0.220   8.608   2.025
 6630W        W 7495   1.113   8.499   3.262
 6631W        W 7496   3.572   8.358   1.761
 6632W        W 7497   3.336   9.401   2.620
 6633W        W 7498   1.644   8.734   1.647
 6634W        W 7499   2.190  10.073   2.016
 6635W        W 7500   0.690   9.507   2.248
 6636W        W 7501   0.049   9.035   1.819
 6637W        W 7502   1.085   9.007   3.011
 6638W        W 7503   3.356   8.790   3.265
 6639W        W 7504   0.972  10.234   1.710
 6640W        W 7505   2.093   9.923   2.844
 6641W        W 7506   1.313   8.563   2.069
 6642W        W 7507   1.605   9.347   1.712
 6643W        W 7508   2.602  10.120   3.560
 6644W        W 7509   1.681   9.440   3.570
 6645W        W 7510   1.662   9.156   3.048
 6646W        W 7511   0.071   8.547   3.570
 6647W        W 7512   2.903  10.082   3.169
 6648W        W 7513   0.484   7.664   1.167
 6649W        W 7514   1.011   9.922   2.166
 6650W        W 7515   3.474   9.705   1.456
 6651W        W 7516   2.887   8.105   2.023
 6652W        W 7517   3.172   8.058   0.118
 6653W        W 7518   3.637   8.859   2.424
 6654W        W 7519   1.604  10.566   2.177
 6655W        W 7520   3.378  10.032   0.615
 6656W        W 7521   0.507  10.818   0.369
 6657W        W 7522   0.900  10.864   1.045
 6658W        W 7523   0.697   7.618   2.471
 6659W        W 7524   3.320   8.636   2.746
 6660W        W 7525   2.725   9.058   1.205
 6661W        W 7526   2.691   8.746   0.232
 6662W        W 7527   1.899   9.890   2.372
 6663W        W 7528   1.705   8.220   1.571
 6664W        W 7529   2.305  10.307   2.565
 6665W        W 7530   3.176   9.098   0.987
 6666W        W 7531   2.078   7.756   1.003
 6667W        W 7532   0.735  10.450   0.686
 6668W        W 7533   0.106   7.949   1.285
 6669W        W 7534   2.892   8.556   1.759
 6670W        W 7535   0.350  10.173   1.674
 6671W        W 7536   1.691  10.523   0.544
 6672W        W 7537   3.083   8.549   0.008
 6673W        W 7538   0.106  10.307   2.172
 6674W        W 7539   0.897   9.879   2.652
 6675W        W 7540   1.270   9.239   1.271
 6676W        W 7541   1.292   7.644   2.364
 6677W        W 7542   3.521   7.406   1.661
 6678W        W 7543   0.740   9.278   0.129
 6679W        W 7544   0.395   8.311   0.308
 6680W        W 7545   0.457  10.267   1.102
 6681W        W 7546   1.588   9.750   1.350
 6682W        W 7547   2.920  10.609   3.064
 6683W        W 7548   1.846   8.251   0.748
 6684W        W 7549   3.229  10.649   1.520
 6685W        W 7550   2.906   8.502   3.118
 6686W        W 7551   3.619  10.158   1.252
 6687W        W 7552   2.246   9.450   2.736
 6688W        W 7553   0.012   9.001   0.942
 6689W        W 7554   1.123   9.416   2.515
 6690W        W 7555   2.327   8.680   0.893
 6691W        W 7556   2.204   9.170   0.997
 6692W        W 7557   0.547   8.590   2.471
 6693W        W 7558   0.532   8.466   3.393
 6694W        W 7559   0.422   7.383   1.552
 6695W        W 7560   2.190   7.730   2.113
 6696W        W 7561   1.838   7.915   3.276
 6697W        W 7562   2.193   8.064   0.454
 6698W        W 7563   3.376  10.457   3.208
 6699W        W 7564   2.343   7.538   3.247
 6700W        W 7565   3.362   9.839   3.369
 6701W        W 7566   2.792   8.006   2.965
 6702W        W 7567   2.592   7.944   1.235
 6703W        W 7568   2.985   9.078   3.639
 6704W        W 7569   0.725  10.654   1.625
 6705W        W 7570   1.383   8.371   0.611
 6706W        W 7571   0.952   7.655   3.275
 6707W        W 7572   3.004   8.139   0.956
 6708W        W 7573   3.371   8.621   0.901
 6709W        W 7574   1.114  10.838   3.372
 6710W        W 7575   1.040   7.374   0.607
 6711W        W 7576   3.361   7.908   1.642
 6712W        W 7577   3.511  10.157   0.087
 6713W        W 7578   0.418   9.360   1.789
 6714W        W 7579   2.335   7.947   0.019
 6715W        W 7580   3.469  10.279   1.739
 6716W        W 7581   3.508   7.473   2.489
 6717W        W 7582   1.953   8.685   3.043
 6718W        W 7583   2.046  10.024   0.746
 6719W        W 7584   2.446   9.318   3.486
 6720W        W 7585   2.120   7.295   1.795
 6721W        W 7586   0.732   8.198   1.858
 6722W        W 7587   0.286   9.398   2.632
 6723W        W 7588   2.145  10.591   1.338
 6724W        W 7589   3.339   8.188   2.210
 6725W        W 7590   1.976  10.535   2.977
 6726W        W 7591   3.319   9.594   0.182
 6727W        W 7592   1.754   9.077   1.243
 6728W        W 7593   3.606   7.588   2.984
 6729W        W 7594   1.755   9.423   2.578
 6730W        W 7595   1.972   8.309   2.023
 6731W        W 7596   2.824   8.607   0.861
 6732W        W 7597   3.111   8.340   0.503
 6733W        W 7598   2.920  10.380   0.892
 6734W        W 7599   2.754   9.983   1.688
 6735W        W 7600   2.650   9.062   0.666
 6736W        W 7601   2.083   9.272   1.652
 6737W        W 7602   2.964   9.060   1.719
 6738W        W 7603   0.339   8.075   2.143
 6739W        W 7604   3.117   9.127   2.970
 6740W        W 7605   3.468  10.745   2.116
 6741W        W 7606   1.398  10.189   1.518
 6742W        W 7607   2.405  10.722   2.842
 6743W        W 7608   2.399   8.052   2.606
 6744W        W 7609   1.606  10.760   2.667
 6745W        W 7610   3.303   7.714   1.133
 6746W        W 7611   3.094   9.033   2.434
 6747W        W 7612   0.077   8.354   2.472
 6748W        W 7613   2.937   8.149   1.490
 6749W        W 7614   3.348   8.300   3.267
 6750W        W 7615   2.233   9.999   1.485
 6751W        W 7616   1.489  10.590   1.098
 6752W        W 7617   0.604   7.770   0.356
 6753W        W 7618   1.708   7.424   2.166
 6754W        W 7619   0.736  10.544   0.014
 6755W        W 7620   1.110   9.010   0.765
 6756W        W 7621   1.764   9.639   3.078
 6757W        W 7622   1.594   7.997   1.068
 6758W        W 7623   2.950   7.594   1.496
 6759W        W 7624   2.670  10.876   1.824
 6760W        W 7625   2.082  10.524   2.164
 6761W        W 7626   1.478   9.561   2.125
 6762W        W 7627   3.248  10.284   2.251
 6763W        W 7628   0.942   7.787   1.020
 6764W        W 7629   1.464  10.084   1.980
 6765W        W 7630   0.947   8.015   0.045
 6766W        W 7631   1.748   8.624   2.439
 6767W        W 7632   2.596   7.490   2.309
 6768W        W 7633   0.016   9.333   2.194
 6769W        W 7634   1.720   9.151   0.352
 6770W        W 7635   0.988   7.466   0.122
 6771W        W 7636   1.726   8.547   1.173
 6772W        W 7637   2.696   7.523   2.872
 6773W        W 7638   1.284   9.535   2.981
 6774W        W 7639   2.088   9.317   3.198
 6775W        W 7640   2.705   9.347   3.091
 6776W        W 7641   1.989   7.487   3.596
 6777W        W 7642   1.211   8.103   1.989
 6778W        W 7643   0.637   8.059   1.387
 6779W        W 7644   0.423  10.771   1.063
 6780W        W 7645   1.755  10.101   3.188
 6781W        W 7646   0.790   9.586   0.547
 6782W        W 7647   2.470   8.971   1.768
 6783W        W 7648   2.750   8.770   2.167
 6784W        W 7649   1.955   9.444   2.101
 6785W        W 7650   2.425   9.818   0.233
 6786W        W 7651   2.097   7.839   1.561
 6787W        W 7652   3.576   8.117   0.829
 6788W        W 7653   0.070  10.706   2.860
 6789W        W 7654   0.487   9.932   2.392
 6790W        W 7655   0.054  10.778   0.624
 6791W        W 7656   1.953   8.048   2.430
 6792W        W 7657   1.316  10.071   0.279
 6793W        W 7658   3.221  10.453   0.465
 6794W        W 7659   2.196   9.106   0.479
 6795W        W 7660   1.039   8.297   0.996
 6796W        W 7661   1.871   8.207   0.048
 6797W        W 7662   2.455   9.772   3.226
 6798W        W 7663   2.808   7.678   0.843
 6799W        W 7664   0.138   7.526   0.291
 6800W        W 7665   1.424   9.845   2.581
 6801W        W 7666   1.223   9.761   1.673
 6802W        W 7667   0.965   9.713   0.071
 6803W        W 7668   0.206   9.954   0.839
 6804W        W 7669   0.710   9.024   3.281
 6805W        W 7670   1.414   7.584   3.467
 6806W        W 7671   2.123   7.726   2.823
 6807W        W 7672   1.318   7.494   1.104
 6808W        W 7673   2.377   7.571   0.609
 6809W        W 7674   0.322   7.503   2.186
 6810W        W 7675   0.370   8.466   1.556
 6811W        W 7676   3.059   7.574   1.962
 6812W        W 7677   0.481   8.072   0.776
 6813W        W 7678   3.052   7.760   2.392
 6814W        W 7679   3.448   8.963   0.077
 6815W        W 7680   0.740   7.721   1.896
 6816W        W 7681   1.854   8.293   2.836
 6817W        W 7682   0.002   7.983   0.314
 6818W        W 7683   0.788   9.372   2.875
 6819W        W 7684   2.146   8.770   2.054
 6820W        W 7685   2.013  10.849   0.350
 6821W        W 7686   0.159   9.356   0.047
 6822W        W 7687   0.894   9.767   3.173
 6823W        W 7688   0.415   8.934   2.804
 6824W        W 7689   1.406   9.039   2.598
 6825W        W 7690   3.174   7.398   2.860
 6826W        W 7691   3.572   9.008   2.851
 6827W        W 7692   3.560   9.208   0.537
 6828W        W 7693   2.423   9.540   0.636
 6829W        W 7694   2.897  10.840   0.331
 6830W        W 7695   2.074   8.830   3.473
 6831W        W 7696   0.404   9.797   3.513
 6832W        W 7697   3.610   7.719   3.465
 6833W        W 7698   3.328   8.647   2.086
 6834W        W 7699   1.636  10.777   3.563
 6835W        W 7700   1.491   7.406   0.290
 6836W        W 7701   3.030  10.005   0.233
 6837W        W 7702   0.799   8.098   3.119
 6838W        W 7703   1.233  10.092   2.981
 6839W        W 7704   3.359   8.083   2.779
 6840W        W 7705   2.570  10.742   0.747
 6841W        W 7706   2.809   9.361   2.114
 6842W        W 7707   1.059   7.777   2.781
 6843W        W 7708   1.528   8.846   3.538
 6844W        W 7709   1.031  10.025   0.732
 6845W        W 7710   2.786   9.523   0.996
 6846W        W 7711   0.554   8.149   2.720
 6847W        W 7712   1.883  10.211   1.184
 6848W        W 7713   3.633   8.771   1.365
 6849W        W 7714   1.855   7.404   3.084
 6850W        W 7715   2.635  10.109   2.163
 6851W        W 7716   2.938  10.453   1.871
 6852W        W 7717   2.157  10.255   0.299
 6853W        W 7718   0.167  10.147   3.141
 6854W        W 7719   0.910   8.139   2.379
 6855W        W 7720   0.880   7.487   1.489
 6856W        W 7721   2.501   8.329   2.181
 6857W        W 7722   1.299   9.500   0.381
 6858W        W 7723   3.297   9.442   1.880
 6859W        W 7724   0.624  10.200   3.303
 6860W        W 7725   3.011  10.882   1.100
 6861W        W 7726   1.110   7.902   1.545
 6862W        W 7727   0.879   9.395   1.635
 6863W        W 7728   1.192  10.806   2.385
 6864W        W 7729   3.259  10.902   3.417
 6865W        W 7730   2.418   9.090   2.350
 6866W        W 7731   0.267   8.888   0.265
 6867W        W 7732   3.401  10.546   0.962
 6868W        W 7733   3.238   7.870   0.581
 6869W        W 7734   1.377   7.389   2.984
 6870W        W 7735   3.083  10.191   1.442
 6871W        W 7736   3.112   8.747   1.347
 6872W        W 7737   1.229   8.420   1.563
 6873W        W 7738   1.474   8.682   2.887
 6874W        W 7739   2.585   9.835   2.750
 6875W        W 7740   1.235   8.289   2.862
 6876W        W 7741   1.214  10.755   1.478
 6877W        W 7742   0.531  10.714   3.112
 6878W        W 7743   0.643  10.075   0.242
 6879W        W 7744   3.160   9.833   1.052
 6880W        W 7745   0.764   8.625   2.938
 6881W        W 7746   3.537   8.555   0.419
 6882W        W 7747   1.282   9.612   0.890
 6883W        W 7748   2.381   8.994   2.971
 6884W        W 7749   2.272   8.622   2.515
 6885W        W 7750   0.832   8.994   2.544
 6886W        W 7751   3.042  10.882   2.373
 6887W        W 7752   2.833   7.516   3.367
 6888W        W 7753   0.497   7.666   2.954
 6889W        W 7754   0.836   8.689   2.007
 6890W        W 7755   1.205   8.503   0.129
 6891W        W 7756   0.008  10.262   2.674
 6892W        W 7757   1.593   8.971   2.117
 6893W        W 7758   1.416   7.996   0.222
 6894W        W 7759   0.551   8.812   1.003
 6895W        W 7760   0.322  10.664   2.440
 6896W        W 7761   3.117   8.890   0.548
 6897W        W 7762   3.212   7.806   3.234
 6898W        W 7763   2.648  10.015   1.197
 6899W        W 7764   0.246   8.939   3.374
 6900W        W 7765   3.212   7.403   0.670
 6901W        W 7766   2.732   9.878   0.681
 6902W        W 7767   1.634   8.936   0.766
 6903W        W 7768   2.821   7.740   0.289
 6904W        W 7769   2.886   8.347   2.475
 6905W        W 7770   0.595   8.940   1.682
 6906W        W 7771   0.889   9.879   1.331
 6907W        W 7772   2.652   8.499   1.296
 6908W        W 7773   1.675   7.878   1.992
 6909W        W 7774   3.637   9.789   2.503
 6910W        W 7775   3.555   7.776   2.064
 6911W        W 7776   0.094  10.606   1.440
 6912W        W 7777   0.603   9.793   0.976
 6913W        W 7778   0.518   7.410   3.529
 6914W        W 7779   1.637  10.263   3.631
 6915W        W 7780   3.392   9.231   1.421
 6916W        W 7781   2.746   9.408   0.301
 6917W        W 7782   2.041  10.929   2.513
 6918W        W 7783   2.898   9.651   3.550
 6919W        W 7784   1.713   7.361   0.830
 6920W        W 7785   2.426   8.230   1.689
 6921W        W 7786   0.112   9.817   2.021
 6922W        W 7787   1.365   7.779   0.662
 6923W        W 7788   1.169   9.263   3.511
 6924W        W 7789   2.163   8.244   1.225
 6925W        W 7790   2.368   9.654   2.347
 6926W        W 7791   0.522  10.259   2.782
 6927W        W 7792   1.113  10.242   3.505
 6928W        W 7793   0.964   8.039   0.519
 6929W        W 7794   2.481   8.181   0.844
 6930W        W 7795   2.439  10.289   3.081
 6931W        W 7796   1.124   8.881   1.680
 6932W        W 7797   0.779  10.579   2.545
 6933W        W 7798   3.524  10.696   0.146
 6934W        W 7799   0.387   9.368   3.142
 6935W        W 7800   2.382   9.630   1.830
 6936W        W 7801   0.818   9.279   1.072
 6937W        W 7802   1.189  10.286   2.467
 6938W        W 7803   1.567   7.705   1.508
 6939W        W 7804   0.178   9.689   0.438
 6940W        W 7805   1.697   8.640   0.308
 6941W        W 7806   0.343   9.189   1.327
 6942W        W 7807   1.633   7.831   2.791
 6943W        W 7808   3.305   7.540   0.218
 6944W        W 7809   3.398   9.286   3.317
 6945W        W 7810   2.052  10.543   3.469
 6946W        W 7811   3.610   9.637   2.991
 6947W        W 7812   3.018  10.435   3.602
 6948W        W 7813   0.757  10.891   2.080
 6949W        W 7814   3.616   9.513   0.954
 6950W        W 7815   2.146   8.780   1.467
 6951W        W 7816   1.913   7.392   1.357
 6952W        W 7817   0.972  10.376   1.194
 6953W        W 7818   1.471   8.117   2.419
 6954W        W 7819   1.171   7.486   1.888
 6955W        W 7820   0.234  10.308   0.436
 6956W        W 7821   2.050   9.672   1.154
 6957W        W 7822   0.925  10.467   3.033
 6958W        W 7823   0.402   9.290   0.729
 6959W        W 7824   0.287   7.833   1.728
 6960W        W 7825   1.835   9.798   1.785
 6961W        W 7826   0.087   7.652   0.805
 6962W        W 7827   2.751   8.858   2.732
 6963W        W 7828   2.628   8.244   0.304
 6964W        W 7829   3.145   9.916   1.952
 6965W        W 7830   1.806  10.400   1.783
 6966W        W 7831   1.218  10.504   0.694
 6967W        W 7832   2.500   7.407   0.124
 6968W        W 7833   0.300  10.667   1.865
 6969W        W 7834   2.497   8.425   3.500
 6970W        W 7835   0.480   7.955   3.499
 6971W        W 7836   0.211   8.555   0.832
 6972W        W 7837   0.902   8.544   0.557
 6973W        W 7838   2.665   8.871   3.374
 6974W        W 7839   1.008   9.152   2.083
 6975W        W 7840   2.482   7.438   1.203
 6976W        W 7841   1.613  10.869   1.706
 6977W        W 7842   2.827  10.331   2.643
 6978W        W 7843   2.411  10.480   1.754
 6979W        W 7844   2.430   9.460   1.348
 6980W        W 7845   1.892   7.685   0.419
 6981W        W 7846   3.573   7.313   1.141
 6982W        W 7847   1.261   8.948   0.304
 6983W        W 7848   3.427   8.285   1.294
 6984W        W 7849   2.119   9.455   0.171
 6985W        W 7850   3.055   9.655   2.919
 6986W        W 7851   2.709  10.356   0.386
 6987W        W 7852   1.324   8.031   3.292
 6988W        W 7853   1.144   8.615   2.533
 6989W        W 7854   3.236  10.110   2.810
 6990W        W 7855   2.336   8.060   3.187
 6991W        W 7856   0.180   8.531   2.964
 6992W        W 7857   1.940   9.008   2.690
 6993W        W 7858   0.297   9.766   1.347
 6994W        W 7859   0.444   9.063   2.237
 6995W        W 7860   2.761   9.349   2.587
 6996W        W 7861   2.533  10.729   3.398
 6997W        W 7862   2.429   8.468   2.951
 6998W        W 7863   2.706  10.522   1.356
 6999W        W 7864   1.708  10.242   2.679
 7000W        W 7865   1.193  10.597   1.948
 7001W        W 7866   2.998   9.768   2.367
 7002W        W 7867   2.048   9.840   3.504
 7003W        W 7868   0.653   9.793   1.843
 7004W        W 7869   2.999   9.552   1.488
 7005W        W 7870   2.640  10.618   2.239
 7006W        W 7871   0.618  10.347   2.109
 7007W        W 7872   1.639   8.399   3.319
 7008W        W 7873   2.090  10.565   0.830
 7009W        W 7874   1.398   9.820   3.468
 7010W        W 7875   1.524  10.058   0.845
 7011W        W 7876   0.745   8.798   0.104
 7012W        W 7877   0.084  10.884   7.003
 7013W        W 7878   0.460   9.777   6.526
 7014W        W 7879   3.165   9.507   4.296
 7015W        W 7880   3.295  10.592   6.323
 7016W        W 7881   1.213  10.583   3.849
 7017W        W 7882   1.296   8.735   4.832
 7018W        W 7883   0.811   8.583   4.996
 7019W        W 7884   1.802   9.398   4.430
 7020W        W 7885   1.477  10.490   6.785
 7021W        W 7886   0.126   8.051   6.748
 7022W        W 7887   0.888   7.331   6.550
 7023W        W 7888   2.582   7.719   5.437
 7024W        W 7889   2.231   8.590   4.007
 7025W        W 7890   2.801   8.024   7.098
 7026W        W 7891   0.167   7.816   6.223
 7027W        W 7892   0.266  10.435   7.244
 7028W        W 7893   1.788   9.825   3.976
 7029W        W 7894   0.220   8.608   5.669
 7030W        W 7895   1.113   8.499   6.906
 7031W        W 7896   3.572   8.358   5.405
 7032W        W 7897   3.336   9.401   6.264
 7033W        W 7898   1.644   8.734   5.291
 7034W        W 7899   2.190  10.073   5.660
 7035W        W 7900   0.690   9.507   5.892
 7036W        W 7901   0.049   9.035   5.463
 7037W        W 7902   1.085   9.007   6.655
 7038W        W 7903   3.356   8.790   6.909
 7039W        W 7904   0.972  10.234   5.354
 7040W        W 7905   2.093   9.923   6.488
 7041W        W 7906   1.313   8.563   5.713
 7042W        W 7907   1.605   9.347   5.356
 7043W        W 7908   2.602  10.120   7.204
 7044W        W 7909   1.681   9.440   7.214
 7045W        W 7910   1.662   9.156   6.692
 7046W        W 7911   0.071   8.547   7.214
 7047W        W 7912   2.903  10.082   6.813
 7048W        W 7913   0.484   7.664   4.811
 7049W        W 7914   1.011   9.922   5.810
 7050W        W 7915   3.474   9.705   5.100
 7051W        W 7916   2.887   8.105   5.667
 7052W        W 7917   3.172   8.058   3.762
 7053W        W 7918   3.637   8.859   6.068
 7054W        W 7919   1.604  10.566   5.821
 7055W        W 7920   3.378  10.032   4.259
 7056W        W 7921   0.507  10.818   4.013
 7057W        W 7922   0.900  10.864   4.689
 7058W        W 7923   0.697   7.618   6.115
 7059W        W 7924   3.320   8.636   6.390
 7060W        W 7925   2.725   9.058   4.849
 7061W        W 7926   2.691   8.746   3.876
 7062W        W 7927   1.899   9.890   6.016
 7063W        W 7928   1.705   8.220   5.215
 7064W        W 7929   2.305  10.307   6.209
 7065W        W 7930   3.176   9.098   4.631
 7066W        W 7931   2.078   7.756   4.647
 7067W        W 7932   0.735  10.450   4.330
 7068W        W 7933   0.106   7.949   4.929
 7069W        W 7934   2.892   8.556   5.403
 7070W        W 7935   0.350  10.173   5.318
 7071W        W 7936   1.691  10.523   4.188
 7072W        W 7937   3.083   8.549   3.652
 7073W        W 7938   0.106  10.307   5.816
 7074W        W 7939   0.897   9.879   6.296
 7075W        W 7940   1.270   9.239   4.915
 7076W        W 7941   1.292   7.644   6.008
 7077W        W 7942   3.521   7.406   5.305
 7078W        W 7943   0.740   9.278   3.773
 7079W        W 7944   0.395   8.311   3.952
 7080W        W 7945   0.457  10.267   4.746
 7081W        W 7946   1.588   9.750   4.994
 7082W        W 7947   2.920  10.609   6.708
 7083W        W 7948   1.846   8.251   4.392
 7084W        W 7949   3.229  10.649   5.164
 7085W        W 7950   2.906   8.502   6.762
 7086W        W 7951   3.619  10.158   4.896
 7087W        W 7952   2.246   9.450   6.380
 7088W        W 7953   0.012   9.001   4.586
 7089W        W 7954   1.123   9.416   6.159
 7090W        W 7955   2.327   8.680   4.537
 7091W        W 7956   2.204   9.170   4.641
 7092W        W 7957   0.547   8.590   6.115
 7093W        W 7958   0.532   8.466   7.037
 7094W        W 7959   0.422   7.383   5.196
 7095W        W 7960   2.190   7.730   5.757
 7096W        W 7961   1.838   7.915   6.920
 7097W        W 7962   2.193   8.064   4.098
 7098W        W 7963   3.376  10.457   6.852
 7099W        W 7964   2.343   7.538   6.891
 7100W        W 7965   3.362   9.839   7.013
 7101W        W 7966   2.792   8.006   6.609
 7102W        W 7967   2.592   7.944   4.879
 7103W        W 7968   2.985   9.078   7.283
 7104W        W 7969   0.725  10.654   5.269
 7105W        W 7970   1.383   8.371   4.255
 7106W        W 7971   0.952   7.655   6.919
 7107W        W 7972   3.004   8.139   4.600
 7108W        W 7973   3.371   8.621   4.545
 7109W        W 7974   1.114  10.838   7.016
 7110W        W 7975   1.040   7.374   4.251
 7111W        W 7976   3.361   7.908   5.286
 7112W        W 7977   3.511  10.157   3.731
 7113W        W 7978   0.418   9.360   5.433
 7114W        W 7979   2.335   7.947   3.663
 7115W        W 7980   3.469  10.279   5.383
 7116W        W 7981   3.508   7.473   6.133
 7117W        W 7982   1.953   8.685   6.687
 7118W        W 7983   2.046  10.024   4.390
 7119W        W 7984   2.446   9.318   7.130
 7120W        W 7985   2.120   7.295   5.439
 7121W        W 7986   0.732   8.198   5.502
 7122W        W 7987   0.286   9.398   6.276
 7123W        W 7988   2.145  10.591   4.982
 7124W        W 7989   3.339   8.188   5.854
 7125W        W 7990   1.976  10.535   6.621
 7126W        W 7991   3.319   9.594   3.826
 7127W        W 7992   1.754   9.077   4.887
 7128W        W 7993   3.606   7.588   6.628
 7129W        W 7994   1.755   9.423   6.222
 7130W        W 7995   1.972   8.309   5.667
 7131W        W 7996   2.824   8.607   4.505
 7132W        W 7997   3.111   8.340   4.147
 7133W        W 7998   2.920  10.380   4.536
 7134W        W 7999   2.754   9.983   5.332
 7135W        W 8000   2.650   9.062   4.310
 7136W        W 8001   2.083   9.272   5.296
 7137W        W 8002   2.964   9.060   5.363
 7138W        W 8003   0.339   8.075   5.787
 7139W        W 8004   3.117   9.127   6.614
 7140W        W 8005   3.468  10.745   5.760
 7141W        W 8006   1.398  10.189   5.162
 7142W        W 8007   2.405  10.722   6.486
 7143W        W 8008   2.399   8.052   6.250
 7144W        W 8009   1.606  10.760   6.311
 7145W        W 8010   3.303   7.714   4.777
 7146W        W 8011   3.094   9.033   6.078
 7147W        W 8012   0.077   8.354   6.116
 7148W        W 8013   2.937   8.149   5.134
 7149W        W 8014   3.348   8.300   6.911
 7150W        W 8015   2.233   9.999   5.129
 7151W        W 8016   1.489  10.590   4.742
 7152W        W 8017   0.604   7.770   4.000
 7153W        W 8018   1.708   7.424   5.810
 7154W        W 8019   0.736  10.544   3.658
 7155W        W 8020   1.110   9.010   4.409
 7156W        W 8021   1.764   9.639   6.722
 7157W        W 8022   1.594   7.997   4.712
 7158W        W 8023   2.950   7.594   5.140
 7159W        W 8024   2.670  10.876   5.468
 7160W        W 8025   2.082  10.524   5.808
 7161W        W 8026   1.478   9.561   5.769
 7162W        W 8027   3.248  10.284   5.895
 7163W        W 8028   0.942   7.787   4.664
 7164W        W 8029   1.464  10.084   5.624
 7165W        W 8030   0.947   8.015   3.689
 7166W        W 8031   1.748   8.624   6.083
 7167W        W 8032   2.596   7.490   5.953
 7168W        W 8033   0.016   9.333   5.838
 7169W        W 8034   1.720   9.151   3.996
 7170W        W 8035   0.988   7.466   3.766
 7171W        W 8036   1.726   8.547   4.817
 7172W        W 8037   2.696   7.523   6.516
 7173W        W 8038   1.284   9.535   6.625
 7174W        W 8039   2.088   9.317   6.842
 7175W        W 8040   2.705   9.347   6.735
 7176W        W 8041   1.989   7.487   7.240
 7177W        W 8042   1.211   8.103   5.633
 7178W        W 8043   0.637   8.059   5.031
 7179W        W 8044   0.423  10.771   4.707
 7180W        W 8045   1.755  10.101   6.832
 7181W        W 8046   0.790   9.586   4.191
 7182W        W 8047   2.470   8.971   5.412
 7183W        W 8048   2.750   8.770   5.811
 7184W        W 8049   1.955   9.444   5.745
 7185W        W 8050   2.425   9.818   3.877
 7186W        W 8051   2.097   7.839   5.205
 7187W        W 8052   3.576   8.117   4.473
 7188W        W 8053   0.070  10.706   6.504
 7189W        W 8054   0.487   9.932   6.036
 7190W        W 8055   0.054  10.778   4.268
 7191W        W 8056   1.953   8.048   6.074
 7192W        W 8057   1.316  10.071   3.923
 7193W        W 8058   3.221  10.453   4.109
 7194W        W 8059   2.196   9.106   4.123
 7195W        W 8060   1.039   8.297   4.640
 7196W        W 8061   1.871   8.207   3.692
 7197W        W 8062   2.455   9.772   6.870
 7198W        W 8063   2.808   7.678   4.487
 7199W        W 8064   0.138   7.526   3.935
 7200W        W 8065   1.424   9.845   6.225
 7201W        W 8066   1.223   9.761   5.317
 7202W        W 8067   0.965   9.713   3.715
 7203W        W 8068   0.206   9.954   4.483
 7204W        W 8069   0.710   9.024   6.925
 7205W        W 8070   1.414   7.584   7.111
 7206W        W 8071   2.123   7.726   6.467
 7207W        W 8072   1.318   7.494   4.748
 7208W        W 8073   2.377   7.571   4.253
 7209W        W 8074   0.322   7.503   5.830
 7210W        W 8075   0.370   8.466   5.200
 7211W        W 8076   3.059   7.574   5.606
 7212W        W 8077   0.481   8.072   4.420
 7213W        W 8078   3.052   7.760   6.036
 7214W        W 8079   3.448   8.963   3.721
 7215W        W 8080   0.740   7.721   5.540
 7216W        W 8081   1.854   8.293   6.480
 7217W        W 8082   0.002   7.983   3.958
 7218W        W 8083   0.788   9.372   6.519
 7219W        W 8084   2.146   8.770   5.698
 7220W        W 8085   2.013  10.849   3.994
 7221W        W 8086   0.159   9.356   3.691
 7222W        W 8087   0.894   9.767   6.817
 7223W        W 8088   0.415   8.934   6.448
 7224W        W 8089   1.406   9.039   6.242
 7225W        W 8090   3.174   7.398   6.504
 7226W        W 8091   3.572   9.008   6.495
 7227W        W 8092   3.560   9.208   4.181
 7228W        W 8093   2.423   9.540   4.280
 7229W        W 8094   2.897  10.840   3.975
 7230W        W 8095   2.074   8.830   7.117
 7231W        W 8096   0.404   9.797   7.157
 7232W        W 8097   3.610   7.719   7.109
 7233W        W 8098   3.328   8.647   5.730
 7234W        W 8099   1.636  10.777   7.207
 7235W        W 8100   1.491   7.406   3.934
 7236W        W 8101   3.030  10.005   3.877
 7237W        W 8102   0.799   8.098   6.763
 7238W        W 8103   1.233  10.092   6.625
 7239W        W 8104   3.359   8.083   6.423
 7240W        W 8105   2.570  10.742   4.391
 7241W        W 8106   2.809   9.361   5.758
 7242W        W 8107   1.059   7.777   6.425
 7243W        W 8108   1.528   8.846   7.182
 7244W        W 8109   1.031  10.025   4.376
 7245W        W 8110   2.786   9.523   4.640
 7246W        W 8111   0.554   8.149   6.364
 7247W        W 8112   1.883  10.211   4.828
 7248W        W 8113   3.633   8.771   5.009
 7249W        W 8114   1.855   7.404   6.728
 7250W        W 8115   2.635  10.109   5.807
 7251W        W 8116   2.938  10.453   5.515
 7252W        W 8117   2.157  10.255   3.943
 7253W        W 8118   0.167  10.147   6.785
 7254W        W 8119   0.910   8.139   6.023
 7255W        W 8120   0.880   7.487   5.133
 7256W        W 8121   2.501   8.329   5.825
 7257W        W 8122   1.299   9.500   4.025
 7258W        W 8123   3.297   9.442   5.524
 7259W        W 8124   0.624  10.200   6.947
 7260W        W 8125   3.011  10.882   4.744
 7261W        W 8126   1.110   7.902   5.189
 7262W        W 8127   0.879   9.395   5.279
 7263W        W 8128   1.192  10.806   6.029
 7264W        W 8129   3.259  10.902   7.061
 7265W        W 8130   2.418   9.090   5.994
 7266W        W 8131   0.267   8.888   3.909
 7267W        W 8132   3.401  10.546   4.606
 7268W        W 8133   3.238   7.870   4.225
 7269W        W 8134   1.377   7.389   6.628
 7270W        W 8135   3.083  10.191   5.086
 7271W        W 8136   3.112   8.747   4.991
 7272W        W 8137   1.229   8.420   5.207
 7273W        W 8138   1.474   8.682   6.531
 7274W        W 8139   2.585   9.835   6.394
 7275W        W 8140   1.235   8.289   6.506
 7276W        W 8141   1.214  10.755   5.122
 7277W        W 8142   0.531  10.714   6.756
 7278W        W 8143   0.643  10.075   3.886
 7279W        W 8144   3.160   9.833   4.696
 7280W        W 8145   0.764   8.625   6.582
 7281W        W 8146   3.537   8.555   4.063
 7282W        W 8147   1.282   9.612   4.534
 7283W        W 8148   2.381   8.994   6.615
 7284W        W 8149   2.272   8.622   6.159
 7285W        W 8150   0.832   8.994   6.188
 7286W        W 8151   3.042  10.882   6.017
 7287W        W 8152   2.833   7.516   7.011
 7288W        W 8153   0.497   7.666   6.598
 7289W        W 8154   0.836   8.689   5.651
 7290W        W 8155   1.205   8.503   3.773
 7291W        W 8156   0.008  10.262   6.318
 7292W        W 8157   1.593   8.971   5.761
 7293W        W 8158   1.416   7.996   3.866
 7294W        W 8159   0.551   8.812   4.647
 7295W        W 8160   0.322  10.664   6.084
 7296W        W 8161   3.117   8.890   4.192
 7297W        W 8162   3.212   7.806   6.878
 7298W        W 8163   2.648  10.015   4.841
 7299W        W 8164   0.246   8.939   7.018
 7300W        W 8165   3.212   7.403   4.314
 7301W        W 8166   2.732   9.878   4.325
 7302W        W 8167   1.634   8.936   4.410
 7303W        W 8168   2.821   7.740   3.933
 7304W        W 8169   2.886   8.347   6.119
 7305W        W 8170   0.595   8.940   5.326
 7306W        W 8171   0.889   9.879   4.975
 7307W        W 8172   2.652   8.499   4.940
 7308W        W 8173   1.675   7.878   5.636
 7309W        W 8174   3.637   9.789   6.147
 7310W        W 8175   3.555   7.776   5.708
 7311W        W 8176   0.094  10.606   5.084
 7312W        W 8177   0.603   9.793   4.620
 7313W        W 8178   0.518   7.410   7.173
 7314W        W 8179   1.637  10.263   7.275
 7315W        W 8180   3.392   9.231   5.065
 7316W        W 8181   2.746   9.408   3.945
 7317W        W 8182   2.041  10.929   6.157
 7318W        W 8183   2.898   9.651   7.194
 7319W        W 8184   1.713   7.361   4.474
 7320W        W 8185   2.426   8.230   5.333
 7321W        W 8186   0.112   9.817   5.665
 7322W        W 8187   1.365   7.779   4.306
 7323W        W 8188   1.169   9.263   7.155
 7324W        W 8189   2.163   8.244   4.869
 7325W        W 8190   2.368   9.654   5.991
 7326W        W 8191   0.522  10.259   6.426
 7327W        W 8192   1.113  10.242   7.149
 7328W        W 8193   0.964   8.039   4.163
 7329W        W 8194   2.481   8.181   4.488
 7330W        W 8195   2.439  10.289   6.725
 7331W        W 8196   1.124   8.881   5.324
 7332W        W 8197   0.779  10.579   6.189
 7333W        W 8198   3.524  10.696   3.790
 7334W        W 8199   0.387   9.368   6.786
 7335W        W 8200   2.382   9.630   5.474
 7336W        W 8201   0.818   9.279   4.716
 7337W        W 8202   1.189  10.286   6.111
 7338W        W 8203   1.567   7.705   5.152
 7339W        W 8204   0.178   9.689   4.082
 7340W        W 8205   1.697   8.640   3.952
 7341W        W 8206   0.343   9.189   4.971
 7342W        W 8207   1.633   7.831   6.435
 7343W        W 8208   3.305   7.540   3.862
 7344W        W 8209   3.398   9.286   6.961
 7345W        W 8210   2.052  10.543   7.113
 7346W        W 8211   3.610   9.637   6.635
 7347W        W 8212   3.018  10.435   7.246
 7348W        W 8213   0.757  10.891   5.724
 7349W        W 8214   3.616   9.513   4.598
 7350W        W 8215   2.146   8.780   5.111
 7351W        W 8216   1.913   7.392   5.001
 7352W        W 8217   0.972  10.376   4.838
 7353W        W 8218   1.471   8.117   6.063
 7354W        W 8219   1.171   7.486   5.532
 7355W        W 8220   0.234  10.308   4.080
 7356W        W 8221   2.050   9.672   4.798
 7357W        W 8222   0.925  10.467   6.677
 7358W        W 8223   0.402   9.290   4.373
 7359W        W 8224   0.287   7.833   5.372
 7360W        W 8225   1.835   9.798   5.429
 7361W        W 8226   0.087   7.652   4.449
 7362W        W 8227   2.751   8.858   6.376
 7363W        W 8228   2.628   8.244   3.948
 7364W        W 8229   3.145   9.916   5.596
 7365W        W 8230   1.806  10.400   5.427
 7366W        W 8231   1.218  10.504   4.338
 7367W        W 8232   2.500   7.407   3.768
 7368W        W 8233   0.300  10.667   5.509
 7369W        W 8234   2.497   8.425   7.144
 7370W        W 8235   0.480   7.955   7.143
 7371W        W 8236   0.211   8.555   4.476
 7372W        W 8237   0.902   8.544   4.201
 7373W        W 8238   2.665   8.871   7.018
 7374W        W 8239   1.008   9.152   5.727
 7375W        W 8240   2.482   7.438   4.847
 7376W        W 8241   1.613  10.869   5.350
 7377W        W 8242   2.827  10.331   6.287
 7378W        W 8243   2.411  10.480   5.398
 7379W        W 8244   2.430   9.460   4.992
 7380W        W 8245   1.892   7.685   4.063
 7381W        W 8246   3.573   7.313   4.785
 7382W        W 8247   1.261   8.948   3.948
 7383W        W 8248   3.427   8.285   4.938
 7384W        W 8249   2.119   9.455   3.815
 7385W        W 8250   3.055   9.655   6.563
 7386W        W 8251   2.709  10.356   4.030
 7387W        W 8252   1.324   8.031   6.936
 7388W        W 8253   1.144   8.615   6.177
 7389W        W 8254   3.236  10.110   6.454
 7390W        W 8255   2.336   8.060   6.831
 7391W        W 8256   0.180   8.531   6.608
 7392W        W 8257   1.940   9.008   6.334
 7393W        W 8258   0.297   9.766   4.991
 7394W        W 8259   0.444   9.063   5.881
 7395W        W 8260   2.761   9.349   6.231
 7396W        W 8261   2.533  10.729   7.042
 7397W        W 8262   2.429   8.468   6.595
 7398W        W 8263   2.706  10.522   5.000
 7399W        W 8264   1.708  10.242   6.323
 7400W        W 8265   1.193  10.597   5.592
 7401W        W 8266   2.998   9.768   6.011
 7402W        W 8267   2.048   9.840   7.148
 7403W        W 8268   0.653   9.793   5.487
 7404W        W 8269   2.999   9.552   5.132
 7405W        W 8270   2.640  10.618   5.883
 7406W        W 8271   0.618  10.347   5.753
 7407W        W 8272   1.639   8.399   6.963
 7408W        W 8273   2.090  10.565   4.474
 7409W        W 8274   1.398   9.820   7.112
 7410W        W 8275   1.524  10.058   4.489
 7411W        W 8276   0.745   8.798   3.748
 7412W        W 8277   0.084  10.884  10.648
 7413W        W 8278   0.460   9.777  10.171
 7414W        W 8279   3.165   9.507   7.941
 7415W        W 8280   3.295  10.592   9.968
 7416W        W 8281   1.213  10.583   7.494
 7417W        W 8282   1.296   8.735   8.477
 7418W        W 8283   0.811   8.583   8.641
 7419W        W 8284   1.802   9.398   8.075
 7420W        W 8285   1.477  10.490  10.430
 7421W        W 8286   0.126   8.051  10.393
 7422W        W 8287   0.888   7.331  10.195
 7423W        W 8288   2.582   7.719   9.082
 7424W        W 8289   2.231   8.590   7.652
 7425W        W 8290   2.801   8.024  10.743
 7426W        W 8291   0.167   7.816   9.868
 7427W        W 8292   0.266  10.435  10.889
 7428W        W 8293   1.788   9.825   7.621
 7429W        W 8294   0.220   8.608   9.314
 7430W        W 8295   1.113   8.499  10.551
 7431W        W 8296   3.572   8.358   9.050
 7432W        W 8297   3.336   9.401   9.909
 7433W        W 8298   1.644   8.734   8.936
 7434W        W 8299   2.190  10.073   9.305
 7435W        W 8300   0.690   9.507   9.537
 7436W        W 8301   0.049   9.035   9.108
 7437W        W 8302   1.085   9.007  10.300
 7438W        W 8303   3.356   8.790  10.554
 7439W        W 8304   0.972  10.234   8.999
 7440W        W 8305   2.093   9.923  10.133
 7441W        W 8306   1.313   8.563   9.358
 7442W        W 8307   1.605   9.347   9.001
 7443W        W 8308   2.602  10.120  10.849
 7444W        W 8309   1.681   9.440  10.859
 7445W        W 8310   1.662   9.156  10.337
 7446W        W 8311   0.071   8.547  10.859
 7447W        W 8312   2.903  10.082  10.458
 7448W        W 8313   0.484   7.664   8.456
 7449W        W 8314   1.011   9.922   9.455
 7450W        W 8315   3.474   9.705   8.745
 7451W        W 8316   2.887   8.105   9.312
 7452W        W 8317   3.172   8.058   7.407
 7453W        W 8318   3.637   8.859   9.713
 7454W        W 8319   1.604  10.566   9.466
 7455W        W 8320   3.378  10.032   7.904
 7456W        W 8321   0.507  10.818   7.658
 7457W        W 8322   0.900  10.864   8.334
 7458W        W 8323   0.697   7.618   9.760
 7459W        W 8324   3.320   8.636  10.035
 7460W        W 8325   2.725   9.058   8.494
 7461W        W 8326   2.691   8.746   7.521
 7462W        W 8327   1.899   9.890   9.661
 7463W        W 8328   1.705   8.220   8.860
 7464W        W 8329   2.305  10.307   9.854
 7465W        W 8330   3.176   9.098   8.276
 7466W        W 8331   2.078   7.756   8.292
 7467W        W 8332   0.735  10.450   7.975
 7468W        W 8333   0.106   7.949   8.574
 7469W        W 8334   2.892   8.556   9.048
 7470W        W 8335   0.350  10.173   8.963
 7471W        W 8336   1.691  10.523   7.833
 7472W        W 8337   3.083   8.549   7.297
 7473W        W 8338   0.106  10.307   9.461
 7474W        W 8339   0.897   9.879   9.941
 7475W        W 8340   1.270   9.239   8.560
 7476W        W 8341   1.292   7.644   9.653
 7477W        W 8342   3.521   7.406   8.950
 7478W        W 8343   0.740   9.278   7.418
 7479W        W 8344   0.395   8.311   7.597
 7480W        W 8345   0.457  10.267   8.391
 7481W        W 8346   1.588   9.750   8.639
 7482W        W 8347   2.920  10.609  10.353
 7483W        W 8348   1.846   8.251   8.037
 7484W        W 8349   3.229  10.649   8.809
 7485W        W 8350   2.906   8.502  10.407
 7486W        W 8351   3.619  10.158   8.541
 7487W        W 8352   2.246   9.450  10.025
 7488W        W 8353   0.012   9.001   8.231
 7489W        W 8354   1.123   9.416   9.804
 7490W        W 8355   2.327   8.680   8.182
 7491W        W 8356   2.204   9.170   8.286
 7492W        W 8357   0.547   8.590   9.760
 7493W        W 8358   0.532   8.466  10.682
 7494W        W 8359   0.422   7.383   8.841
 7495W        W 8360   2.190   7.730   9.402
 7496W        W 8361   1.838   7.915  10.565
 7497W        W 8362   2.193   8.064   7.743
 7498W        W 8363   3.376  10.457  10.497
 7499W        W 8364   2.343   7.538  10.536
 7500W        W 8365   3.362   9.839  10.658
 7501W        W 8366   2.792   8.006  10.254
 7502W        W 8367   2.592   7.944   8.524
 7503W        W 8368   2.985   9.078  10.928
 7504W        W 8369   0.725  10.654   8.914
 7505W        W 8370   1.383   8.371   7.900
 7506W        W 8371   0.952   7.655  10.564
 7507W        W 8372   3.004   8.139   8.245
 7508W        W 8373   3.371   8.621   8.190
 7509W        W 8374   1.114  10.838  10.661
 7510W        W 8375   1.040   7.374   7.896
 7511W        W 8376   3.361   7.908   8.931
 7512W        W 8377   3.511  10.157   7.376
 7513W        W 8378   0.418   9.360   9.078
 7514W        W 8379   2.335   7.947   7.308
 7515W        W 8380   3.469  10.279   9.028
 7516W        W 8381   3.508   7.473   9.778
 7517W        W 8382   1.953   8.685  10.332
 7518W        W 8383   2.046  10.024   8.035
 7519W        W 8384   2.446   9.318  10.775
 7520W        W 8385   2.120   7.295   9.084
 7521W        W 8386   0.732   8.198   9.147
 7522W        W 8387   0.286   9.398   9.921
 7523W        W 8388   2.145  10.591   8.627
 7524W        W 8389   3.339   8.188   9.499
 7525W        W 8390   1.976  10.535  10.266
 7526W        W 8391   3.319   9.594   7.471
 7527W        W 8392   1.754   9.077   8.532
 7528W        W 8393   3.606   7.588  10.273
 7529W        W 8394   1.755   9.423   9.867
 7530W        W 8395   1.972   8.309   9.312
 7531W        W 8396   2.824   8.607   8.150
 7532W        W 8397   3.111   8.340   7.792
 7533W        W 8398   2.920  10.380   8.181
 7534W        W 8399   2.754   9.983   8.977
 7535W        W 8400   2.650   9.062   7.955
 7536W        W 8401   2.083   9.272   8.941
 7537W        W 8402   2.964   9.060   9.008
 7538W        W 8403   0.339   8.075   9.432
 7539W        W 8404   3.117   9.127  10.259
 7540W        W 8405   3.468  10.745   9.405
 7541W        W 8406   1.398  10.189   8.807
 7542W        W 8407   2.405  10.722  10.131
 7543W        W 8408   2.399   8.052   9.895
 7544W        W 8409   1.606  10.760   9.956
 7545W        W 8410   3.303   7.714   8.422
 7546W        W 8411   3.094   9.033   9.723
 7547W        W 8412   0.077   8.354   9.761
 7548W        W 8413   2.937   8.149   8.779
 7549W        W 8414   3.348   8.300  10.556
 7550W        W 8415   2.233   9.999   8.774
 7551W        W 8416   1.489  10.590   8.387
 7552W        W 8417   0.604   7.770   7.645
 7553W        W 8418   1.708   7.424   9.455
 7554W        W 8419   0.736  10.544   7.303
 7555W        W 8420   1.110   9.010   8.054
 7556W        W 8421   1.764   9.639  10.367
 7557W        W 8422   1.594   7.997   8.357
 7558W        W 8423   2.950   7.594   8.785
 7559W        W 8424   2.670  10.876   9.113
 7560W        W 8425   2.082  10.524   9.453
 7561W        W 8426   1.478   9.561   9.414
 7562W        W 8427   3.248  10.284   9.540
 7563W        W 8428   0.942   7.787   8.309
 7564W        W 8429   1.464  10.084   9.269
 7565W        W 8430   0.947   8.015   7.334
 7566W        W 8431   1.748   8.624   9.728
 7567W        W 8432   2.596   7.490   9.598
 7568W        W 8433   0.016   9.333   9.483
 7569W        W 8434   1.720   9.151   7.641
 7570W        W 8435   0.988   7.466   7.411
 7571W        W 8436   1.726   8.547   8.462
 7572W        W 8437   2.696   7.523  10.161
 7573W        W 8438   1.284   9.535  10.270
 7574W        W 8439   2.088   9.317  10.487
 7575W        W 8440   2.705   9.347  10.380
 7576W        W 8441   1.989   7.487  10.885
 7577W        W 8442   1.211   8.103   9.278
 7578W        W 8443   0.637   8.059   8.676
 7579W        W 8444   0.423  10.771   8.352
 7580W        W 8445   1.755  10.101  10.477
 7581W        W 8446   0.790   9.586   7.836
 7582W        W 8447   2.470   8.971   9.057
 7583W        W 8448   2.750   8.770   9.456
 7584W        W 8449   1.955   9.444   9.390
 7585W        W 8450   2.425   9.818   7.522
 7586W        W 8451   2.097   7.839   8.850
 7587W        W 8452   3.576   8.117   8.118
 7588W        W 8453   0.070  10.706  10.149
 7589W        W 8454   0.487   9.932   9.681
 7590W        W 8455   0.054  10.778   7.913
 7591W        W 8456   1.953   8.048   9.719
 7592W        W 8457   1.316  10.071   7.568
 7593W        W 8458   3.221  10.453   7.754
 7594W        W 8459   2.196   9.106   7.768
 7595W        W 8460   1.039   8.297   8.285
 7596W        W 8461   1.871   8.207   7.337
 7597W        W 8462   2.455   9.772  10.515
 7598W        W 8463   2.808   7.678   8.132
 7599W        W 8464   0.138   7.526   7.580
 7600W        W 8465   1.424   9.845   9.870
 7601W        W 8466   1.223   9.761   8.962
 7602W        W 8467   0.965   9.713   7.360
 7603W        W 8468   0.206   9.954   8.128
 7604W        W 8469   0.710   9.024  10.570
 7605W        W 8470   1.414   7.584  10.756
 7606W        W 8471   2.123   7.726  10.112
 7607W        W 8472   1.318   7.494   8.393
 7608W        W 8473   2.377   7.571   7.898
 7609W        W 8474   0.322   7.503   9.475
 7610W        W 8475   0.370   8.466   8.845
 7611W        W 8476   3.059   7.574   9.251
 7612W        W 8477   0.481   8.072   8.065
 7613W        W 8478   3.052   7.760   9.681
 7614W        W 8479   3.448   8.963   7.366
 7615W        W 8480   0.740   7.721   9.185
 7616W        W 8481   1.854   8.293  10.125
 7617W        W 8482   0.002   7.983   7.603
 7618W        W 8483   0.788   9.372  10.164
 7619W        W 8484   2.146   8.770   9.343
 7620W        W 8485   2.013  10.849   7.639
 7621W        W 8486   0.159   9.356   7.336
 7622W        W 8487   0.894   9.767  10.462
 7623W        W 8488   0.415   8.934  10.093
 7624W        W 8489   1.406   9.039   9.887
 7625W        W 8490   3.174   7.398  10.149
 7626W        W 8491   3.572   9.008  10.140
 7627W        W 8492   3.560   9.208   7.826
 7628W        W 8493   2.423   9.540   7.925
 7629W        W 8494   2.897  10.840   7.620
 7630W        W 8495   2.074   8.830  10.762
 7631W        W 8496   0.404   9.797  10.802
 7632W        W 8497   3.610   7.719  10.754
 7633W        W 8498   3.328   8.647   9.375
 7634W        W 8499   1.636  10.777  10.852
 7635W        W 8500   1.491   7.406   7.579
 7636W        W 8501   3.030  10.005   7.522
 7637W        W 8502   0.799   8.098  10.408
 7638W        W 8503   1.233  10.092  10.270
 7639W        W 8504   3.359   8.083  10.068
 7640W        W 8505   2.570  10.742   8.036
 7641W        W 8506   2.809   9.361   9.403
 7642W        W 8507   1.059   7.777  10.070
 7643W        W 8508   1.528   8.846  10.827
 7644W        W 8509   1.031  10.025   8.021
 7645W        W 8510   2.786   9.523   8.285
 7646W        W 8511   0.554   8.149  10.009
 7647W        W 8512   1.883  10.211   8.473
 7648W        W 8513   3.633   8.771   8.654
 7649W        W 8514   1.855   7.404  10.373
 7650W        W 8515   2.635  10.109   9.452
 7651W        W 8516   2.938  10.453   9.160
 7652W        W 8517   2.157  10.255   7.588
 7653W        W 8518   0.167  10.147  10.430
 7654W        W 8519   0.910   8.139   9.668
 7655W        W 8520   0.880   7.487   8.778
 7656W        W 8521   2.501   8.329   9.470
 7657W        W 8522   1.299   9.500   7.670
 7658W        W 8523   3.297   9.442   9.169
 7659W        W 8524   0.624  10.200  10.592
 7660W        W 8525   3.011  10.882   8.389
 7661W        W 8526   1.110   7.902   8.834
 7662W        W 8527   0.879   9.395   8.924
 7663W        W 8528   1.192  10.806   9.674
 7664W        W 8529   3.259  10.902  10.706
 7665W        W 8530   2.418   9.090   9.639
 7666W        W 8531   0.267   8.888   7.554
 7667W        W 8532   3.401  10.546   8.251
 7668W        W 8533   3.238   7.870   7.870
 7669W        W 8534   1.377   7.389  10.273
 7670W        W 8535   3.083  10.191   8.731
 7671W        W 8536   3.112   8.747   8.636
 7672W        W 8537   1.229   8.420   8.852
 7673W        W 8538   1.474   8.682  10.176
 7674W        W 8539   2.585   9.835  10.039
 7675W        W 8540   1.235   8.289  10.151
 7676W        W 8541   1.214  10.755   8.767
 7677W        W 8542   0.531  10.714  10.401
 7678W        W 8543   0.643  10.075   7.531
 7679W        W 8544   3.160   9.833   8.341
 7680W        W 8545   0.764   8.625  10.227
 7681W        W 8546   3.537   8.555   7.708
 7682W        W 8547   1.282   9.612   8.179
 7683W        W 8548   2.381   8.994  10.260
 7684W        W 8549   2.272   8.622   9.804
 7685W        W 8550   0.832   8.994   9.833
 7686W        W 8551   3.042  10.882   9.662
 7687W        W 8552   2.833   7.516  10.656
 7688W        W 8553   0.497   7.666  10.243
 7689W        W 8554   0.836   8.689   9.296
 7690W        W 8555   1.205   8.503   7.418
 7691W        W 8556   0.008  10.262   9.963
 7692W        W 8557   1.593   8.971   9.406
 7693W        W 8558   1.416   7.996   7.511
 7694W        W 8559   0.551   8.812   8.292
 7695W        W 8560   0.322  10.664   9.729
 7696W        W 8561   3.117   8.890   7.837
 7697W        W 8562   3.212   7.806  10.523
 7698W        W 8563   2.648  10.015   8.486
 7699W        W 8564   0.246   8.939  10.663
 7700W        W 8565   3.212   7.403   7.959
 7701W        W 8566   2.732   9.878   7.970
 7702W        W 8567   1.634   8.936   8.055
 7703W        W 8568   2.821   7.740   7.578
 7704W        W 8569   2.886   8.347   9.764
 7705W        W 8570   0.595   8.940   8.971
 7706W        W 8571   0.889   9.879   8.620
 7707W        W 8572   2.652   8.499   8.585
 7708W        W 8573   1.675   7.878   9.281
 7709W        W 8574   3.637   9.789   9.792
 7710W        W 8575   3.555   7.776   9.353
 7711W        W 8576   0.094  10.606   8.729
 7712W        W 8577   0.603   9.793   8.265
 7713W        W 8578   0.518   7.410  10.818
 7714W        W 8579   1.637  10.263  10.920
 7715W        W 8580   3.392   9.231   8.710
 7716W        W 8581   2.746   9.408   7.590
 7717W        W 8582   2.041  10.929   9.802
 7718W        W 8583   2.898   9.651  10.839
 7719W        W 8584   1.713   7.361   8.119
 7720W        W 8585   2.426   8.230   8.978
 7721W        W 8586   0.112   9.817   9.310
 7722W        W 8587   1.365   7.779   7.951
 7723W        W 8588   1.169   9.263  10.800
 7724W        W 8589   2.163   8.244   8.514
 7725W        W 8590   2.368   9.654   9.636
 7726W        W 8591   0.522  10.259  10.071
 7727W        W 8592   1.113  10.242  10.794
 7728W        W 8593   0.964   8.039   7.808
 7729W        W 8594   2.481   8.181   8.133
 7730W        W 8595   2.439  10.289  10.370
 7731W        W 8596   1.124   8.881   8.969
 7732W        W 8597   0.779  10.579   9.834
 7733W        W 8598   3.524  10.696   7.435
 7734W        W 8599   0.387   9.368  10.431
 7735W        W 8600   2.382   9.630   9.119
 7736W        W 8601   0.818   9.279   8.361
 7737W        W 8602   1.189  10.286   9.756
 7738W        W 8603   1.567   7.705   8.797
 7739W        W 8604   0.178   9.689   7.727
 7740W        W 8605   1.697   8.640   7.597
 7741W        W 8606   0.343   9.189   8.616
 7742W        W 8607   1.633   7.831  10.080
 7743W        W 8608   3.305   7.540   7.507
 7744W        W 8609   3.398   9.286  10.606
 7745W        W 8610   2.052  10.543  10.758
 7746W        W 8611   3.610   9.637  10.280
 7747W        W 8612   3.018  10.435  10.891
 7748W        W 8613   0.757  10.891   9.369
 7749W        W 8614   3.616   9.513   8.243
 7750W        W 8615   2.146   8.780   8.756
 7751W        W 8616   1.913   7.392   8.646
 7752W        W 8617   0.972  10.376   8.483
 7753W        W 8618   1.471   8.117   9.708
 7754W        W 8619   1.171   7.486   9.177
 7755W        W 8620   0.234  10.308   7.725
 7756W        W 8621   2.050   9.672   8.443
 7757W        W 8622   0.925  10.467  10.322
 7758W        W 8623   0.402   9.290   8.018
 7759W        W 8624   0.287   7.833   9.017
 7760W        W 8625   1.835   9.798   9.074
 7761W        W 8626   0.087   7.652   8.094
 7762W        W 8627   2.751   8.858  10.021
 7763W        W 8628   2.628   8.244   7.593
 7764W        W 8629   3.145   9.916   9.241
 7765W        W 8630   1.806  10.400   9.072
 7766W        W 8631   1.218  10.504   7.983
 7767W        W 8632   2.500   7.407   7.413
 7768W        W 8633   0.300  10.667   9.154
 7769W        W 8634   2.497   8.425  10.789
 7770W        W 8635   0.480   7.955  10.788
 7771W        W 8636   0.211   8.555   8.121
 7772W        W 8637   0.902   8.544   7.846
 7773W        W 8638   2.665   8.871  10.663
 7774W        W 8639   1.008   9.152   9.372
 7775W        W 8640   2.482   7.438   8.492
 7776W        W 8641   1.613  10.869   8.995
 7777W        W 8642   2.827  10.331   9.932
 7778W        W 8643   2.411  10.480   9.043
 7779W        W 8644   2.430   9.460   8.637
 7780W        W 8645   1.892   7.685   7.708
 7781W        W 8646   3.573   7.313   8.430
 7782W        W 8647   1.261   8.948   7.593
 7783W        W 8648   3.427   8.285   8.583
 7784W        W 8649   2.119   9.455   7.460
 7785W        W 8650   3.055   9.655  10.208
 7786W        W 8651   2.709  10.356   7.675
 7787W        W 8652   1.324   8.031  10.581
 7788W        W 8653   1.144   8.615   9.822
 7789W        W 8654   3.236  10.110  10.099
 7790W        W 8655   2.336   8.060  10.476
 7791W        W 8656   0.180   8.531  10.253
 7792W        W 8657   1.940   9.008   9.979
 7793W        W 8658   0.297   9.766   8.636
 7794W        W 8659   0.444   9.063   9.526
 7795W        W 8660   2.761   9.349   9.876
 7796W        W 8661   2.533  10.729  10.687
 7797W        W 8662   2.429   8.468  10.240
 7798W        W 8663   2.706  10.522   8.645
 7799W        W 8664   1.708  10.242   9.968
 7800W        W 8665   1.193  10.597   9.237
 7801W        W 8666   2.998   9.768   9.656
 7802W        W 8667   2.048   9.840  10.793
 7803W        W 8668   0.653   9.793   9.132
 7804W        W 8669   2.999   9.552   8.777
 7805W        W 8670   2.640  10.618   9.528
 7806W        W 8671   0.618  10.347   9.398
 7807W        W 8672   1.639   8.399  10.608
 7808W        W 8673   2.090  10.565   8.119
 7809W        W 8674   1.398   9.820  10.757
 7810W        W 8675   1.524  10.058   8.134
 7811W        W 8676   0.745   8.798   7.393
 7812W        W 8677   0.084  10.884  14.292
 7813W        W 8678   0.460   9.777  13.815
 7814W        W 8679   3.165   9.507  11.585
 7815W        W 8680   3.295  10.592  13.612
 7816W        W 8681   1.213  10.583  11.138
 7817W        W 8682   1.296   8.735  12.121
 7818W        W 8683   0.811   8.583  12.285
 7819W        W 8684   1.802   9.398  11.719
 7820W        W 8685   1.477  10.490  14.074
 7821W        W 8686   0.126   8.051  14.037
 7822W        W 8687   0.888   7.331  13.839
 7823W        W 8688   2.582   7.719  12.726
 7824W        W 8689   2.231   8.590  11.296
 7825W        W 8690   2.801   8.024  14.387
 7826W        W 8691   0.167   7.816  13.512
 7827W        W 8692   0.266  10.435  14.533
 7828W        W 8693   1.788   9.825  11.265
 7829W        W 8694   0.220   8.608  12.958
 7830W        W 8695   1.113   8.499  14.195
 7831W        W 8696   3.572   8.358  12.694
 7832W        W 8697   3.336   9.401  13.553
 7833W        W 8698   1.644   8.734  12.580
 7834W        W 8699   2.190  10.073  12.949
 7835W        W 8700   0.690   9.507  13.181
 7836W        W 8701   0.049   9.035  12.752
 7837W        W 8702   1.085   9.007  13.944
 7838W        W 8703   3.356   8.790  14.198
 7839W        W 8704   0.972  10.234  12.643
 7840W        W 8705   2.093   9.923  13.777
 7841W        W 8706   1.313   8.563  13.002
 7842W        W 8707   1.605   9.347  12.645
 7843W        W 8708   2.602  10.120  14.493
 7844W        W 8709   1.681   9.440  14.503
 7845W        W 8710   1.662   9.156  13.981
 7846W        W 8711   0.071   8.547  14.503
 7847W        W 8712   2.903  10.082  14.102
 7848W        W 8713   0.484   7.664  12.100
 7849W        W 8714   1.011   9.922  13.099
 7850W        W 8715   3.474   9.705  12.389
 7851W        W 8716   2.887   8.105  12.956
 7852W        W 8717   3.172   8.058  11.051
 7853W        W 8718   3.637   8.859  13.357
 7854W        W 8719   1.604  10.566  13.110
 7855W        W 8720   3.378  10.032  11.548
 7856W        W 8721   0.507  10.818  11.302
 7857W        W 8722   0.900  10.864  11.978
 7858W        W 8723   0.697   7.618  13.404
 7859W        W 8724   3.320   8.636  13.679
 7860W        W 8725   2.725   9.058  12.138
 7861W        W 8726   2.691   8.746  11.165
 7862W        W 8727   1.899   9.890  13.305
 7863W        W 8728   1.705   8.220  12.504
 7864W        W 8729   2.305  10.307  13.498
 7865W        W 8730   3.176   9.098  11.920
 7866W        W 8731   2.078   7.756  11.936
 7867W        W 8732   0.735  10.450  11.619
 7868W        W 8733   0.106   7.949  12.218
 7869W        W 8734   2.892   8.556  12.692
 7870W        W 8735   0.350  10.173  12.607
 7871W        W 8736   1.691  10.523  11.477
 7872W        W 8737   3.083   8.549  10.941
 7873W        W 8738   0.106  10.307  13.105
 7874W        W 8739   0.897   9.879  13.585
 7875W        W 8740   1.270   9.239  12.204
 7876W        W 8741   1.292   7.644  13.297
 7877W        W 8742   3.521   7.406  12.594
 7878W        W 8743   0.740   9.278  11.062
 7879W        W 8744   0.395   8.311  11.241
 7880W        W 8745   0.457  10.267  12.035
 7881W        W 8746   1.588   9.750  12.283
 7882W        W 8747   2.920  10.609  13.997
 7883W        W 8748   1.846   8.251  11.681
 7884W        W 8749   3.229  10.649  12.453
 7885W        W 8750   2.906   8.502  14.051
 7886W        W 8751   3.619  10.158  12.185
 7887W        W 8752   2.246   9.450  13.669
 7888W        W 8753   0.012   9.001  11.875
 7889W        W 8754   1.123   9.416  13.448
 7890W        W 8755   2.327   8.680  11.826
 7891W        W 8756   2.204   9.170  11.930
 7892W        W 8757   0.547   8.590  13.404
 7893W        W 8758   0.532   8.466  14.326
 7894W        W 8759   0.422   7.383  12.485
 7895W        W 8760   2.190   7.730  13.046
 7896W        W 8761   1.838   7.915  14.209
 7897W        W 8762   2.193   8.064  11.387
 7898W        W 8763   3.376  10.457  14.141
 7899W        W 8764   2.343   7.538  14.180
 7900W        W 8765   3.362   9.839  14.302
 7901W        W 8766   2.792   8.006  13.898
 7902W        W 8767   2.592   7.944  12.168
 7903W        W 8768   2.985   9.078  14.572
 7904W        W 8769   0.725  10.654  12.558
 7905W        W 8770   1.383   8.371  11.544
 7906W        W 8771   0.952   7.655  14.208
 7907W        W 8772   3.004   8.139  11.889
 7908W        W 8773   3.371   8.621  11.834
 7909W        W 8774   1.114  10.838  14.305
 7910W        W 8775   1.040   7.374  11.540
 7911W        W 8776   3.361   7.908  12.575
 7912W        W 8777   3.511  10.157  11.020
 7913W        W 8778   0.418   9.360  12.722
 7914W        W 8779   2.335   7.947  10.952
 7915W        W 8780   3.469  10.279  12.672
 7916W        W 8781   3.508   7.473  13.422
 7917W        W 8782   1.953   8.685  13.976
 7918W        W 8783   2.046  10.024  11.679
 7919W        W 8784   2.446   9.318  14.419
 7920W        W 8785   2.120   7.295  12.728
 7921W        W 8786   0.732   8.198  12.791
 7922W        W 8787   0.286   9.398  13.565
 7923W        W 8788   2.145  10.591  12.271
 7924W        W 8789   3.339   8.188  13.143
 7925W        W 8790   1.976  10.535  13.910
 7926W        W 8791   3.319   9.594  11.115
 7927W        W 8792   1.754   9.077  12.176
 7928W        W 8793   3.606   7.588  13.917
 7929W        W 8794   1.755   9.423  13.511
 7930W        W 8795   1.972   8.309  12.956
 7931W        W 8796   2.824   8.607  11.794
 7932W        W 8797   3.111   8.340  11.436
 7933W        W 8798   2.920  10.380  11.825
 7934W        W 8799   2.754   9.983  12.621
 7935W        W 8800   2.650   9.062  11.599
 7936W        W 8801   2.083   9.272  12.585
 7937W        W 8802   2.964   9.060  12.652
 7938W        W 8803   0.339   8.075  13.076
 7939W        W 8804   3.117   9.127  13.903
 7940W        W 8805   3.468  10.745  13.049
 7941W        W 8806   1.398  10.189  12.451
 7942W        W 8807   2.405  10.722  13.775
 7943W        W 8808   2.399   8.052  13.539
 7944W        W 8809   1.606  10.760  13.600
 7945W        W 8810   3.303   7.714  12.066
 7946W        W 8811   3.094   9.033  13.367
 7947W        W 8812   0.077   8.354  13.405
 7948W        W 8813   2.937   8.149  12.423
 7949W        W 8814   3.348   8.300  14.200
 7950W        W 8815   2.233   9.999  12.418
 7951W        W 8816   1.489  10.590  12.031
 7952W        W 8817   0.604   7.770  11.289
 7953W        W 8818   1.708   7.424  13.099
 7954W        W 8819   0.736  10.544  10.947
 7955W        W 8820   1.110   9.010  11.698
 7956W        W 8821   1.764   9.639  14.011
 7957W        W 8822   1.594   7.997  12.001
 7958W        W 8823   2.950   7.594  12.429
 7959W        W 8824   2.670  10.876  12.757
 7960W        W 8825   2.082  10.524  13.097
 7961W        W 8826   1.478   9.561  13.058
 7962W        W 8827   3.248  10.284  13.184
 7963W        W 8828   0.942   7.787  11.953
 7964W        W 8829   1.464  10.084  12.913
 7965W        W 8830   0.947   8.015  10.978
 7966W        W 8831   1.748   8.624  13.372
 7967W        W 8832   2.596   7.490  13.242
 7968W        W 8833   0.016   9.333  13.127
 7969W        W 8834   1.720   9.151  11.285
 7970W        W 8835   0.988   7.466  11.055
 7971W        W 8836   1.726   8.547  12.106
 7972W        W 8837   2.696   7.523  13.805
 7973W        W 8838   1.284   9.535  13.914
 7974W        W 8839   2.088   9.317  14.131
 7975W        W 8840   2.705   9.347  14.024
 7976W        W 8841   1.989   7.487  14.529
 7977W        W 8842   1.211   8.103  12.922
 7978W        W 8843   0.637   8.059  12.320
 7979W        W 8844   0.423  10.771  11.996
 7980W        W 8845   1.755  10.101  14.121
 7981W        W 8846   0.790   9.586  11.480
 7982W        W 8847   2.470   8.971  12.701
 7983W        W 8848   2.750   8.770  13.100
 7984W        W 8849   1.955   9.444  13.034
 7985W        W 8850   2.425   9.818  11.166
 7986W        W 8851   2.097   7.839  12.494
 7987W        W 8852   3.576   8.117  11.762
 7988W        W 8853   0.070  10.706  13.793
 7989W        W 8854   0.487   9.932  13.325
 7990W        W 8855   0.054  10.778  11.557
 7991W        W 8856   1.953   8.048  13.363
 7992W        W 8857   1.316  10.071  11.212
 7993W        W 8858   3.221  10.453  11.398
 7994W        W 8859   2.196   9.106  11.412
 7995W        W 8860   1.039   8.297  11.929
 7996W        W 8861   1.871   8.207  10.981
 7997W        W 8862   2.455   9.772  14.159
 7998W        W 8863   2.808   7.678  11.776
 7999W        W 8864   0.138   7.526  11.224
 8000W        W 8865   1.424   9.845  13.514
 8001W        W 8866   1.223   9.761  12.606
 8002W        W 8867   0.965   9.713  11.004
 8003W        W 8868   0.206   9.954  11.772
 8004W        W 8869   0.710   9.024  14.214
 8005W        W 8870   1.414   7.584  14.400
 8006W        W 8871   2.123   7.726  13.756
 8007W        W 8872   1.318   7.494  12.037
 8008W        W 8873   2.377   7.571  11.542
 8009W        W 8874   0.322   7.503  13.119
 8010W        W 8875   0.370   8.466  12.489
 8011W        W 8876   3.059   7.574  12.895
 8012W        W 8877   0.481   8.072  11.709
 8013W        W 8878   3.052   7.760  13.325
 8014W        W 8879   3.448   8.963  11.010
 8015W        W 8880   0.740   7.721  12.829
 8016W        W 8881   1.854   8.293  13.769
 8017W        W 8882   0.002   7.983  11.247
 8018W        W 8883   0.788   9.372  13.808
 8019W        W 8884   2.146   8.770  12.987
 8020W        W 8885   2.013  10.849  11.283
 8021W        W 8886   0.159   9.356  10.980
 8022W        W 8887   0.894   9.767  14.106
 8023W        W 8888   0.415   8.934  13.737
 8024W        W 8889   1.406   9.039  13.531
 8025W        W 8890   3.174   7.398  13.793
 8026W        W 8891   3.572   9.008  13.784
 8027W        W 8892   3.560   9.208  11.470
 8028W        W 8893   2.423   9.540  11.569
 8029W        W 8894   2.897  10.840  11.264
 8030W        W 8895   2.074   8.830  14.406
 8031W        W 8896   0.404   9.797  14.446
 8032W        W 8897   3.610   7.719  14.398
 8033W        W 8898   3.328   8.647  13.019
 8034W        W 8899   1.636  10.777  14.496
 8035W        W 8900   1.491   7.406  11.223
 8036W        W 8901   3.030  10.005  11.166
 8037W        W 8902   0.799   8.098  14.052
 8038W        W 8903   1.233  10.092  13.914
 8039W        W 8904   3.359   8.083  13.712
 8040W        W 8905   2.570  10.742  11.680
 8041W        W 8906   2.809   9.361  13.047
 8042W        W 8907   1.059   7.777  13.714
 8043W        W 8908   1.528   8.846  14.471
 8044W        W 8909   1.031  10.025  11.665
 8045W        W 8910   2.786   9.523  11.929
 8046W        W 8911   0.554   8.149  13.653
 8047W        W 8912   1.883  10.211  12.117
 8048W        W 8913   3.633   8.771  12.298
 8049W        W 8914   1.855   7.404  14.017
 8050W        W 8915   2.635  10.109  13.096
 8051W        W 8916   2.938  10.453  12.804
 8052W        W 8917   2.157  10.255  11.232
 8053W        W 8918   0.167  10.147  14.074
 8054W        W 8919   0.910   8.139  13.312
 8055W        W 8920   0.880   7.487  12.422
 8056W        W 8921   2.501   8.329  13.114
 8057W        W 8922   1.299   9.500  11.314
 8058W        W 8923   3.297   9.442  12.813
 8059W        W 8924   0.624  10.200  14.236
 8060W        W 8925   3.011  10.882  12.033
 8061W        W 8926   1.110   7.902  12.478
 8062W        W 8927   0.879   9.395  12.568
 8063W        W 8928   1.192  10.806  13.318
 8064W        W 8929   3.259  10.902  14.350
 8065W        W 8930   2.418   9.090  13.283
 8066W        W 8931   0.267   8.888  11.198
 8067W        W 8932   3.401  10.546  11.895
 8068W        W 8933   3.238   7.870  11.514
 8069W        W 8934   1.377   7.389  13.917
 8070W        W 8935   3.083  10.191  12.375
 8071W        W 8936   3.112   8.747  12.280
 8072W        W 8937   1.229   8.420  12.496
 8073W        W 8938   1.474   8.682  13.820
 8074W        W 8939   2.585   9.835  13.683
 8075W        W 8940   1.235   8.289  13.795
 8076W        W 8941   1.214  10.755  12.411
 8077W        W 8942   0.531  10.714  14.045
 8078W        W 8943   0.643  10.075  11.175
 8079W        W 8944   3.160   9.833  11.985
 8080W        W 8945   0.764   8.625  13.871
 8081W        W 8946   3.537   8.555  11.352
 8082W        W 8947   1.282   9.612  11.823
 8083W        W 8948   2.381   8.994  13.904
 8084W        W 8949   2.272   8.622  13.448
 8085W        W 8950   0.832   8.994  13.477
 8086W        W 8951   3.042  10.882  13.306
 8087W        W 8952   2.833   7.516  14.300
 8088W        W 8953   0.497   7.666  13.887
 8089W        W 8954   0.836   8.689  12.940
 8090W        W 8955   1.205   8.503  11.062
 8091W        W 8956   0.008  10.262  13.607
 8092W        W 8957   1.593   8.971  13.050
 8093W        W 8958   1.416   7.996  11.155
 8094W        W 8959   0.551   8.812  11.936
 8095W        W 8960   0.322  10.664  13.373
 8096W        W 8961   3.117   8.890  11.481
 8097W        W 8962   3.212   7.806  14.167
 8098W        W 8963   2.648  10.015  12.130
 8099W        W 8964   0.246   8.939  14.307
 8100W        W 8965   3.212   7.403  11.603
 8101W        W 8966   2.732   9.878  11.614
 8102W        W 8967   1.634   8.936  11.699
 8103W        W 8968   2.821   7.740  11.222
 8104W        W 8969   2.886   8.347  13.408
 8105W        W 8970   0.595   8.940  12.615
 8106W        W 8971   0.889   9.879  12.264
 8107W        W 8972   2.652   8.499  12.229
 8108W        W 8973   1.675   7.878  12.925
 8109W        W 8974   3.637   9.789  13.436
 8110W        W 8975   3.555   7.776  12.997
 8111W        W 8976   0.094  10.606  12.373
 8112W        W 8977   0.603   9.793  11.909
 8113W        W 8978   0.518   7.410  14.462
 8114W        W 8979   1.637  10.263  14.564
 8115W        W 8980   3.392   9.231  12.354
 8116W        W 8981   2.746   9.408  11.234
 8117W        W 8982   2.041  10.929  13.446
 8118W        W 8983   2.898   9.651  14.483
 8119W        W 8984   1.713   7.361  11.763
 8120W        W 8985   2.426   8.230  12.622
 8121W        W 8986   0.112   9.817  12.954
 8122W        W 8987   1.365   7.779  11.595
 8123W        W 8988   1.169   9.263  14.444
 8124W        W 8989   2.163   8.244  12.158
 8125W        W 8990   2.368   9.654  13.280
 8126W        W 8991   0.522  10.259  13.715
 8127W        W 8992   1.113  10.242  14.438
 8128W        W 8993   0.964   8.039  11.452
 8129W        W 8994   2.481   8.181  11.777
 8130W        W 8995   2.439  10.289  14.014
 8131W        W 8996   1.124   8.881  12.613
 8132W        W 8997   0.779  10.579  13.478
 8133W        W 8998   3.524  10.696  11.079
 8134W        W 8999   0.387   9.368  14.075
 8135W        W 9000   2.382   9.630  12.763
 8136W        W 9001   0.818   9.279  12.005
 8137W        W 9002   1.189  10.286  13.400
 8138W        W 9003   1.567   7.705  12.441
 8139W        W 9004   0.178   9.689  11.371
 8140W        W 9005   1.697   8.640  11.241
 8141W        W 9006   0.343   9.189  12.260
 8142W        W 9007   1.633   7.831  13.724
 8143W        W 9008   3.305   7.540  11.151
 8144W        W 9009   3.398   9.286  14.250
 8145W        W 9010   2.052  10.543  14.402
 8146W        W 9011   3.610   9.637  13.924
 8147W        W 9012   3.018  10.435  14.535
 8148W        W 9013   0.757  10.891  13.013
 8149W        W 9014   3.616   9.513  11.887
 8150W        W 9015   2.146   8.780  12.400
 8151W        W 9016   1.913   7.392  12.290
 8152W        W 9017   0.972  10.376  12.127
 8153W        W 9018   1.471   8.117  13.352
 8154W        W 9019   1.171   7.486  12.821
 8155W        W 9020   0.234  10.308  11.369
 8156W        W 9021   2.050   9.672  12.087
 8157W        W 9022   0.925  10.467  13.966
 8158W        W 9023   0.402   9.290  11.662
 8159W        W 9024   0.287   7.833  12.661
 8160W        W 9025   1.835   9.798  12.718
 8161W        W 9026   0.087   7.652  11.738
 8162W        W 9027   2.751   8.858  13.665
 8163W        W 9028   2.628   8.244  11.237
 8164W        W 9029   3.145   9.916  12.885
 8165W        W 9030   1.806  10.400  12.716
 8166W        W 9031   1.218  10.504  11.627
 8167W        W 9032   2.500   7.407  11.057
 8168W        W 9033   0.300  10.667  12.798
 8169W        W 9034   2.497   8.425  14.433
 8170W        W 9035   0.480   7.955  14.432
 8171W        W 9036   0.211   8.555  11.765
 8172W        W 9037   0.902   8.544  11.490
 8173W        W 9038   2.665   8.871  14.307
 8174W        W 9039   1.008   9.152  13.016
 8175W        W 9040   2.482   7.438  12.136
 8176W        W 9041   1.613  10.869  12.639
 8177W        W 9042   2.827  10.331  13.576
 8178W        W 9043   2.411  10.480  12.687
 8179W        W 9044   2.430   9.460  12.281
 8180W        W 9045   1.892   7.685  11.352
 8181W        W 9046   3.573   7.313  12.074
 8182W        W 9047   1.261   8.948  11.237
 8183W        W 9048   3.427   8.285  12.227
 8184W        W 9049   2.119   9.455  11.104
 8185W        W 9050   3.055   9.655  13.852
 8186W        W 9051   2.709  10.356  11.319
 8187W        W 9052   1.324   8.031  14.225
 8188W        W 9053   1.144   8.615  13.466
 8189W        W 9054   3.236  10.110  13.743
 8190W        W 9055   2.336   8.060  14.120
 8191W        W 9056   0.180   8.531  13.897
 8192W        W 9057   1.940   9.008  13.623
 8193W        W 9058   0.297   9.766  12.280
 8194W        W 9059   0.444   9.063  13.170
 8195W        W 9060   2.761   9.349  13.520
 8196W        W 9061   2.533  10.729  14.331
 8197W        W 9062   2.429   8.468  13.884
 8198W        W 9063   2.706  10.522  12.289
 8199W        W 9064   1.708  10.242  13.612
 8200W        W 9065   1.193  10.597  12.881
 8201W        W 9066   2.998   9.768  13.300
 8202W        W 9067   2.048   9.840  14.437
 8203W        W 9068   0.653   9.793  12.776
 8204W        W 9069   2.999   9.552  12.421
 8205W        W 9070   2.640  10.618  13.172
 8206W        W 9071   0.618  10.347  13.042
 8207W        W 9072   1.639   8.399  14.252
 8208W        W 9073   2.090  10.565  11.763
 8209W        W 9074   1.398   9.820  14.401
 8210W        W 9075   1.524  10.058  11.778
 8211W        W 9076   0.745   8.798  11.037
 8212W        W 9077   0.084  10.884  17.936
 8213W        W 9078   0.460   9.777  17.459
 8214W        W 9079   3.165   9.507  15.229
 8215W        W 9080   3.295  10.592  17.256
 8216W        W 9081   1.213  10.583  14.782
 8217W        W 9082   1.296   8.735  15.765
 8218W        W 9083   0.811   8.583  15.929
 8219W        W 9084   1.802   9.398  15.363
 8220W        W 9085   1.477  10.490  17.718
 8221W        W 9086   0.126   8.051  17.681
 8222W        W 9087   0.888   7.331  17.483
 8223W        W 9088   2.582   7.719  16.370
 8224W        W 9089   2.231   8.590  14.940
 8225W        W 9090   2.801   8.024  18.031
 8226W        W 9091   0.167   7.816  17.156
 8227W        W 9092   0.266  10.435  18.177
 8228W        W 9093   1.788   9.825  14.909
 8229W        W 9094   0.220   8.608  16.602
 8230W        W 9095   1.113   8.499  17.839
 8231W        W 9096   3.572   8.358  16.338
 8232W        W 9097   3.336   9.401  17.197
 8233W        W 9098   1.644   8.734  16.224
 8234W        W 9099   2.190  10.073  16.593
 8235W        W 9100   0.690   9.507  16.825
 8236W        W 9101   0.049   9.035  16.396
 8237W        W 9102   1.085   9.007  17.588
 8238W        W 9103   3.356   8.790  17.842
 8239W        W 9104   0.972  10.234  16.287
 8240W        W 9105   2.093   9.923  17.421
 8241W        W 9106   1.313   8.563  16.646
 8242W        W 9107   1.605   9.347  16.289
 8243W        W 9108   2.602  10.120  18.137
 8244W        W 9109   1.681   9.440  18.147
 8245W        W 9110   1.662   9.156  17.625
 8246W        W 9111   0.071   8.547  18.147
 8247W        W 9112   2.903  10.082  17.746
 8248W        W 9113   0.484   7.664  15.744
 8249W        W 9114   1.011   9.922  16.743
 8250W        W 9115   3.474   9.705  16.033
 8251W        W 9116   2.887   8.105  16.600
 8252W        W 9117   3.172   8.058  14.695
 8253W        W 9118   3.637   8.859  17.001
 8254W        W 9119   1.604  10.566  16.754
 8255W        W 9120   3.378  10.032  15.192
 8256W        W 9121   0.507  10.818  14.946
 8257W        W 9122   0.900  10.864  15.622
 8258W        W 9123   0.697   7.618  17.048
 8259W        W 9124   3.320   8.636  17.323
 8260W        W 9125   2.725   9.058  15.782
 8261W        W 9126   2.691   8.746  14.809
 8262W        W 9127   1.899   9.890  16.949
 8263W        W 9128   1.705   8.220  16.148
 8264W        W 9129   2.305  10.307  17.142
 8265W        W 9130   3.176   9.098  15.564
 8266W        W 9131   2.078   7.756  15.580
 8267W        W 9132   0.735  10.450  15.263
 8268W        W 9133   0.106   7.949  15.862
 8269W        W 9134   2.892   8.556  16.336
 8270W        W 9135   0.350  10.173  16.251
 8271W        W 9136   1.691  10.523  15.121
 8272W        W 9137   3.083   8.549  14.585
 8273W        W 9138   0.106  10.307  16.749
 8274W        W 9139   0.897   9.879  17.229
 8275W        W 9140   1.270   9.239  15.848
 8276W        W 9141   1.292   7.644  16.941
 8277W        W 9142   3.521   7.406  16.238
 8278W        W 9143   0.740   9.278  14.706
 8279W        W 9144   0.395   8.311  14.885
 8280W        W 9145   0.457  10.267  15.679
 8281W        W 9146   1.588   9.750  15.927
 8282W        W 9147   2.920  10.609  17.641
 8283W        W 9148   1.846   8.251  15.325
 8284W        W 9149   3.229  10.649  16.097
 8285W        W 9150   2.906   8.502  17.695
 8286W        W 9151   3.619  10.158  15.829
 8287W        W 9152   2.246   9.450  17.313
 8288W        W 9153   0.012   9.001  15.519
 8289W        W 9154   1.123   9.416  17.092
 8290W        W 9155   2.327   8.680  15.470
 8291W        W 9156   2.204   9.170  15.574
 8292W        W 9157   0.547   8.590  17.048
 8293W        W 9158   0.532   8.466  17.970
 8294W        W 9159   0.422   7.383  16.129
 8295W        W 9160   2.190   7.730  16.690
 8296W        W 9161   1.838   7.915  17.853
 8297W        W 9162   2.193   8.064  15.031
 8298W        W 9163   3.376  10.457  17.785
 8299W        W 9164   2.343   7.538  17.824
 8300W        W 9165   3.362   9.839  17.946
 8301W        W 9166   2.792   8.006  17.542
 8302W        W 9167   2.592   7.944  15.812
 8303W        W 9168   2.985   9.078  18.216
 8304W        W 9169   0.725  10.654  16.202
 8305W        W 9170   1.383   8.371  15.188
 8306W        W 9171   0.952   7.655  17.852
 8307W        W 9172   3.004   8.139  15.533
 8308W        W 9173   3.371   8.621  15.478
 8309W        W 9174   1.114  10.838  17.949
 8310W        W 9175   1.040   7.374  15.184
 8311W        W 9176   3.361   7.908  16.219
 8312W        W 9177   3.511  10.157  14.664
 8313W        W 9178   0.418   9.360  16.366
 8314W        W 9179   2.335   7.947  14.596
 8315W        W 9180   3.469  10.279  16.316
 8316W        W 9181   3.508   7.473  17.066
 8317W        W 9182   1.953   8.685  17.620
 8318W        W 9183   2.046  10.024  15.323
 8319W        W 9184   2.446   9.318  18.063
 8320W        W 9185   2.120   7.295  16.372
 8321W        W 9186   0.732   8.198  16.435
 8322W        W 9187   0.286   9.398  17.209
 8323W        W 9188   2.145  10.591  15.915
 8324W        W 9189   3.339   8.188  16.787
 8325W        W 9190   1.976  10.535  17.554
 8326W        W 9191   3.319   9.594  14.759
 8327W        W 9192   1.754   9.077  15.820
 8328W        W 9193   3.606   7.588  17.561
 8329W        W 9194   1.755   9.423  17.155
 8330W        W 9195   1.972   8.309  16.600
 8331W        W 9196   2.824   8.607  15.438
 8332W        W 9197   3.111   8.340  15.080
 8333W        W 9198   2.920  10.380  15.469
 8334W        W 9199   2.754   9.983  16.265
 8335W        W 9200   2.650   9.062  15.243
 8336W        W 9201   2.083   9.272  16.229
 8337W        W 9202   2.964   9.060  16.296
 8338W        W 9203   0.339   8.075  16.720
 8339W        W 9204   3.117   9.127  17.547
 8340W        W 9205   3.468  10.745  16.693
 8341W        W 9206   1.398  10.189  16.095
 8342W        W 9207   2.405  10.722  17.419
 8343W        W 9208   2.399   8.052  17.183
 8344W        W 9209   1.606  10.760  17.244
 8345W        W 9210   3.303   7.714  15.710
 8346W        W 9211   3.094   9.033  17.011
 8347W        W 9212   0.077   8.354  17.049
 8348W        W 9213   2.937   8.149  16.067
 8349W        W 9214   3.348   8.300  17.844
 8350W        W 9215   2.233   9.999  16.062
 8351W        W 9216   1.489  10.590  15.675
 8352W        W 9217   0.604   7.770  14.933
 8353W        W 9218   1.708   7.424  16.743
 8354W        W 9219   0.736  10.544  14.591
 8355W        W 9220   1.110   9.010  15.342
 8356W        W 9221   1.764   9.639  17.655
 8357W        W 9222   1.594   7.997  15.645
 8358W        W 9223   2.950   7.594  16.073
 8359W        W 9224   2.670  10.876  16.401
 8360W        W 9225   2.082  10.524  16.741
 8361W        W 9226   1.478   9.561  16.702
 8362W        W 9227   3.248  10.284  16.828
 8363W        W 9228   0.942   7.787  15.597
 8364W        W 9229   1.464  10.084  16.557
 8365W        W 9230   0.947   8.015  14.622
 8366W        W 9231   1.748   8.624  17.016
 8367W        W 9232   2.596   7.490  16.886
 8368W        W 9233   0.016   9.333  16.771
 8369W        W 9234   1.720   9.151  14.929
 8370W        W 9235   0.988   7.466  14.699
 8371W        W 9236   1.726   8.547  15.750
 8372W        W 9237   2.696   7.523  17.449
 8373W        W 9238   1.284   9.535  17.558
 8374W        W 9239   2.088   9.317  17.775
 8375W        W 9240   2.705   9.347  17.668
 8376W        W 9241   1.989   7.487  18.173
 8377W        W 9242   1.211   8.103  16.566
 8378W        W 9243   0.637   8.059  15.964
 8379W        W 9244   0.423  10.771  15.640
 8380W        W 9245   1.755  10.101  17.765
 8381W        W 9246   0.790   9.586  15.124
 8382W        W 9247   2.470   8.971  16.345
 8383W        W 9248   2.750   8.770  16.744
 8384W        W 9249   1.955   9.444  16.678
 8385W        W 9250   2.425   9.818  14.810
 8386W        W 9251   2.097   7.839  16.138
 8387W        W 9252   3.576   8.117  15.406
 8388W        W 9253   0.070  10.706  17.437
 8389W        W 9254   0.487   9.932  16.969
 8390W        W 9255   0.054  10.778  15.201
 8391W        W 9256   1.953   8.048  17.007
 8392W        W 9257   1.316  10.071  14.856
 8393W        W 9258   3.221  10.453  15.042
 8394W        W 9259   2.196   9.106  15.056
 8395W        W 9260   1.039   8.297  15.573
 8396W        W 9261   1.871   8.207  14.625
 8397W        W 9262   2.455   9.772  17.803
 8398W        W 9263   2.808   7.678  15.420
 8399W        W 9264   0.138   7.526  14.868
 8400W        W 9265   1.424   9.845  17.158
 8401W        W 9266   1.223   9.761  16.250
 8402W        W 9267   0.965   9.713  14.648
 8403W        W 9268   0.206   9.954  15.416
 8404W        W 9269   0.710   9.024  17.858
 8405W        W 9270   1.414   7.584  18.044
 8406W        W 9271   2.123   7.726  17.400
 8407W        W 9272   1.318   7.494  15.681
 8408W        W 9273   2.377   7.571  15.186
 8409W        W 9274   0.322   7.503  16.763
 8410W        W 9275   0.370   8.466  16.133
 8411W        W 9276   3.059   7.574  16.539
 8412W        W 9277   0.481   8.072  15.353
 8413W        W 9278   3.052   7.760  16.969
 8414W        W 9279   3.448   8.963  14.654
 8415W        W 9280   0.740   7.721  16.473
 8416W        W 9281   1.854   8.293  17.413
 8417W        W 9282   0.002   7.983  14.891
 8418W        W 9283   0.788   9.372  17.452
 8419W        W 9284   2.146   8.770  16.631
 8420W        W 9285   2.013  10.849  14.927
 8421W        W 9286   0.159   9.356  14.624
 8422W        W 9287   0.894   9.767  17.750
 8423W        W 9288   0.415   8.934  17.381
 8424W        W 9289   1.406   9.039  17.175
 8425W        W 9290   3.174   7.398  17.437
 8426W        W 9291   3.572   9.008  17.428
 8427W        W 9292   3.560   9.208  15.114
 8428W        W 9293   2.423   9.540  15.213
 8429W        W 9294   2.897  10.840  14.908
 8430W        W 9295   2.074   8.830  18.050
 8431W        W 9296   0.404   9.797  18.090
 8432W        W 9297   3.610   7.719  18.042
 8433W        W 9298   3.328   8.647  16.663
 8434W        W 9299   1.636  10.777  18.140
 8435W        W 9300   1.491   7.406  14.867
 8436W        W 9301   3.030  10.005  14.810
 8437W        W 9302   0.799   8.098  17.696
 8438W        W 9303   1.233  10.092  17.558
 8439W        W 9304   3.359   8.083  17.356
 8440W        W 9305   2.570  10.742  15.324
 8441W        W 9306   2.809   9.361  16.691
 8442W        W 9307   1.059   7.777  17.358
 8443W        W 9308   1.528   8.846  18.115
 8444W        W 9309   1.031  10.025  15.309
 8445W        W 9310   2.786   9.523  15.573
 8446W        W 9311   0.554   8.149  17.297
 8447W        W 9312   1.883  10.211  15.761
 8448W        W 9313   3.633   8.771  15.942
 8449W        W 9314   1.855   7.404  17.661
 8450W        W 9315   2.635  10.109  16.740
 8451W        W 9316   2.938  10.453  16.448
 8452W        W 9317   2.157  10.255  14.876
 8453W        W 9318   0.167  10.147  17.718
 8454W        W 9319   0.910   8.139  16.956
 8455W        W 9320   0.880   7.487  16.066
 8456W        W 9321   2.501   8.329  16.758
 8457W        W 9322   1.299   9.500  14.958
 8458W        W 9323   3.297   9.442  16.457
 8459W        W 9324   0.624  10.200  17.880
 8460W        W 9325   3.011  10.882  15.677
 8461W        W 9326   1.110   7.902  16.122
 8462W        W 9327   0.879   9.395  16.212
 8463W        W 9328   1.192  10.806  16.962
 8464W        W 9329   3.259  10.902  17.994
 8465W        W 9330   2.418   9.090  16.927
 8466W        W 9331   0.267   8.888  14.842
 8467W        W 9332   3.401  10.546  15.539
 8468W        W 9333   3.238   7.870  15.158
 8469W        W 9334   1.377   7.389  17.561
 8470W        W 9335   3.083  10.191  16.019
 8471W        W 9336   3.112   8.747  15.924
 8472W        W 9337   1.229   8.420  16.140
 8473W        W 9338   1.474   8.682  17.464
 8474W        W 9339   2.585   9.835  17.327
 8475W        W 9340   1.235   8.289  17.439
 8476W        W 9341   1.214  10.755  16.055
 8477W        W 9342   0.531  10.714  17.689
 8478W        W 9343   0.643  10.075  14.819
 8479W        W 9344   3.160   9.833  15.629
 8480W        W 9345   0.764   8.625  17.515
 8481W        W 9346   3.537   8.555  14.996
 8482W        W 9347   1.282   9.612  15.467
 8483W        W 9348   2.381   8.994  17.548
 8484W        W 9349   2.272   8.622  17.092
 8485W        W 9350   0.832   8.994  17.121
 8486W        W 9351   3.042  10.882  16.950
 8487W        W 9352   2.833   7.516  17.944
 8488W        W 9353   0.497   7.666  17.531
 8489W        W 9354   0.836   8.689  16.584
 8490W        W 9355   1.205   8.503  14.706
 8491W        W 9356   0.008  10.262  17.251
 8492W        W 9357   1.593   8.971  16.694
 8493W        W 9358   1.416   7.996  14.799
 8494W        W 9359   0.551   8.812  15.580
 8495W        W 9360   0.322  10.664  17.017
 8496W        W 9361   3.117   8.890  15.125
 8497W        W 9362   3.212   7.806  17.811
 8498W        W 9363   2.648  10.015  15.774
 8499W        W 9364   0.246   8.939  17.951
 8500W        W 9365   3.212   7.403  15.247
 8501W        W 9366   2.732   9.878  15.258
 8502W        W 9367   1.634   8.936  15.343
 8503W        W 9368   2.821   7.740  14.866
 8504W        W 9369   2.886   8.347  17.052
 8505W        W 9370   0.595   8.940  16.259
 8506W        W 9371   0.889   9.879  15.908
 8507W        W 9372   2.652   8.499  15.873
 8508W        W 9373   1.675   7.878  16.569
 8509W        W 9374   3.637   9.789  17.080
 8510W        W 9375   3.555   7.776  16.641
 8511W        W 9376   0.094  10.606  16.017
 8512W        W 9377   0.603   9.793  15.553
 8513W        W 9378   0.518   7.410  18.106
 8514W        W 9379   1.637  10.263  18.208
 8515W        W 9380   3.392   9.231  15.998
 8516W        W 9381   2.746   9.408  14.878
 8517W        W 9382   2.041  10.929  17.090
 8518W        W 9383   2.898   9.651  18.127
 8519W        W 9384   1.713   7.361  15.407
 8520W        W 9385   2.426   8.230  16.266
 8521W        W 9386   0.112   9.817  16.598
 8522W        W 9387   1.365   7.779  15.239
 8523W        W 9388   1.169   9.263  18.088
 8524W        W 9389   2.163   8.244  15.802
 8525W        W 9390   2.368   9.654  16.924
 8526W        W 9391   0.522  10.259  17.359
 8527W        W 9392   1.113  10.242  18.082
 8528W        W 9393   0.964   8.039  15.096
 8529W        W 9394   2.481   8.181  15.421
 8530W        W 9395   2.439  10.289  17.658
 8531W        W 9396   1.124   8.881  16.257
 8532W        W 9397   0.779  10.579  17.122
 8533W        W 9398   3.524  10.696  14.723
 8534W        W 9399   0.387   9.368  17.719
 8535W        W 9400   2.382   9.630  16.407
 8536W        W 9401   0.818   9.279  15.649
 8537W        W 9402   1.189  10.286  17.044
 8538W        W 9403   1.567   7.705  16.085
 8539W        W 9404   0.178   9.689  15.015
 8540W        W 9405   1.697   8.640  14.885
 8541W        W 9406   0.343   9.189  15.904
 8542W        W 9407   1.633   7.831  17.368
 8543W        W 9408   3.305   7.540  14.795
 8544W        W 9409   3.398   9.286  17.894
 8545W        W 9410   2.052  10.543  18.046
 8546W        W 9411   3.610   9.637  17.568
 8547W        W 9412   3.018  10.435  18.179
 8548W        W 9413   0.757  10.891  16.657
 8549W        W 9414   3.616   9.513  15.531
 8550W        W 9415   2.146   8.780  16.044
 8551W        W 9416   1.913   7.392  15.934
 8552W        W 9417   0.972  10.376  15.771
 8553W        W 9418   1.471   8.117  16.996
 8554W        W 9419   1.171   7.486  16.465
 8555W        W 9420   0.234  10.308  15.013
 8556W        W 9421   2.050   9.672  15.731
 8557W        W 9422   0.925  10.467  17.610
 8558W        W 9423   0.402   9.290  15.306
 8559W        W 9424   0.287   7.833  16.305
 8560W        W 9425   1.835   9.798  16.362
 8561W        W 9426   0.087   7.652  15.382
 8562W        W 9427   2.751   8.858  17.309
 8563W        W 9428   2.628   8.244  14.881
 8564W        W 9429   3.145   9.916  16.529
 8565W        W 9430   1.806  10.400  16.360
 8566W        W 9431   1.218  10.504  15.271
 8567W        W 9432   2.500   7.407  14.701
 8568W        W 9433   0.300  10.667  16.442
 8569W        W 9434   2.497   8.425  18.077
 8570W        W 9435   0.480   7.955  18.076
 8571W        W 9436   0.211   8.555  15.409
 8572W        W 9437   0.902   8.544  15.134
 8573W        W 9438   2.665   8.871  17.951
 8574W        W 9439   1.008   9.152  16.660
 8575W        W 9440   2.482   7.438  15.780
 8576W        W 9441   1.613  10.869  16.283
 8577W        W 9442   2.827  10.331  17.220
 8578W        W 9443   2.411  10.480  16.331
 8579W        W 9444   2.430   9.460  15.925
 8580W        W 9445   1.892   7.685  14.996
 8581W        W 9446   3.573   7.313  15.718
 8582W        W 9447   1.261   8.948  14.881
 8583W        W 9448   3.427   8.285  15.871
 8584W        W 9449   2.119   9.455  14.748
 8585W        W 9450   3.055   9.655  17.496
 8586W        W 9451   2.709  10.356  14.963
 8587W        W 9452   1.324   8.031  17.869
 8588W        W 9453   1.144   8.615  17.110
 8589W        W 9454   3.236  10.110  17.387
 8590W        W 9455   2.336   8.060  17.764
 8591W        W 9456   0.180   8.531  17.541
 8592W        W 9457   1.940   9.008  17.267
 8593W        W 9458   0.297   9.766  15.924
 8594W        W 9459   0.444   9.063  16.814
 8595W        W 9460   2.761   9.349  17.164
 8596W        W 9461   2.533  10.729  17.975
 8597W        W 9462   2.429   8.468  17.528
 8598W        W 9463   2.706  10.522  15.933
 8599W        W 9464   1.708  10.242  17.256
 8600W        W 9465   1.193  10.597  16.525
 8601W        W 9466   2.998   9.768  16.944
 8602W        W 9467   2.048   9.840  18.081
 8603W        W 9468   0.653   9.793  16.420
 8604W        W 9469   2.999   9.552  16.065
 8605W        W 9470   2.640  10.618  16.816
 8606W        W 9471   0.618  10.347  16.686
 8607W        W 9472   1.639   8.399  17.896
 8608W        W 9473   2.090  10.565  15.407
 8609W        W 9474   1.398   9.820  18.045
 8610W        W 9475   1.524  10.058  15.422
 8611W        W 9476   0.745   8.798  14.681
 8612W        W 9477   0.084  10.884  21.580
 8613W        W 9478   0.460   9.777  21.103
 8614W        W 9479   3.165   9.507  18.873
 8615W        W 9480   3.295  10.592  20.900
 8616W        W 9481   1.213  10.583  18.426
 8617W        W 9482   1.296   8.735  19.409
 8618W        W 9483   0.811   8.583  19.573
 8619W        W 9484   1.802   9.398  19.007
 8620W        W 9485   1.477  10.490  21.362
 8621W        W 9486   0.126   8.051  21.325
 8622W        W 9487   0.888   7.331  21.127
 8623W        W 9488   2.582   7.719  20.014
 8624W        W 9489   2.231   8.590  18.584
 8625W        W 9490   2.801   8.024  21.675
 8626W        W 9491   0.167   7.816  20.800
 8627W        W 9492   0.266  10.435  21.821
 8628W        W 9493   1.788   9.825  18.553
 8629W        W 9494   0.220   8.608  20.246
 8630W        W 9495   1.113   8.499  21.483
 8631W        W 9496   3.572   8.358  19.982
 8632W        W 9497   3.336   9.401  20.841
 8633W        W 9498   1.644   8.734  19.868
 8634W        W 9499   2.190  10.073  20.237
 8635W        W 9500   0.690   9.507  20.469
 8636W        W 9501   0.049   9.035  20.040
 8637W        W 9502   1.085   9.007  21.232
 8638W        W 9503   3.356   8.790  21.486
 8639W        W 9504   0.972  10.234  19.931
 8640W        W 9505   2.093   9.923  21.065
 8641W        W 9506   1.313   8.563  20.290
 8642W        W 9507   1.605   9.347  19.933
 8643W        W 9508   2.602  10.120  21.781
 8644W        W 9509   1.681   9.440  21.791
 8645W        W 9510   1.662   9.156  21.269
 8646W        W 9511   0.071   8.547  21.791
 8647W        W 9512   2.903  10.082  21.390
 8648W        W 9513   0.484   7.664  19.388
 8649W        W 9514   1.011   9.922  20.387
 8650W        W 9515   3.474   9.705  19.677
 8651W        W 9516   2.887   8.105  20.244
 8652W        W 9517   3.172   8.058  18.339
 8653W        W 9518   3.637   8.859  20.645
 8654W        W 9519   1.604  10.566  20.398
 8655W        W 9520   3.378  10.032  18.836
 8656W        W 9521   0.507  10.818  18.590
 8657W        W 9522   0.900  10.864  19.266
 8658W        W 9523   0.697   7.618  20.692
 8659W        W 9524   3.320   8.636  20.967
 8660W        W 9525   2.725   9.058  19.426
 8661W        W 9526   2.691   8.746  18.453
 8662W        W 9527   1.899   9.890  20.593
 8663W        W 9528   1.705   8.220  19.792
 8664W        W 9529   2.305  10.307  20.786
 8665W        W 9530   3.176   9.098  19.208
 8666W        W 9531   2.078   7.756  19.224
 8667W        W 9532   0.735  10.450  18.907
 8668W        W 9533   0.106   7.949  19.506
 8669W        W 9534   2.892   8.556  19.980
 8670W        W 9535   0.350  10.173  19.895
 8671W        W 9536   1.691  10.523  18.765
 8672W        W 9537   3.083   8.549  18.229
 8673W        W 9538   0.106  10.307  20.393
 8674W        W 9539   0.897   9.879  20.873
 8675W        W 9540   1.270   9.239  19.492
 8676W        W 9541   1.292   7.644  20.585
 8677W        W 9542   3.521   7.406  19.882
 8678W        W 9543   0.740   9.278  18.350
 8679W        W 9544   0.395   8.311  18.529
 8680W        W 9545   0.457  10.267  19.323
 8681W        W 9546   1.588   9.750  19.571
 8682W        W 9547   2.920  10.609  21.285
 8683W        W 9548   1.846   8.251  18.969
 8684W        W 9549   3.229  10.649  19.741
 8685W        W 9550   2.906   8.502  21.339
 8686W        W 9551   3.619  10.158  19.473
 8687W        W 9552   2.246   9.450  20.957
 8688W        W 9553   0.012   9.001  19.163
 8689W        W 9554   1.123   9.416  20.736
 8690W        W 9555   2.327   8.680  19.114
 8691W        W 9556   2.204   9.170  19.218
 8692W        W 9557   0.547   8.590  20.692
 8693W        W 9558   0.532   8.466  21.614
 8694W        W 9559   0.422   7.383  19.773
 8695W        W 9560   2.190   7.730  20.334
 8696W        W 9561   1.838   7.915  21.497
 8697W        W 9562   2.193   8.064  18.675
 8698W        W 9563   3.376  10.457  21.429
 8699W        W 9564   2.343   7.538  21.468
 8700W        W 9565   3.362   9.839  21.590
 8701W        W 9566   2.792   8.006  21.186
 8702W        W 9567   2.592   7.944  19.456
 8703W        W 9568   2.985   9.078  21.860
 8704W        W 9569   0.725  10.654  19.846
 8705W        W 9570   1.383   8.371  18.832
 8706W        W 9571   0.952   7.655  21.496
 8707W        W 9572   3.004   8.139  19.177
 8708W        W 9573   3.371   8.621  19.122
 8709W        W 9574   1.114  10.838  21.593
 8710W        W 9575   1.040   7.374  18.828
 8711W        W 9576   3.361   7.908  19.863
 8712W        W 9577   3.511  10.157  18.308
 8713W        W 9578   0.418   9.360  20.010
 8714W        W 9579   2.335   7.947  18.240
 8715W        W 9580   3.469  10.279  19.960
 8716W        W 9581   3.508   7.473  20.710
 8717W        W 9582   1.953   8.685  21.264
 8718W        W 9583   2.046  10.024  18.967
 8719W        W 9584   2.446   9.318  21.707
 8720W        W 9585   2.120   7.295  20.016
 8721W        W 9586   0.732   8.198  20.079
 8722W        W 9587   0.286   9.398  20.853
 8723W        W 9588   2.145  10.591  19.559
 8724W        W 9589   3.339   8.188  20.431
 8725W        W 9590   1.976  10.535  21.198
 8726W        W 9591   3.319   9.594  18.403
 8727W        W 9592   1.754   9.077  19.464
 8728W        W 9593   3.606   7.588  21.205
 8729W        W 9594   1.755   9.423  20.799
 8730W        W 9595   1.972   8.309  20.244
 8731W        W 9596   2.824   8.607  19.082
 8732W        W 9597   3.111   8.340  18.724
 8733W        W 9598   2.920  10.380  19.113
 8734W        W 9599   2.754   9.983  19.909
 8735W        W 9600   2.650   9.062  18.887
 8736W        W 9601   2.083   9.272  19.873
 8737W        W 9602   2.964   9.060  19.940
 8738W        W 9603   0.339   8.075  20.364
 8739W        W 9604   3.117   9.127  21.191
 8740W        W 9605   1.398  10.189  19.739
 8741W        W 9606   2.405  10.722  21.063
 8742W        W 9607   2.399   8.052  20.827
 8743W        W 9608   1.606  10.760  20.888
 8744W        W 9609   3.303   7.714  19.354
 8745W        W 9610   3.094   9.033  20.655
 8746W        W 9611   0.077   8.354  20.693
 8747W        W 9612   2.937   8.149  19.711
 8748W        W 9613   3.348   8.300  21.488
 8749W        W 9614   2.233   9.999  19.706
 8750W        W 9615   1.489  10.590  19.319
 8751W        W 9616   0.604   7.770  18.577
 8752W        W 9617   1.708   7.424  20.387
 8753W        W 9618   0.736  10.544  18.235
 8754W        W 9619   1.110   9.010  18.986
 8755W        W 9620   1.764   9.639  21.299
 8756W        W 9621   1.594   7.997  19.289
 8757W        W 9622   2.950   7.594  19.717
 8758W        W 9623   2.670  10.876  20.045
 8759W        W 9624   2.082  10.524  20.385
 8760W        W 9625   1.478   9.561  20.346
 8761W        W 9626   3.248  10.284  20.472
 8762W        W 9627   0.942   7.787  19.241
 8763W        W 9628   1.464  10.084  20.201
 8764W        W 9629   0.947   8.015  18.266
 8765W        W 9630   1.748   8.624  20.660
 8766W        W 9631   2.596   7.490  20.530
 8767W        W 9632   0.016   9.333  20.415
 8768W        W 9633   1.720   9.151  18.573
 8769W        W 9634   0.988   7.466  18.343
 8770W        W 9635   1.726   8.547  19.394
 8771W        W 9636   2.696   7.523  21.093
 8772W        W 9637   1.284   9.535  21.202
 8773W        W 9638   2.088   9.317  21.419
 8774W        W 9639   2.705   9.347  21.312
 8775W        W 9640   1.989   7.487  21.817
 8776W        W 9641   1.211   8.103  20.210
 8777W        W 9642   0.637   8.059  19.608
 8778W        W 9643   0.423  10.771  19.284
 8779W        W 9644   1.755  10.101  21.409
 8780W        W 9645   0.790   9.586  18.768
 8781W        W 9646   2.470   8.971  19.989
 8782W        W 9647   2.750   8.770  20.388
 8783W        W 9648   1.955   9.444  20.322
 8784W        W 9649   2.425   9.818  18.454
 8785W        W 9650   2.097   7.839  19.782
 8786W        W 9651   3.576   8.117  19.050
 8787W        W 9652   0.070  10.706  21.081
 8788W        W 9653   0.487   9.932  20.613
 8789W        W 9654   0.054  10.778  18.845
 8790W        W 9655   1.953   8.048  20.651
 8791W        W 9656   1.316  10.071  18.500
 8792W        W 9657   3.221  10.453  18.686
 8793W        W 9658   2.196   9.106  18.700
 8794W        W 9659   1.039   8.297  19.217
 8795W        W 9660   1.871   8.207  18.269
 8796W        W 9661   2.455   9.772  21.447
 8797W        W 9662   2.808   7.678  19.064
 8798W        W 9663   0.138   7.526  18.512
 8799W        W 9664   1.424   9.845  20.802
 8800W        W 9665   1.223   9.761  19.894
 8801W        W 9666   0.965   9.713  18.292
 8802W        W 9667   0.206   9.954  19.060
 8803W        W 9668   0.710   9.024  21.502
 8804W        W 9669   1.414   7.584  21.688
 8805W        W 9670   2.123   7.726  21.044
 8806W        W 9671   1.318   7.494  19.325
 8807W        W 9672   2.377   7.571  18.830
 8808W        W 9673   0.322   7.503  20.407
 8809W        W 9674   0.370   8.466  19.777
 8810W        W 9675   3.059   7.574  20.183
 8811W        W 9676   0.481   8.072  18.997
 8812W        W 9677   3.052   7.760  20.613
 8813W        W 9678   3.448   8.963  18.298
 8814W        W 9679   0.740   7.721  20.117
 8815W        W 9680   1.854   8.293  21.057
 8816W        W 9681   0.002   7.983  18.535
 8817W        W 9682   0.788   9.372  21.096
 8818W        W 9683   2.146   8.770  20.275
 8819W        W 9684   2.013  10.849  18.571
 8820W        W 9685   0.159   9.356  18.268
 8821W        W 9686   0.894   9.767  21.394
 8822W        W 9687   0.415   8.934  21.025
 8823W        W 9688   1.406   9.039  20.819
 8824W        W 9689   3.174   7.398  21.081
 8825W        W 9690   3.572   9.008  21.072
 8826W        W 9691   3.560   9.208  18.758
 8827W        W 9692   2.423   9.540  18.857
 8828W        W 9693   2.897  10.840  18.552
 8829W        W 9694   2.074   8.830  21.694
 8830W        W 9695   0.404   9.797  21.734
 8831W        W 9696   3.610   7.719  21.686
 8832W        W 9697   3.328   8.647  20.307
 8833W        W 9698   1.636  10.777  21.784
 8834W        W 9699   1.491   7.406  18.511
 8835W        W 9700   3.030  10.005  18.454
 8836W        W 9701   0.799   8.098  21.340
 8837W        W 9702   1.233  10.092  21.202
 8838W        W 9703   3.359   8.083  21.000
 8839W        W 9704   2.570  10.742  18.968
 8840W        W 9705   2.809   9.361  20.335
 8841W        W 9706   1.059   7.777  21.002
 8842W        W 9707   1.528   8.846  21.759
 8843W        W 9708   1.031  10.025  18.953
 8844W        W 9709   2.786   9.523  19.217
 8845W        W 9710   0.554   8.149  20.941
 8846W        W 9711   1.883  10.211  19.405
 8847W        W 9712   3.633   8.771  19.586
 8848W        W 9713   1.855   7.404  21.305
 8849W        W 9714   2.635  10.109  20.384
 8850W        W 9715   2.938  10.453  20.092
 8851W        W 9716   2.157  10.255  18.520
 8852W        W 9717   0.167  10.147  21.362
 8853W        W 9718   0.910   8.139  20.600
 8854W        W 9719   0.880   7.487  19.710
 8855W        W 9720   2.501   8.329  20.402
 8856W        W 9721   1.299   9.500  18.602
 8857W        W 9722   3.297   9.442  20.101
 8858W        W 9723   0.624  10.200  21.524
 8859W        W 9724   3.011  10.882  19.321
 8860W        W 9725   1.110   7.902  19.766
 8861W        W 9726   0.879   9.395  19.856
 8862W        W 9727   1.192  10.806  20.606
 8863W        W 9728   3.259  10.902  21.638
 8864W        W 9729   2.418   9.090  20.571
 8865W        W 9730   0.267   8.888  18.486
 8866W        W 9731   3.401  10.546  19.183
 8867W        W 9732   3.238   7.870  18.802
 8868W        W 9733   1.377   7.389  21.205
 8869W        W 9734   3.083  10.191  19.663
 8870W        W 9735   3.112   8.747  19.568
 8871W        W 9736   1.229   8.420  19.784
 8872W        W 9737   1.474   8.682  21.108
 8873W        W 9738   2.585   9.835  20.971
 8874W        W 9739   1.235   8.289  21.083
 8875W        W 9740   1.214  10.755  19.699
 8876W        W 9741   0.531  10.714  21.333
 8877W        W 9742   0.643  10.075  18.463
 8878W        W 9743   3.160   9.833  19.273
 8879W        W 9744   0.764   8.625  21.159
 8880W        W 9745   3.537   8.555  18.640
 8881W        W 9746   1.282   9.612  19.111
 8882W        W 9747   2.381   8.994  21.192
 8883W        W 9748   2.272   8.622  20.736
 8884W        W 9749   0.832   8.994  20.765
 8885W        W 9750   2.833   7.516  21.588
 8886W        W 9751   0.497   7.666  21.175
 8887W        W 9752   0.836   8.689  20.228
 8888W        W 9753   1.205   8.503  18.350
 8889W        W 9754   0.008  10.262  20.895
 8890W        W 9755   1.593   8.971  20.338
 8891W        W 9756   1.416   7.996  18.443
 8892W        W 9757   0.551   8.812  19.224
 8893W        W 9758   0.322  10.664  20.661
 8894W        W 9759   3.117   8.890  18.769
 8895W        W 9760   3.212   7.806  21.455
 8896W        W 9761   2.648  10.015  19.418
 8897W        W 9762   0.246   8.939  21.595
 8898W        W 9763   3.212   7.403  18.891
 8899W        W 9764   2.732   9.878  18.902
 8900W        W 9765   1.634   8.936  18.987
 8901W        W 9766   2.821   7.740  18.510
 8902W        W 9767   2.886   8.347  20.696
 8903W        W 9768   0.595   8.940  19.903
 8904W        W 9769   0.889   9.879  19.552
 8905W        W 9770   2.652   8.499  19.517
 8906W        W 9771   1.675   7.878  20.213
 8907W        W 9772   3.637   9.789  20.724
 8908W        W 9773   3.555   7.776  20.285
 8909W        W 9774   0.094  10.606  19.661
 8910W        W 9775   0.603   9.793  19.197
 8911W        W 9776   0.518   7.410  21.750
 8912W        W 9777   1.637  10.263  21.852
 8913W        W 9778   3.392   9.231  19.642
 8914W        W 9779   2.746   9.408  18.522
 8915W        W 9780   2.041  10.929  20.734
 8916W        W 9781   2.898   9.651  21.771
 8917W        W 9782   1.713   7.361  19.051
 8918W        W 9783   2.426   8.230  19.910
 8919W        W 9784   0.112   9.817  20.242
 8920W        W 9785   1.365   7.779  18.883
 8921W        W 9786   1.169   9.263  21.732
 8922W        W 9787   2.163   8.244  19.446
 8923W        W 9788   2.368   9.654  20.568
 8924W        W 9789   0.522  10.259  21.003
 8925W        W 9790   1.113  10.242  21.726
 8926W        W 9791   0.964   8.039  18.740
 8927W        W 9792   2.481   8.181  19.065
 8928W        W 9793   2.439  10.289  21.302
 8929W        W 9794   1.124   8.881  19.901
 8930W        W 9795   0.779  10.579  20.766
 8931W        W 9796   3.524  10.696  18.367
 8932W        W 9797   0.387   9.368  21.363
 8933W        W 9798   2.382   9.630  20.051
 8934W        W 9799   0.818   9.279  19.293
 8935W        W 9800   1.189  10.286  20.688
 8936W        W 9801   1.567   7.705  19.729
 8937W        W 9802   0.178   9.689  18.659
 8938W        W 9803   1.697   8.640  18.529
 8939W        W 9804   0.343   9.189  19.548
 8940W        W 9805   1.633   7.831  21.012
 8941W        W 9806   3.305   7.540  18.439
 8942W        W 9807   3.398   9.286  21.538
 8943W        W 9808   2.052  10.543  21.690
 8944W        W 9809   3.610   9.637  21.212
 8945W        W 9810   3.018  10.435  21.823
 8946W        W 9811   0.757  10.891  20.301
 8947W        W 9812   3.616   9.513  19.175
 8948W        W 9813   2.146   8.780  19.688
 8949W        W 9814   1.913   7.392  19.578
 8950W        W 9815   0.972  10.376  19.415
 8951W        W 9816   1.471   8.117  20.640
 8952W        W 9817   1.171   7.486  20.109
 8953W        W 9818   0.234  10.308  18.657
 8954W        W 9819   2.050   9.672  19.375
 8955W        W 9820   0.925  10.467  21.254
 8956W        W 9821   0.402   9.290  18.950
 8957W        W 9822   0.287   7.833  19.949
 8958W        W 9823   1.835   9.798  20.006
 8959W        W 9824   0.087   7.652  19.026
 8960W        W 9825   2.751   8.858  20.953
 8961W        W 9826   2.628   8.244  18.525
 8962W        W 9827   3.145   9.916  20.173
 8963W        W 9828   1.806  10.400  20.004
 8964W        W 9829   1.218  10.504  18.915
 8965W        W 9830   2.500   7.407  18.345
 8966W        W 9831   0.300  10.667  20.086
 8967W        W 9832   2.497   8.425  21.721
 8968W        W 9833   0.480   7.955  21.720
 8969W        W 9834   0.211   8.555  19.053
 8970W        W 9835   0.902   8.544  18.778
 8971W        W 9836   2.665   8.871  21.595
 8972W        W 9837   1.008   9.152  20.304
 8973W        W 9838   2.482   7.438  19.424
 8974W        W 9839   1.613  10.869  19.927
 8975W        W 9840   2.827  10.331  20.864
 8976W        W 9841   2.411  10.480  19.975
 8977W        W 9842   2.430   9.460  19.569
 8978W        W 9843   1.892   7.685  18.640
 8979W        W 9844   3.573   7.313  19.362
 8980W        W 9845   1.261   8.948  18.525
 8981W        W 9846   3.427   8.285  19.515
 8982W        W 9847   2.119   9.455  18.392
 8983W        W 9848   3.055   9.655  21.140
 8984W        W 9849   2.709  10.356  18.607
 8985W        W 9850   1.324   8.031  21.513
 8986W        W 9851   1.144   8.615  20.754
 8987W        W 9852   3.236  10.110  21.031
 8988W        W 9853   2.336   8.060  21.408
 8989W        W 9854   0.180   8.531  21.185
 8990W        W 9855   1.940   9.008  20.911
 8991W        W 9856   0.297   9.766  19.568
 8992W        W 9857   0.444   9.063  20.458
 8993W        W 9858   2.761   9.349  20.808
 8994W        W 9859   2.533  10.729  21.619
 8995W        W 9860   2.429   8.468  21.172
 8996W        W 9861   2.706  10.522  19.577
 8997W        W 9862   1.708  10.242  20.900
 8998W        W 9863   1.193  10.597  20.169
 8999W        W 9864   2.998   9.768  20.588
 9000W        W 9865   2.048   9.840  21.725
 9001W        W 9866   0.653   9.793  20.064
 9002W        W 9867   2.999   9.552  19.709
 9003W        W 9868   2.640  10.618  20.460
 9004W        W 9869   0.618  10.347  20.330
 9005W        W 9870   1.639   8.399  21.540
 9006W        W 9871   2.090  10.565  19.051
 9007W        W 9872   1.398   9.820  21.689
 9008W        W 9873   1.524  10.058  19.066
 9009W        W 9874   0.745   8.798  18.325
 9010W        W 9875   0.084  10.884  25.225
 9011W        W 9876   0.460   9.777  24.748
 9012W        W 9877   3.165   9.507  22.518
 9013W        W 9878   3.295  10.592  24.545
 9014W        W 9879   1.213  10.583  22.071
 9015W        W 9880   1.296   8.735  23.054
 9016W        W 9881   0.811   8.583  23.218
 9017W        W 9882   1.802   9.398  22.652
 9018W        W 9883   1.477  10.490  25.007
 9019W        W 9884   0.126   8.051  24.970
 9020W        W 9885   0.888   7.331  24.772
 9021W        W 9886   2.582   7.719  23.659
 9022W        W 9887   2.231   8.590  22.229
 9023W        W 9888   2.801   8.024  25.320
 9024W        W 9889   0.167   7.816  24.445
 9025W        W 9890   0.266  10.435  25.466
 9026W        W 9891   1.788   9.825  22.198
 9027W        W 9892   0.220   8.608  23.891
 9028W        W 9893   1.113   8.499  25.128
 9029W        W 9894   3.572   8.358  23.627
 9030W        W 9895   3.336   9.401  24.486
 9031W        W 9896   1.644   8.734  23.513
 9032W        W 9897   2.190  10.073  23.882
 9033W        W 9898   0.690   9.507  24.114
 9034W        W 9899   0.049   9.035  23.685
 9035W        W 9900   1.085   9.007  24.877
 9036W        W 9901   3.356   8.790  25.131
 9037W        W 9902   0.972  10.234  23.576
 9038W        W 9903   2.093   9.923  24.710
 9039W        W 9904   1.313   8.563  23.935
 9040W        W 9905   1.605   9.347  23.578
 9041W        W 9906   2.602  10.120  25.426
 9042W        W 9907   1.681   9.440  25.436
 9043W        W 9908   1.662   9.156  24.914
 9044W        W 9909   0.071   8.547  25.436
 9045W        W 9910   2.903  10.082  25.035
 9046W        W 9911   0.484   7.664  23.033
 9047W        W 9912   1.011   9.922  24.032
 9048W        W 9913   3.474   9.705  23.322
 9049W        W 9914   2.887   8.105  23.889
 9050W        W 9915   3.172   8.058  21.984
 9051W        W 9916   3.637   8.859  24.290
 9052W        W 9917   1.604  10.566  24.043
 9053W        W 9918   3.378  10.032  22.481
 9054W        W 9919   0.507  10.818  22.235
 9055W        W 9920   0.900  10.864  22.911
 9056W        W 9921   0.697   7.618  24.337
 9057W        W 9922   3.320   8.636  24.612
 9058W        W 9923   2.725   9.058  23.071
 9059W        W 9924   2.691   8.746  22.098
 9060W        W 9925   1.899   9.890  24.238
 9061W        W 9926   1.705   8.220  23.437
 9062W        W 9927   2.305  10.307  24.431
 9063W        W 9928   3.176   9.098  22.853
 9064W        W 9929   2.078   7.756  22.869
 9065W        W 9930   0.735  10.450  22.552
 9066W        W 9931   0.106   7.949  23.151
 9067W        W 9932   2.892   8.556  23.625
 9068W        W 9933   0.350  10.173  23.540
 9069W        W 9934   1.691  10.523  22.410
 9070W        W 9935   3.083   8.549  21.874
 9071W        W 9936   0.106  10.307  24.038
 9072W        W 9937   0.897   9.879  24.518
 9073W        W 9938   1.270   9.239  23.137
 9074W        W 9939   1.292   7.644  24.230
 9075W        W 9940   3.521   7.406  23.527
 9076W        W 9941   0.740   9.278  21.995
 9077W        W 9942   0.395   8.311  22.174
 9078W        W 9943   0.457  10.267  22.968
 9079W        W 9944   1.588   9.750  23.216
 9080W        W 9945   2.920  10.609  24.930
 9081W        W 9946   1.846   8.251  22.614
 9082W        W 9947   3.229  10.649  23.386
 9083W        W 9948   2.906   8.502  24.984
 9084W        W 9949   3.619  10.158  23.118
 9085W        W 9950   2.246   9.450  24.602
 9086W        W 9951   0.012   9.001  22.808
 9087W        W 9952   1.123   9.416  24.381
 9088W        W 9953   2.327   8.680  22.759
 9089W        W 9954   2.204   9.170  22.863
 9090W        W 9955   0.547   8.590  24.337
 9091W        W 9956   0.532   8.466  25.259
 9092W        W 9957   0.422   7.383  23.418
 9093W        W 9958   2.190   7.730  23.979
 9094W        W 9959   1.838   7.915  25.142
 9095W        W 9960   2.193   8.064  22.320
 9096W        W 9961   3.376  10.457  25.074
 9097W        W 9962   2.343   7.538  25.113
 9098W        W 9963   3.362   9.839  25.235
 9099W        W 9964   2.792   8.006  24.831
 9100W        W 9965   2.592   7.944  23.101
 9101W        W 9966   2.985   9.078  25.505
 9102W        W 9967   0.725  10.654  23.491
 9103W        W 9968   1.383   8.371  22.477
 9104W        W 9969   0.952   7.655  25.141
 9105W        W 9970   3.004   8.139  22.822
 9106W        W 9971   3.371   8.621  22.767
 9107W        W 9972   1.114  10.838  25.238
 9108W        W 9973   1.040   7.374  22.473
 9109W        W 9974   3.361   7.908  23.508
 9110W        W 9975   3.511  10.157  21.953
 9111W        W 9976   0.418   9.360  23.655
 9112W        W 9977   2.335   7.947  21.885
 9113W        W 9978   3.469  10.279  23.605
 9114W        W 9979   3.508   7.473  24.355
 9115W        W 9980   1.953   8.685  24.909
 9116W        W 9981   2.046  10.024  22.612
 9117W        W 9982   2.446   9.318  25.352
 9118W        W 9983   2.120   7.295  23.661
 9119W        W 9984   0.732   8.198  23.724
 9120W        W 9985   0.286   9.398  24.498
 9121W        W 9986   2.145  10.591  23.204
 9122W        W 9987   3.339   8.188  24.076
 9123W        W 9988   1.976  10.535  24.843
 9124W        W 9989   3.319   9.594  22.048
 9125W        W 9990   1.754   9.077  23.109
 9126W        W 9991   3.606   7.588  24.850
 9127W        W 9992   1.755   9.423  24.444
 9128W        W 9993   1.972   8.309  23.889
 9129W        W 9994   2.824   8.607  22.727
 9130W        W 9995   3.111   8.340  22.369
 9131W        W 9996   2.920  10.380  22.758
 9132W        W 9997   2.754   9.983  23.554
 9133W        W 9998   2.650   9.062  22.532
 9134W        W 9999   2.083   9.272  23.518
 9135W        W10000   2.964   9.060  23.585
 9136W        W10001   0.339   8.075  24.009
 9137W        W10002   3.117   9.127  24.836
 9138W        W10003   3.468  10.745  23.982
 9139W        W10004   1.398  10.189  23.384
 9140W        W10005   2.405  10.722  24.708
 9141W        W10006   2.399   8.052  24.472
 9142W        W10007   1.606  10.760  24.533
 9143W        W10008   3.303   7.714  22.999
 9144W        W10009   3.094   9.033  24.300
 9145W        W10010   0.077   8.354  24.338
 9146W        W10011   2.937   8.149  23.356
 9147W        W10012   3.348   8.300  25.133
 9148W        W10013   2.233   9.999  23.351
 9149W        W10014   1.489  10.590  22.964
 9150W        W10015   0.604   7.770  22.222
 9151W        W10016   1.708   7.424  24.032
 9152W        W10017   0.736  10.544  21.880
 9153W        W10018   1.110   9.010  22.631
 9154W        W10019   1.764   9.639  24.944
 9155W        W10020   1.594   7.997  22.934
 9156W        W10021   2.950   7.594  23.362
 9157W        W10022   2.670  10.876  23.690
 9158W        W10023   2.082  10.524  24.030
 9159W        W10024   1.478   9.561  23.991
 9160W        W10025   3.248  10.284  24.117
 9161W        W10026   0.942   7.787  22.886
 9162W        W10027   1.464  10.084  23.846
 9163W        W10028   0.947   8.015  21.911
 9164W        W10029   1.748   8.624  24.305
 9165W        W10030   2.596   7.490  24.175
 9166W        W10031   0.016   9.333  24.060
 9167W        W10032   1.720   9.151  22.218
 9168W        W10033   0.988   7.466  21.988
 9169W        W10034   1.726   8.547  23.039
 9170W        W10035   2.696   7.523  24.738
 9171W        W10036   1.284   9.535  24.847
 9172W        W10037   2.088   9.317  25.064
 9173W        W10038   2.705   9.347  24.957
 9174W        W10039   1.989   7.487  25.462
 9175W        W10040   1.211   8.103  23.855
 9176W        W10041   0.637   8.059  23.253
 9177W        W10042   0.423  10.771  22.929
 9178W        W10043   1.755  10.101  25.054
 9179W        W10044   0.790   9.586  22.413
 9180W        W10045   2.470   8.971  23.634
 9181W        W10046   2.750   8.770  24.033
 9182W        W10047   1.955   9.444  23.967
 9183W        W10048   2.425   9.818  22.099
 9184W        W10049   2.097   7.839  23.427
 9185W        W10050   3.576   8.117  22.695
 9186W        W10051   0.070  10.706  24.726
 9187W        W10052   0.487   9.932  24.258
 9188W        W10053   0.054  10.778  22.490
 9189W        W10054   1.953   8.048  24.296
 9190W        W10055   1.316  10.071  22.145
 9191W        W10056   3.221  10.453  22.331
 9192W        W10057   2.196   9.106  22.345
 9193W        W10058   1.039   8.297  22.862
 9194W        W10059   1.871   8.207  21.914
 9195W        W10060   2.455   9.772  25.092
 9196W        W10061   2.808   7.678  22.709
 9197W        W10062   0.138   7.526  22.157
 9198W        W10063   1.424   9.845  24.447
 9199W        W10064   1.223   9.761  23.539
 9200W        W10065   0.965   9.713  21.937
 9201W        W10066   0.206   9.954  22.705
 9202W        W10067   0.710   9.024  25.147
 9203W        W10068   1.414   7.584  25.333
 9204W        W10069   2.123   7.726  24.689
 9205W        W10070   1.318   7.494  22.970
 9206W        W10071   2.377   7.571  22.475
 9207W        W10072   0.322   7.503  24.052
 9208W        W10073   0.370   8.466  23.422
 9209W        W10074   3.059   7.574  23.828
 9210W        W10075   0.481   8.072  22.642
 9211W        W10076   3.052   7.760  24.258
 9212W        W10077   3.448   8.963  21.943
 9213W        W10078   0.740   7.721  23.762
 9214W        W10079   1.854   8.293  24.702
 9215W        W10080   0.002   7.983  22.180
 9216W        W10081   0.788   9.372  24.741
 9217W        W10082   2.146   8.770  23.920
 9218W        W10083   2.013  10.849  22.216
 9219W        W10084   0.159   9.356  21.913
 9220W        W10085   0.894   9.767  25.039
 9221W        W10086   0.415   8.934  24.670
 9222W        W10087   1.406   9.039  24.464
 9223W        W10088   3.174   7.398  24.726
 9224W        W10089   3.572   9.008  24.717
 9225W        W10090   3.560   9.208  22.403
 9226W        W10091   2.423   9.540  22.502
 9227W        W10092   2.897  10.840  22.197
 9228W        W10093   2.074   8.830  25.339
 9229W        W10094   0.404   9.797  25.379
 9230W        W10095   3.610   7.719  25.331
 9231W        W10096   3.328   8.647  23.952
 9232W        W10097   1.636  10.777  25.429
 9233W        W10098   1.491   7.406  22.156
 9234W        W10099   3.030  10.005  22.099
 9235W        W10100   0.799   8.098  24.985
 9236W        W10101   1.233  10.092  24.847
 9237W        W10102   3.359   8.083  24.645
 9238W        W10103   2.570  10.742  22.613
 9239W        W10104   2.809   9.361  23.980
 9240W        W10105   1.059   7.777  24.647
 9241W        W10106   1.528   8.846  25.404
 9242W        W10107   1.031  10.025  22.598
 9243W        W10108   2.786   9.523  22.862
 9244W        W10109   0.554   8.149  24.586
 9245W        W10110   1.883  10.211  23.050
 9246W        W10111   3.633   8.771  23.231
 9247W        W10112   1.855   7.404  24.950
 9248W        W10113   2.635  10.109  24.029
 9249W        W10114   2.938  10.453  23.737
 9250W        W10115   2.157  10.255  22.165
 9251W        W10116   0.167  10.147  25.007
 9252W        W10117   0.910   8.139  24.245
 9253W        W10118   0.880   7.487  23.355
 9254W        W10119   2.501   8.329  24.047
 9255W        W10120   1.299   9.500  22.247
 9256W        W10121   3.297   9.442  23.746
 9257W        W10122   0.624  10.200  25.169
 9258W        W10123   3.011  10.882  22.966
 9259W        W10124   1.110   7.902  23.411
 9260W        W10125   0.879   9.395  23.501
 9261W        W10126   1.192  10.806  24.251
 9262W        W10127   3.259  10.902  25.283
 9263W        W10128   2.418   9.090  24.216
 9264W        W10129   0.267   8.888  22.131
 9265W        W10130   3.401  10.546  22.828
 9266W        W10131   3.238   7.870  22.447
 9267W        W10132   1.377   7.389  24.850
 9268W        W10133   3.083  10.191  23.308
 9269W        W10134   3.112   8.747  23.213
 9270W        W10135   1.229   8.420  23.429
 9271W        W10136   1.474   8.682  24.753
 9272W        W10137   2.585   9.835  24.616
 9273W        W10138   1.235   8.289  24.728
 9274W        W10139   1.214  10.755  23.344
 9275W        W10140   0.531  10.714  24.978
 9276W        W10141   0.643  10.075  22.108
 9277W        W10142   3.160   9.833  22.918
 9278W        W10143   0.764   8.625  24.804
 9279W        W10144   3.537   8.555  22.285
 9280W        W10145   1.282   9.612  22.756
 9281W        W10146   2.381   8.994  24.837
 9282W        W10147   2.272   8.622  24.381
 9283W        W10148   0.832   8.994  24.410
 9284W        W10149   3.042  10.882  24.239
 9285W        W10150   2.833   7.516  25.233
 9286W        W10151   0.497   7.666  24.820
 9287W        W10152   0.836   8.689  23.873
 9288W        W10153   1.205   8.503  21.995
 9289W        W10154   0.008  10.262  24.540
 9290W        W10155   1.593   8.971  23.983
 9291W        W10156   1.416   7.996  22.088
 9292W        W10157   0.551   8.812  22.869
 9293W        W10158   0.322  10.664  24.306
 9294W        W10159   3.117   8.890  22.414
 9295W        W10160   3.212   7.806  25.100
 9296W        W10161   2.648  10.015  23.063
 9297W        W10162   0.246   8.939  25.240
 9298W        W10163   3.212   7.403  22.536
 9299W        W10164   2.732   9.878  22.547
 9300W        W10165   1.634   8.936  22.632
 9301W        W10166   2.821   7.740  22.155
 9302W        W10167   2.886   8.347  24.341
 9303W        W10168   0.595   8.940  23.548
 9304W        W10169   0.889   9.879  23.197
 9305W        W10170   2.652   8.499  23.162
 9306W        W10171   1.675   7.878  23.858
 9307W        W10172   3.637   9.789  24.369
 9308W        W10173   3.555   7.776  23.930
 9309W        W10174   0.094  10.606  23.306
 9310W        W10175   0.603   9.793  22.842
 9311W        W10176   0.518   7.410  25.395
 9312W        W10177   1.637  10.263  25.497
 9313W        W10178   3.392   9.231  23.287
 9314W        W10179   2.746   9.408  22.167
 9315W        W10180   2.041  10.929  24.379
 9316W        W10181   2.898   9.651  25.416
 9317W        W10182   1.713   7.361  22.696
 9318W        W10183   2.426   8.230  23.555
 9319W        W10184   0.112   9.817  23.887
 9320W        W10185   1.365   7.779  22.528
 9321W        W10186   1.169   9.263  25.377
 9322W        W10187   2.163   8.244  23.091
 9323W        W10188   2.368   9.654  24.213
 9324W        W10189   0.522  10.259  24.648
 9325W        W10190   1.113  10.242  25.371
 9326W        W10191   0.964   8.039  22.385
 9327W        W10192   2.481   8.181  22.710
 9328W        W10193   2.439  10.289  24.947
 9329W        W10194   1.124   8.881  23.546
 9330W        W10195   0.779  10.579  24.411
 9331W        W10196   3.524  10.696  22.012
 9332W        W10197   0.387   9.368  25.008
 9333W        W10198   2.382   9.630  23.696
 9334W        W10199   0.818   9.279  22.938
 9335W        W10200   1.189  10.286  24.333
 9336W        W10201   1.567   7.705  23.374
 9337W        W10202   0.178   9.689  22.304
 9338W        W10203   1.697   8.640  22.174
 9339W        W10204   0.343   9.189  23.193
 9340W        W10205   1.633   7.831  24.657
 9341W        W10206   3.305   7.540  22.084
 9342W        W10207   3.398   9.286  25.183
 9343W        W10208   2.052  10.543  25.335
 9344W        W10209   3.610   9.637  24.857
 9345W        W10210   3.018  10.435  25.468
 9346W        W10211   0.757  10.891  23.946
 9347W        W10212   3.616   9.513  22.820
 9348W        W10213   2.146   8.780  23.333
 9349W        W10214   1.913   7.392  23.223
 9350W        W10215   0.972  10.376  23.060
 9351W        W10216   1.471   8.117  24.285
 9352W        W10217   1.171   7.486  23.754
 9353W        W10218   0.234  10.308  22.302
 9354W        W10219   2.050   9.672  23.020
 9355W        W10220   0.925  10.467  24.899
 9356W        W10221   0.402   9.290  22.595
 9357W        W10222   0.287   7.833  23.594
 9358W        W10223   1.835   9.798  23.651
 9359W        W10224   0.087   7.652  22.671
 9360W        W10225   2.751   8.858  24.598
 9361W        W10226   2.628   8.244  22.170
 9362W        W10227   3.145   9.916  23.818
 9363W        W10228   1.806  10.400  23.649
 9364W        W10229   1.218  10.504  22.560
 9365W        W10230   2.500   7.407  21.990
 9366W        W10231   0.300  10.667  23.731
 9367W        W10232   2.497   8.425  25.366
 9368W        W10233   0.480   7.955  25.365
 9369W        W10234   0.211   8.555  22.698
 9370W        W10235   0.902   8.544  22.423
 9371W        W10236   2.665   8.871  25.240
 9372W        W10237   1.008   9.152  23.949
 9373W        W10238   2.482   7.438  23.069
 9374W        W10239   1.613  10.869  23.572
 9375W        W10240   2.827  10.331  24.509
 9376W        W10241   2.411  10.480  23.620
 9377W        W10242   2.430   9.460  23.214
 9378W        W10243   1.892   7.685  22.285
 9379W        W10244   3.573   7.313  23.007
 9380W        W10245   1.261   8.948  22.170
 9381W        W10246   3.427   8.285  23.160
 9382W        W10247   2.119   9.455  22.037
 9383W        W10248   3.055   9.655  24.785
 9384W        W10249   2.709  10.356  22.252
 9385W        W10250   1.324   8.031  25.158
 9386W        W10251   1.144   8.615  24.399
 9387W        W10252   3.236  10.110  24.676
 9388W        W10253   2.336   8.060  25.053
 9389W        W10254   0.180   8.531  24.830
 9390W        W10255   1.940   9.008  24.556
 9391W        W10256   0.297   9.766  23.213
 9392W        W10257   0.444   9.063  24.103
 9393W        W10258   2.761   9.349  24.453
 9394W        W10259   2.533  10.729  25.264
 9395W        W10260   2.429   8.468  24.817
 9396W        W10261   2.706  10.522  23.222
 9397W        W10262   1.708  10.242  24.545
 9398W        W10263   1.193  10.597  23.814
 9399W        W10264   2.998   9.768  24.233
 9400W        W10265   2.048   9.840  25.370
 9401W        W10266   0.653   9.793  23.709
 9402W        W10267   2.999   9.552  23.354
 9403W        W10268   2.640  10.618  24.105
 9404W        W10269   0.618  10.347  23.975
 9405W        W10270   1.639   8.399  25.185
 9406W        W10271   2.090  10.565  22.696
 9407W        W10272   1.398   9.820  25.334
 9408W        W10273   1.524  10.058  22.711
 9409W        W10274   0.745   8.798  21.970
 9410W        W10275   0.084  10.884  28.869
 9411W        W10276   0.460   9.777  28.392
 9412W        W10277   3.165   9.507  26.162
 9413W        W10278   3.295  10.592  28.189
 9414W        W10279   1.213  10.583  25.715
 9415W        W10280   1.296   8.735  26.698
 9416W        W10281   0.811   8.583  26.862
 9417W        W10282   1.802   9.398  26.296
 9418W        W10283   1.477  10.490  28.651
 9419W        W10284   0.126   8.051  28.614
 9420W        W10285   0.888   7.331  28.416
 9421W        W10286   2.582   7.719  27.303
 9422W        W10287   2.231   8.590  25.873
 9423W        W10288   2.801   8.024  28.964
 9424W        W10289   0.167   7.816  28.089
 9425W        W10290   0.266  10.435  29.110
 9426W        W10291   1.788   9.825  25.842
 9427W        W10292   0.220   8.608  27.535
 9428W        W10293   1.113   8.499  28.772
 9429W        W10294   3.572   8.358  27.271
 9430W        W10295   3.336   9.401  28.130
 9431W        W10296   1.644   8.734  27.157
 9432W        W10297   2.190  10.073  27.526
 9433W        W10298   0.690   9.507  27.758
 9434W        W10299   0.049   9.035  27.329
 9435W        W10300   1.085   9.007  28.521
 9436W        W10301   3.356   8.790  28.775
 9437W        W10302   0.972  10.234  27.220
 9438W        W10303   2.093   9.923  28.354
 9439W        W10304   1.313   8.563  27.579
 9440W        W10305   1.605   9.347  27.222
 9441W        W10306   2.602  10.120  29.070
 9442W        W10307   1.681   9.440  29.080
 9443W        W10308   1.662   9.156  28.558
 9444W        W10309   0.071   8.547  29.080
 9445W        W10310   2.903  10.082  28.679
 9446W        W10311   0.484   7.664  26.677
 9447W        W10312   1.011   9.922  27.676
 9448W        W10313   3.474   9.705  26.966
 9449W        W10314   2.887   8.105  27.533
 9450W        W10315   3.172   8.058  25.628
 9451W        W10316   3.637   8.859  27.934
 9452W        W10317   1.604  10.566  27.687
 9453W        W10318   3.378  10.032  26.125
 9454W        W10319   0.507  10.818  25.879
 9455W        W10320   0.900  10.864  26.555
 9456W        W10321   0.697   7.618  27.981
 9457W        W10322   3.320   8.636  28.256
 9458W        W10323   2.725   9.058  26.715
 9459W        W10324   2.691   8.746  25.742
 9460W        W10325   1.899   9.890  27.882
 9461W        W10326   1.705   8.220  27.081
 9462W        W10327   2.305  10.307  28.075
 9463W        W10328   3.176   9.098  26.497
 9464W        W10329   2.078   7.756  26.513
 9465W        W10330   0.735  10.450  26.196
 9466W        W10331   0.106   7.949  26.795
 9467W        W10332   2.892   8.556  27.269
 9468W        W10333   0.350  10.173  27.184
 9469W        W10334   1.691  10.523  26.054
 9470W        W10335   3.083   8.549  25.518
 9471W        W10336   0.106  10.307  27.682
 9472W        W10337   0.897   9.879  28.162
 9473W        W10338   1.270   9.239  26.781
 9474W        W10339   1.292   7.644  27.874
 9475W        W10340   3.521   7.406  27.171
 9476W        W10341   0.740   9.278  25.639
 9477W        W10342   0.395   8.311  25.818
 9478W        W10343   0.457  10.267  26.612
 9479W        W10344   1.588   9.750  26.860
 9480W        W10345   2.920  10.609  28.574
 9481W        W10346   1.846   8.251  26.258
 9482W        W10347   3.229  10.649  27.030
 9483W        W10348   2.906   8.502  28.628
 9484W        W10349   3.619  10.158  26.762
 9485W        W10350   2.246   9.450  28.246
 9486W        W10351   0.012   9.001  26.452
 9487W        W10352   1.123   9.416  28.025
 9488W        W10353   2.327   8.680  26.403
 9489W        W10354   2.204   9.170  26.507
 9490W        W10355   0.547   8.590  27.981
 9491W        W10356   0.532   8.466  28.903
 9492W        W10357   0.422   7.383  27.062
 9493W        W10358   2.190   7.730  27.623
 9494W        W10359   1.838   7.915  28.786
 9495W        W10360   2.193   8.064  25.964
 9496W        W10361   3.376  10.457  28.718
 9497W        W10362   2.343   7.538  28.757
 9498W        W10363   3.362   9.839  28.879
 9499W        W10364   2.792   8.006  28.475
 9500W        W10365   2.592   7.944  26.745
 9501W        W10366   2.985   9.078  29.149
 9502W        W10367   0.725  10.654  27.135
 9503W        W10368   1.383   8.371  26.121
 9504W        W10369   0.952   7.655  28.785
 9505W        W10370   3.004   8.139  26.466
 9506W        W10371   3.371   8.621  26.411
 9507W        W10372   1.114  10.838  28.882
 9508W        W10373   1.040   7.374  26.117
 9509W        W10374   3.361   7.908  27.152
 9510W        W10375   3.511  10.157  25.597
 9511W        W10376   0.418   9.360  27.299
 9512W        W10377   2.335   7.947  25.529
 9513W        W10378   3.469  10.279  27.249
 9514W        W10379   3.508   7.473  27.999
 9515W        W10380   1.953   8.685  28.553
 9516W        W10381   2.046  10.024  26.256
 9517W        W10382   2.446   9.318  28.996
 9518W        W10383   2.120   7.295  27.305
 9519W        W10384   0.732   8.198  27.368
 9520W        W10385   0.286   9.398  28.142
 9521W        W10386   2.145  10.591  26.848
 9522W        W10387   3.339   8.188  27.720
 9523W        W10388   1.976  10.535  28.487
 9524W        W10389   3.319   9.594  25.692
 9525W        W10390   1.754   9.077  26.753
 9526W        W10391   3.606   7.588  28.494
 9527W        W10392   1.755   9.423  28.088
 9528W        W10393   1.972   8.309  27.533
 9529W        W10394   2.824   8.607  26.371
 9530W        W10395   3.111   8.340  26.013
 9531W        W10396   2.920  10.380  26.402
 9532W        W10397   2.754   9.983  27.198
 9533W        W10398   2.650   9.062  26.176
 9534W        W10399   2.083   9.272  27.162
 9535W        W10400   2.964   9.060  27.229
 9536W        W10401   0.339   8.075  27.653
 9537W        W10402   3.117   9.127  28.480
 9538W        W10403   3.468  10.745  27.626
 9539W        W10404   1.398  10.189  27.028
 9540W        W10405   2.405  10.722  28.352
 9541W        W10406   2.399   8.052  28.116
 9542W        W10407   1.606  10.760  28.177
 9543W        W10408   3.303   7.714  26.643
 9544W        W10409   3.094   9.033  27.944
 9545W        W10410   0.077   8.354  27.982
 9546W        W10411   2.937   8.149  27.000
 9547W        W10412   3.348   8.300  28.777
 9548W        W10413   2.233   9.999  26.995
 9549W        W10414   1.489  10.590  26.608
 9550W        W10415   0.604   7.770  25.866
 9551W        W10416   1.708   7.424  27.676
 9552W        W10417   0.736  10.544  25.524
 9553W        W10418   1.110   9.010  26.275
 9554W        W10419   1.764   9.639  28.588
 9555W        W10420   1.594   7.997  26.578
 9556W        W10421   2.950   7.594  27.006
 9557W        W10422   2.670  10.876  27.334
 9558W        W10423   2.082  10.524  27.674
 9559W        W10424   1.478   9.561  27.635
 9560W        W10425   3.248  10.284  27.761
 9561W        W10426   0.942   7.787  26.530
 9562W        W10427   1.464  10.084  27.490
 9563W        W10428   0.947   8.015  25.555
 9564W        W10429   1.748   8.624  27.949
 9565W        W10430   2.596   7.490  27.819
 9566W        W10431   0.016   9.333  27.704
 9567W        W10432   1.720   9.151  25.862
 9568W        W10433   0.988   7.466  25.632
 9569W        W10434   1.726   8.547  26.683
 9570W        W10435   2.696   7.523  28.382
 9571W        W10436   1.284   9.535  28.491
 9572W        W10437   2.088   9.317  28.708
 9573W        W10438   2.705   9.347  28.601
 9574W        W10439   1.989   7.487  29.106
 9575W        W10440   1.211   8.103  27.499
 9576W        W10441   0.637   8.059  26.897
 9577W        W10442   0.423  10.771  26.573
 9578W        W10443   1.755  10.101  28.698
 9579W        W10444   0.790   9.586  26.057
 9580W        W10445   2.470   8.971  27.278
 9581W        W10446   2.750   8.770  27.677
 9582W        W10447   1.955   9.444  27.611
 9583W        W10448   2.425   9.818  25.743
 9584W        W10449   2.097   7.839  27.071
 9585W        W10450   3.576   8.117  26.339
 9586W        W10451   0.070  10.706  28.370
 9587W        W10452   0.487   9.932  27.902
 9588W        W10453   0.054  10.778  26.134
 9589W        W10454   1.953   8.048  27.940
 9590W        W10455   1.316  10.071  25.789
 9591W        W10456   3.221  10.453  25.975
 9592W        W10457   2.196   9.106  25.989
 9593W        W10458   1.039   8.297  26.506
 9594W        W10459   1.871   8.207  25.558
 9595W        W10460   2.455   9.772  28.736
 9596W        W10461   2.808   7.678  26.353
 9597W        W10462   0.138   7.526  25.801
 9598W        W10463   1.424   9.845  28.091
 9599W        W10464   1.223   9.761  27.183
 9600W        W10465   0.965   9.713  25.581
 9601W        W10466   0.206   9.954  26.349
 9602W        W10467   0.710   9.024  28.791
 9603W        W10468   1.414   7.584  28.977
 9604W        W10469   2.123   7.726  28.333
 9605W        W10470   1.318   7.494  26.614
 9606W        W10471   2.377   7.571  26.119
 9607W        W10472   0.322   7.503  27.696
 9608W        W10473   0.370   8.466  27.066
 9609W        W10474   3.059   7.574  27.472
 9610W        W10475   0.481   8.072  26.286
 9611W        W10476   3.052   7.760  27.902
 9612W        W10477   3.448   8.963  25.587
 9613W        W10478   0.740   7.721  27.406
 9614W        W10479   1.854   8.293  28.346
 9615W        W10480   0.002   7.983  25.824
 9616W        W10481   0.788   9.372  28.385
 9617W        W10482   2.146   8.770  27.564
 9618W        W10483   2.013  10.849  25.860
 9619W        W10484   0.159   9.356  25.557
 9620W        W10485   0.894   9.767  28.683
 9621W        W10486   0.415   8.934  28.314
 9622W        W10487   1.406   9.039  28.108
 9623W        W10488   3.174   7.398  28.370
 9624W        W10489   3.572   9.008  28.361
 9625W        W10490   3.560   9.208  26.047
 9626W        W10491   2.423   9.540  26.146
 9627W        W10492   2.897  10.840  25.841
 9628W        W10493   2.074   8.830  28.983
 9629W        W10494   0.404   9.797  29.023
 9630W        W10495   3.610   7.719  28.975
 9631W        W10496   3.328   8.647  27.596
 9632W        W10497   1.636  10.777  29.073
 9633W        W10498   1.491   7.406  25.800
 9634W        W10499   3.030  10.005  25.743
 9635W        W10500   0.799   8.098  28.629
 9636W        W10501   1.233  10.092  28.491
 9637W        W10502   3.359   8.083  28.289
 9638W        W10503   2.570  10.742  26.257
 9639W        W10504   2.809   9.361  27.624
 9640W        W10505   1.059   7.777  28.291
 9641W        W10506   1.528   8.846  29.048
 9642W        W10507   1.031  10.025  26.242
 9643W        W10508   2.786   9.523  26.506
 9644W        W10509   0.554   8.149  28.230
 9645W        W10510   1.883  10.211  26.694
 9646W        W10511   3.633   8.771  26.875
 9647W        W10512   1.855   7.404  28.594
 9648W        W10513   2.635  10.109  27.673
 9649W        W10514   2.938  10.453  27.381
 9650W        W10515   2.157  10.255  25.809
 9651W        W10516   0.167  10.147  28.651
 9652W        W10517   0.910   8.139  27.889
 9653W        W10518   0.880   7.487  26.999
 9654W        W10519   2.501   8.329  27.691
 9655W        W10520   1.299   9.500  25.891
 9656W        W10521   3.297   9.442  27.390
 9657W        W10522   0.624  10.200  28.813
 9658W        W10523   3.011  10.882  26.610
 9659W        W10524   1.110   7.902  27.055
 9660W        W10525   0.879   9.395  27.145
 9661W        W10526   1.192  10.806  27.895
 9662W        W10527   3.259  10.902  28.927
 9663W        W10528   2.418   9.090  27.860
 9664W        W10529   0.267   8.888  25.775
 9665W        W10530   3.401  10.546  26.472
 9666W        W10531   3.238   7.870  26.091
 9667W        W10532   1.377   7.389  28.494
 9668W        W10533   3.083  10.191  26.952
 9669W        W10534   3.112   8.747  26.857
 9670W        W10535   1.229   8.420  27.073
 9671W        W10536   1.474   8.682  28.397
 9672W        W10537   2.585   9.835  28.260
 9673W        W10538   1.235   8.289  28.372
 9674W        W10539   1.214  10.755  26.988
 9675W        W10540   0.531  10.714  28.622
 9676W        W10541   0.643  10.075  25.752
 9677W        W10542   3.160   9.833  26.562
 9678W        W10543   0.764   8.625  28.448
 9679W        W10544   3.537   8.555  25.929
 9680W        W10545   1.282   9.612  26.400
 9681W        W10546   2.381   8.994  28.481
 9682W        W10547   2.272   8.622  28.025
 9683W        W10548   0.832   8.994  28.054
 9684W        W10549   3.042  10.882  27.883
 9685W        W10550   2.833   7.516  28.877
 9686W        W10551   0.497   7.666  28.464
 9687W        W10552   0.836   8.689  27.517
 9688W        W10553   1.205   8.503  25.639
 9689W        W10554   0.008  10.262  28.184
 9690W        W10555   1.593   8.971  27.627
 9691W        W10556   1.416   7.996  25.732
 9692W        W10557   0.551   8.812  26.513
 9693W        W10558   0.322  10.664  27.950
 9694W        W10559   3.117   8.890  26.058
 9695W        W10560   3.212   7.806  28.744
 9696W        W10561   2.648  10.015  26.707
 9697W        W10562   0.246   8.939  28.884
 9698W        W10563   3.212   7.403  26.180
 9699W        W10564   2.732   9.878  26.191
 9700W        W10565   1.634   8.936  26.276
 9701W        W10566   2.821   7.740  25.799
 9702W        W10567   2.886   8.347  27.985
 9703W        W10568   0.595   8.940  27.192
 9704W        W10569   0.889   9.879  26.841
 9705W        W10570   2.652   8.499  26.806
 9706W        W10571   1.675   7.878  27.502
 9707W        W10572   3.637   9.789  28.013
 9708W        W10573   3.555   7.776  27.574
 9709W        W10574   0.094  10.606  26.950
 9710W        W10575   0.603   9.793  26.486
 9711W        W10576   0.518   7.410  29.039
 9712W        W10577   1.637  10.263  29.141
 9713W        W10578   3.392   9.231  26.931
 9714W        W10579   2.746   9.408  25.811
 9715W        W10580   2.041  10.929  28.023
 9716W        W10581   2.898   9.651  29.060
 9717W        W10582   1.713   7.361  26.340
 9718W        W10583   2.426   8.230  27.199
 9719W        W10584   0.112   9.817  27.531
 9720W        W10585   1.365   7.779  26.172
 9721W        W10586   1.169   9.263  29.021
 9722W        W10587   2.163   8.244  26.735
 9723W        W10588   2.368   9.654  27.857
 9724W        W10589   0.522  10.259  28.292
 9725W        W10590   1.113  10.242  29.015
 9726W        W10591   0.964   8.039  26.029
 9727W        W10592   2.481   8.181  26.354
 9728W        W10593   2.439  10.289  28.591
 9729W        W10594   1.124   8.881  27.190
 9730W        W10595   0.779  10.579  28.055
 9731W        W10596   3.524  10.696  25.656
 9732W        W10597   0.387   9.368  28.652
 9733W        W10598   2.382   9.630  27.340
 9734W        W10599   0.818   9.279  26.582
 9735W        W10600   1.189  10.286  27.977
 9736W        W10601   1.567   7.705  27.018
 9737W        W10602   0.178   9.689  25.948
 9738W        W10603   1.697   8.640  25.818
 9739W        W10604   0.343   9.189  26.837
 9740W        W10605   1.633   7.831  28.301
 9741W        W10606   3.305   7.540  25.728
 9742W        W10607   3.398   9.286  28.827
 9743W        W10608   2.052  10.543  28.979
 9744W        W10609   3.610   9.637  28.501
 9745W        W10610   3.018  10.435  29.112
 9746W        W10611   0.757  10.891  27.590
 9747W        W10612   3.616   9.513  26.464
 9748W        W10613   2.146   8.780  26.977
 9749W        W10614   1.913   7.392  26.867
 9750W        W10615   0.972  10.376  26.704
 9751W        W10616   1.471   8.117  27.929
 9752W        W10617   1.171   7.486  27.398
 9753W        W10618   0.234  10.308  25.946
 9754W        W10619   2.050   9.672  26.664
 9755W        W10620   0.925  10.467  28.543
 9756W        W10621   0.402   9.290  26.239
 9757W        W10622   0.287   7.833  27.238
 9758W        W10623   1.835   9.798  27.295
 9759W        W10624   0.087   7.652  26.315
 9760W        W10625   2.751   8.858  28.242
 9761W        W10626   2.628   8.244  25.814
 9762W        W10627   3.145   9.916  27.462
 9763W        W10628   1.806  10.400  27.293
 9764W        W10629   1.218  10.504  26.204
 9765W        W10630   2.500   7.407  25.634
 9766W        W10631   0.300  10.667  27.375
 9767W        W10632   2.497   8.425  29.010
 9768W        W10633   0.480   7.955  29.009
 9769W        W10634   0.211   8.555  26.342
 9770W        W10635   0.902   8.544  26.067
 9771W        W10636   2.665   8.871  28.884
 9772W        W10637   1.008   9.152  27.593
 9773W        W10638   2.482   7.438  26.713
 9774W        W10639   1.613  10.869  27.216
 9775W        W10640   2.827  10.331  28.153
 9776W        W10641   2.411  10.480  27.264
 9777W        W10642   2.430   9.460  26.858
 9778W        W10643   1.892   7.685  25.929
 9779W        W10644   3.573   7.313  26.651
 9780W        W10645   1.261   8.948  25.814
 9781W        W10646   3.427   8.285  26.804
 9782W        W10647   2.119   9.455  25.681
 9783W        W10648   3.055   9.655  28.429
 9784W        W10649   2.709  10.356  25.896
 9785W        W10650   1.324   8.031  28.802
 9786W        W10651   1.144   8.615  28.043
 9787W        W10652   3.236  10.110  28.320
 9788W        W10653   2.336   8.060  28.697
 9789W        W10654   0.180   8.531  28.474
 9790W        W10655   1.940   9.008  28.200
 9791W        W10656   0.297   9.766  26.857
 9792W        W10657   0.444   9.063  27.747
 9793W        W10658   2.761   9.349  28.097
 9794W        W10659   2.533  10.729  28.908
 9795W        W10660   2.429   8.468  28.461
 9796W        W10661   2.706  10.522  26.866
 9797W        W10662   1.708  10.242  28.189
 9798W        W10663   1.193  10.597  27.458
 9799W        W10664   2.998   9.768  27.877
 9800W        W10665   2.048   9.840  29.014
 9801W        W10666   0.653   9.793  27.353
 9802W        W10667   2.999   9.552  26.998
 9803W        W10668   2.640  10.618  27.749
 9804W        W10669   0.618  10.347  27.619
 9805W        W10670   1.639   8.399  28.829
 9806W        W10671   2.090  10.565  26.340
 9807W        W10672   1.398   9.820  28.978
 9808W        W10673   1.524  10.058  26.355
 9809W        W10674   0.745   8.798  25.614
 9810W        W10675   0.084  14.528   3.359
 9811W        W10676   0.460  13.421   2.882
 9812W        W10677   3.165  13.151   0.652
 9813W        W10678   3.295  14.236   2.679
 9814W        W10679   1.213  14.227   0.205
 9815W        W10680   1.296  12.379   1.188
 9816W        W10681   0.811  12.227   1.352
 9817W        W10682   1.802  13.042   0.786
 9818W        W10683   1.477  14.134   3.141
 9819W        W10684   0.126  11.695   3.104
 9820W        W10685   0.888  10.975   2.906
 9821W        W10686   2.582  11.363   1.793
 9822W        W10687   2.231  12.234   0.363
 9823W        W10688   2.801  11.668   3.454
 9824W        W10689   0.167  11.460   2.579
 9825W        W10690   0.266  14.079   3.600
 9826W        W10691   1.788  13.469   0.332
 9827W        W10692   0.220  12.252   2.025
 9828W        W10693   1.113  12.143   3.262
 9829W        W10694   3.572  12.002   1.761
 9830W        W10695   3.336  13.045   2.620
 9831W        W10696   1.644  12.378   1.647
 9832W        W10697   2.190  13.717   2.016
 9833W        W10698   0.690  13.151   2.248
 9834W        W10699   0.049  12.679   1.819
 9835W        W10700   1.085  12.651   3.011
 9836W        W10701   3.356  12.434   3.265
 9837W        W10702   0.972  13.878   1.710
 9838W        W10703   2.093  13.567   2.844
 9839W        W10704   1.313  12.207   2.069
 9840W        W10705   1.605  12.991   1.712
 9841W        W10706   2.602  13.764   3.560
 9842W        W10707   1.681  13.084   3.570
 9843W        W10708   1.662  12.800   3.048
 9844W        W10709   0.071  12.191   3.570
 9845W        W10710   2.903  13.726   3.169
 9846W        W10711   0.484  11.308   1.167
 9847W        W10712   1.011  13.566   2.166
 9848W        W10713   3.474  13.349   1.456
 9849W        W10714   2.887  11.749   2.023
 9850W        W10715   3.172  11.702   0.118
 9851W        W10716   3.637  12.503   2.424
 9852W        W10717   1.604  14.210   2.177
 9853W        W10718   3.378  13.676   0.615
 9854W        W10719   0.507  14.462   0.369
 9855W        W10720   0.900  14.508   1.045
 9856W        W10721   0.697  11.262   2.471
 9857W        W10722   3.320  12.280   2.746
 9858W        W10723   2.725  12.702   1.205
 9859W        W10724   2.691  12.390   0.232
 9860W        W10725   1.899  13.534   2.372
 9861W        W10726   1.705  11.864   1.571
 9862W        W10727   2.305  13.951   2.565
 9863W        W10728   3.176  12.742   0.987
 9864W        W10729   2.078  11.400   1.003
 9865W        W10730   0.735  14.094   0.686
 9866W        W10731   0.106  11.593   1.285
 9867W        W10732   2.892  12.200   1.759
 9868W        W10733   0.350  13.817   1.674
 9869W        W10734   1.691  14.167   0.544
 9870W        W10735   3.083  12.193   0.008
 9871W        W10736   0.106  13.951   2.172
 9872W        W10737   0.897  13.523   2.652
 9873W        W10738   1.270  12.883   1.271
 9874W        W10739   1.292  11.288   2.364
 9875W        W10740   3.521  11.050   1.661
 9876W        W10741   0.740  12.922   0.129
 9877W        W10742   0.395  11.955   0.308
 9878W        W10743   0.457  13.911   1.102
 9879W        W10744   1.588  13.394   1.350
 9880W        W10745   2.920  14.253   3.064
 9881W        W10746   1.846  11.895   0.748
 9882W        W10747   3.229  14.293   1.520
 9883W        W10748   2.906  12.146   3.118
 9884W        W10749   3.619  13.802   1.252
 9885W        W10750   2.246  13.094   2.736
 9886W        W10751   0.012  12.645   0.942
 9887W        W10752   1.123  13.060   2.515
 9888W        W10753   2.327  12.324   0.893
 9889W        W10754   2.204  12.814   0.997
 9890W        W10755   0.547  12.234   2.471
 9891W        W10756   0.532  12.110   3.393
 9892W        W10757   0.422  11.027   1.552
 9893W        W10758   2.190  11.374   2.113
 9894W        W10759   1.838  11.559   3.276
 9895W        W10760   2.193  11.708   0.454
 9896W        W10761   3.376  14.101   3.208
 9897W        W10762   2.343  11.182   3.247
 9898W        W10763   3.362  13.483   3.369
 9899W        W10764   2.792  11.650   2.965
 9900W        W10765   2.592  11.588   1.235
 9901W        W10766   2.985  12.722   3.639
 9902W        W10767   0.725  14.298   1.625
 9903W        W10768   1.383  12.015   0.611
 9904W        W10769   0.952  11.299   3.275
 9905W        W10770   3.004  11.783   0.956
 9906W        W10771   3.371  12.265   0.901
 9907W        W10772   1.114  14.482   3.372
 9908W        W10773   1.040  11.018   0.607
 9909W        W10774   3.361  11.552   1.642
 9910W        W10775   3.511  13.801   0.087
 9911W        W10776   0.418  13.004   1.789
 9912W        W10777   2.335  11.591   0.019
 9913W        W10778   3.469  13.923   1.739
 9914W        W10779   3.508  11.117   2.489
 9915W        W10780   1.953  12.329   3.043
 9916W        W10781   2.046  13.668   0.746
 9917W        W10782   2.446  12.962   3.486
 9918W        W10783   2.120  10.939   1.795
 9919W        W10784   0.732  11.842   1.858
 9920W        W10785   0.286  13.042   2.632
 9921W        W10786   2.145  14.235   1.338
 9922W        W10787   3.339  11.832   2.210
 9923W        W10788   1.976  14.179   2.977
 9924W        W10789   3.319  13.238   0.182
 9925W        W10790   1.754  12.721   1.243
 9926W        W10791   3.606  11.232   2.984
 9927W        W10792   1.755  13.067   2.578
 9928W        W10793   1.972  11.953   2.023
 9929W        W10794   2.824  12.251   0.861
 9930W        W10795   3.111  11.984   0.503
 9931W        W10796   2.920  14.024   0.892
 9932W        W10797   2.754  13.627   1.688
 9933W        W10798   2.650  12.706   0.666
 9934W        W10799   2.083  12.916   1.652
 9935W        W10800   2.964  12.704   1.719
 9936W        W10801   0.339  11.719   2.143
 9937W        W10802   3.117  12.771   2.970
 9938W        W10803   3.468  14.389   2.116
 9939W        W10804   1.398  13.833   1.518
 9940W        W10805   2.405  14.366   2.842
 9941W        W10806   2.399  11.696   2.606
 9942W        W10807   1.606  14.404   2.667
 9943W        W10808   3.303  11.358   1.133
 9944W        W10809   3.094  12.677   2.434
 9945W        W10810   0.077  11.998   2.472
 9946W        W10811   2.937  11.793   1.490
 9947W        W10812   3.348  11.944   3.267
 9948W        W10813   2.233  13.643   1.485
 9949W        W10814   1.489  14.234   1.098
 9950W        W10815   0.604  11.414   0.356
 9951W        W10816   1.708  11.068   2.166
 9952W        W10817   0.736  14.188   0.014
 9953W        W10818   1.110  12.654   0.765
 9954W        W10819   1.764  13.283   3.078
 9955W        W10820   1.594  11.641   1.068
 9956W        W10821   2.950  11.238   1.496
 9957W        W10822   2.670  14.520   1.824
 9958W        W10823   2.082  14.168   2.164
 9959W        W10824   1.478  13.205   2.125
 9960W        W10825   3.248  13.928   2.251
 9961W        W10826   0.942  11.431   1.020
 9962W        W10827   1.464  13.728   1.980
 9963W        W10828   0.947  11.659   0.045
 9964W        W10829   1.748  12.268   2.439
 9965W        W10830   2.596  11.134   2.309
 9966W        W10831   0.016  12.977   2.194
 9967W        W10832   1.720  12.795   0.352
 9968W        W10833   0.988  11.110   0.122
 9969W        W10834   1.726  12.191   1.173
 9970W        W10835   2.696  11.167   2.872
 9971W        W10836   1.284  13.179   2.981
 9972W        W10837   2.088  12.961   3.198
 9973W        W10838   2.705  12.991   3.091
 9974W        W10839   1.989  11.131   3.596
 9975W        W10840   1.211  11.747   1.989
 9976W        W10841   0.637  11.703   1.387
 9977W        W10842   0.423  14.415   1.063
 9978W        W10843   1.755  13.745   3.188
 9979W        W10844   0.790  13.230   0.547
 9980W        W10845   2.470  12.615   1.768
 9981W        W10846   2.750  12.414   2.167
 9982W        W10847   1.955  13.088   2.101
 9983W        W10848   2.425  13.462   0.233
 9984W        W10849   2.097  11.483   1.561
 9985W        W10850   3.576  11.761   0.829
 9986W        W10851   0.070  14.350   2.860
 9987W        W10852   0.487  13.576   2.392
 9988W        W10853   0.054  14.422   0.624
 9989W        W10854   1.953  11.692   2.430
 9990W        W10855   1.316  13.715   0.279
 9991W        W10856   3.221  14.097   0.465
 9992W        W10857   2.196  12.750   0.479
 9993W        W10858   1.039  11.941   0.996
 9994W        W10859   1.871  11.851   0.048
 9995W        W10860   2.455  13.416   3.226
 9996W        W10861   2.808  11.322   0.843
 9997W        W10862   0.138  11.170   0.291
 9998W        W10863   1.424  13.489   2.581
 9999W        W10864   1.223  13.405   1.673
10000W        W10865   0.965  13.357   0.071
10001W        W10866   0.206  13.598   0.839
10002W        W10867   0.710  12.668   3.281
10003W        W10868   1.414  11.228   3.467
10004W        W10869   2.123  11.370   2.823
10005W        W10870   1.318  11.138   1.104
10006W        W10871   2.377  11.215   0.609
10007W        W10872   0.322  11.147   2.186
10008W        W10873   0.370  12.110   1.556
10009W        W10874   3.059  11.218   1.962
10010W        W10875   0.481  11.716   0.776
10011W        W10876   3.052  11.404   2.392
10012W        W10877   3.448  12.607   0.077
10013W        W10878   0.740  11.365   1.896
10014W        W10879   1.854  11.937   2.836
10015W        W10880   0.002  11.627   0.314
10016W        W10881   0.788  13.016   2.875
10017W        W10882   2.146  12.414   2.054
10018W        W10883   2.013  14.493   0.350
10019W        W10884   0.159  13.000   0.047
10020W        W10885   0.894  13.411   3.173
10021W        W10886   0.415  12.578   2.804
10022W        W10887   1.406  12.683   2.598
10023W        W10888   3.174  11.042   2.860
10024W        W10889   3.572  12.652   2.851
10025W        W10890   3.560  12.852   0.537
10026W        W10891   2.423  13.184   0.636
10027W        W10892   2.897  14.484   0.331
10028W        W10893   2.074  12.474   3.473
10029W        W10894   0.404  13.441   3.513
10030W        W10895   3.610  11.363   3.465
10031W        W10896   3.328  12.291   2.086
10032W        W10897   1.636  14.421   3.563
10033W        W10898   1.491  11.050   0.290
10034W        W10899   3.030  13.649   0.233
10035W        W10900   0.799  11.742   3.119
10036W        W10901   1.233  13.736   2.981
10037W        W10902   3.359  11.727   2.779
10038W        W10903   2.570  14.386   0.747
10039W        W10904   2.809  13.005   2.114
10040W        W10905   1.059  11.421   2.781
10041W        W10906   1.528  12.490   3.538
10042W        W10907   1.031  13.669   0.732
10043W        W10908   2.786  13.167   0.996
10044W        W10909   0.554  11.793   2.720
10045W        W10910   1.883  13.855   1.184
10046W        W10911   3.633  12.415   1.365
10047W        W10912   1.855  11.048   3.084
10048W        W10913   2.635  13.753   2.163
10049W        W10914   2.938  14.097   1.871
10050W        W10915   2.157  13.899   0.299
10051W        W10916   0.167  13.791   3.141
10052W        W10917   0.910  11.783   2.379
10053W        W10918   0.880  11.131   1.489
10054W        W10919   2.501  11.973   2.181
10055W        W10920   1.299  13.144   0.381
10056W        W10921   3.297  13.086   1.880
10057W        W10922   0.624  13.844   3.303
10058W        W10923   3.011  14.526   1.100
10059W        W10924   1.110  11.546   1.545
10060W        W10925   0.879  13.039   1.635
10061W        W10926   1.192  14.450   2.385
10062W        W10927   3.259  14.546   3.417
10063W        W10928   2.418  12.734   2.350
10064W        W10929   0.267  12.532   0.265
10065W        W10930   3.401  14.190   0.962
10066W        W10931   3.238  11.514   0.581
10067W        W10932   1.377  11.033   2.984
10068W        W10933   3.083  13.835   1.442
10069W        W10934   3.112  12.391   1.347
10070W        W10935   1.229  12.064   1.563
10071W        W10936   1.474  12.326   2.887
10072W        W10937   2.585  13.479   2.750
10073W        W10938   1.235  11.933   2.862
10074W        W10939   1.214  14.399   1.478
10075W        W10940   0.531  14.358   3.112
10076W        W10941   0.643  13.719   0.242
10077W        W10942   3.160  13.477   1.052
10078W        W10943   0.764  12.269   2.938
10079W        W10944   3.537  12.199   0.419
10080W        W10945   1.282  13.256   0.890
10081W        W10946   2.381  12.638   2.971
10082W        W10947   2.272  12.266   2.515
10083W        W10948   0.832  12.638   2.544
10084W        W10949   3.042  14.526   2.373
10085W        W10950   2.833  11.160   3.367
10086W        W10951   0.497  11.310   2.954
10087W        W10952   0.836  12.333   2.007
10088W        W10953   1.205  12.147   0.129
10089W        W10954   0.008  13.906   2.674
10090W        W10955   1.593  12.615   2.117
10091W        W10956   1.416  11.640   0.222
10092W        W10957   0.551  12.456   1.003
10093W        W10958   0.322  14.308   2.440
10094W        W10959   3.117  12.534   0.548
10095W        W10960   3.212  11.450   3.234
10096W        W10961   2.648  13.659   1.197
10097W        W10962   0.246  12.583   3.374
10098W        W10963   3.212  11.047   0.670
10099W        W10964   2.732  13.522   0.681
10100W        W10965   1.634  12.580   0.766
10101W        W10966   2.821  11.384   0.289
10102W        W10967   2.886  11.991   2.475
10103W        W10968   0.595  12.584   1.682
10104W        W10969   0.889  13.523   1.331
10105W        W10970   2.652  12.143   1.296
10106W        W10971   1.675  11.522   1.992
10107W        W10972   3.637  13.433   2.503
10108W        W10973   3.555  11.420   2.064
10109W        W10974   0.094  14.250   1.440
10110W        W10975   0.603  13.437   0.976
10111W        W10976   0.518  11.054   3.529
10112W        W10977   1.637  13.907   3.631
10113W        W10978   3.392  12.875   1.421
10114W        W10979   2.746  13.052   0.301
10115W        W10980   2.041  14.573   2.513
10116W        W10981   2.898  13.295   3.550
10117W        W10982   1.713  11.005   0.830
10118W        W10983   2.426  11.874   1.689
10119W        W10984   0.112  13.461   2.021
10120W        W10985   1.365  11.423   0.662
10121W        W10986   1.169  12.907   3.511
10122W        W10987   2.163  11.888   1.225
10123W        W10988   2.368  13.298   2.347
10124W        W10989   0.522  13.903   2.782
10125W        W10990   1.113  13.886   3.505
10126W        W10991   0.964  11.683   0.519
10127W        W10992   2.481  11.825   0.844
10128W        W10993   2.439  13.933   3.081
10129W        W10994   1.124  12.525   1.680
10130W        W10995   0.779  14.223   2.545
10131W        W10996   3.524  14.340   0.146
10132W        W10997   0.387  13.012   3.142
10133W        W10998   2.382  13.274   1.830
10134W        W10999   0.818  12.923   1.072
10135W        W11000   1.189  13.930   2.467
10136W        W11001   1.567  11.349   1.508
10137W        W11002   0.178  13.333   0.438
10138W        W11003   1.697  12.284   0.308
10139W        W11004   0.343  12.833   1.327
10140W        W11005   1.633  11.475   2.791
10141W        W11006   3.305  11.184   0.218
10142W        W11007   3.398  12.930   3.317
10143W        W11008   2.052  14.187   3.469
10144W        W11009   3.610  13.281   2.991
10145W        W11010   3.018  14.079   3.602
10146W        W11011   0.757  14.535   2.080
10147W        W11012   3.616  13.157   0.954
10148W        W11013   2.146  12.424   1.467
10149W        W11014   1.913  11.036   1.357
10150W        W11015   0.972  14.020   1.194
10151W        W11016   1.471  11.761   2.419
10152W        W11017   1.171  11.130   1.888
10153W        W11018   0.234  13.952   0.436
10154W        W11019   2.050  13.316   1.154
10155W        W11020   0.925  14.111   3.033
10156W        W11021   0.402  12.934   0.729
10157W        W11022   0.287  11.477   1.728
10158W        W11023   1.835  13.442   1.785
10159W        W11024   0.087  11.296   0.805
10160W        W11025   2.751  12.502   2.732
10161W        W11026   2.628  11.888   0.304
10162W        W11027   3.145  13.560   1.952
10163W        W11028   1.806  14.044   1.783
10164W        W11029   1.218  14.148   0.694
10165W        W11030   2.500  11.051   0.124
10166W        W11031   0.300  14.311   1.865
10167W        W11032   2.497  12.069   3.500
10168W        W11033   0.480  11.599   3.499
10169W        W11034   0.211  12.199   0.832
10170W        W11035   0.902  12.188   0.557
10171W        W11036   2.665  12.515   3.374
10172W        W11037   1.008  12.796   2.083
10173W        W11038   2.482  11.082   1.203
10174W        W11039   1.613  14.513   1.706
10175W        W11040   2.827  13.975   2.643
10176W        W11041   2.411  14.124   1.754
10177W        W11042   2.430  13.104   1.348
10178W        W11043   1.892  11.329   0.419
10179W        W11044   3.573  10.957   1.141
10180W        W11045   1.261  12.592   0.304
10181W        W11046   3.427  11.929   1.294
10182W        W11047   2.119  13.099   0.171
10183W        W11048   3.055  13.299   2.919
10184W        W11049   2.709  14.000   0.386
10185W        W11050   1.324  11.675   3.292
10186W        W11051   1.144  12.259   2.533
10187W        W11052   3.236  13.754   2.810
10188W        W11053   2.336  11.704   3.187
10189W        W11054   0.180  12.175   2.964
10190W        W11055   1.940  12.652   2.690
10191W        W11056   0.297  13.410   1.347
10192W        W11057   0.444  12.707   2.237
10193W        W11058   2.761  12.993   2.587
10194W        W11059   2.533  14.373   3.398
10195W        W11060   2.429  12.112   2.951
10196W        W11061   2.706  14.166   1.356
10197W        W11062   1.708  13.886   2.679
10198W        W11063   1.193  14.241   1.948
10199W        W11064   2.998  13.412   2.367
10200W        W11065   2.048  13.484   3.504
10201W        W11066   0.653  13.437   1.843
10202W        W11067   2.999  13.196   1.488
10203W        W11068   2.640  14.262   2.239
10204W        W11069   0.618  13.991   2.109
10205W        W11070   1.639  12.043   3.319
10206W        W11071   2.090  14.209   0.830
10207W        W11072   1.398  13.464   3.468
10208W        W11073   1.524  13.702   0.845
10209W        W11074   0.745  12.442   0.104
10210W        W11075   0.084  14.528   7.003
10211W        W11076   0.460  13.421   6.526
10212W        W11077   3.165  13.151   4.296
10213W        W11078   3.295  14.236   6.323
10214W        W11079   1.213  14.227   3.849
10215W        W11080   1.296  12.379   4.832
10216W        W11081   0.811  12.227   4.996
10217W        W11082   1.802  13.042   4.430
10218W        W11083   1.477  14.134   6.785
10219W        W11084   0.126  11.695   6.748
10220W        W11085   0.888  10.975   6.550
10221W        W11086   2.582  11.363   5.437
10222W        W11087   2.231  12.234   4.007
10223W        W11088   2.801  11.668   7.098
10224W        W11089   0.167  11.460   6.223
10225W        W11090   0.266  14.079   7.244
10226W        W11091   1.788  13.469   3.976
10227W        W11092   0.220  12.252   5.669
10228W        W11093   1.113  12.143   6.906
10229W        W11094   3.572  12.002   5.405
10230W        W11095   3.336  13.045   6.264
10231W        W11096   1.644  12.378   5.291
10232W        W11097   2.190  13.717   5.660
10233W        W11098   0.690  13.151   5.892
10234W        W11099   0.049  12.679   5.463
10235W        W11100   1.085  12.651   6.655
10236W        W11101   3.356  12.434   6.909
10237W        W11102   0.972  13.878   5.354
10238W        W11103   2.093  13.567   6.488
10239W        W11104   1.313  12.207   5.713
10240W        W11105   1.605  12.991   5.356
10241W        W11106   2.602  13.764   7.204
10242W        W11107   1.681  13.084   7.214
10243W        W11108   1.662  12.800   6.692
10244W        W11109   0.071  12.191   7.214
10245W        W11110   2.903  13.726   6.813
10246W        W11111   0.484  11.308   4.811
10247W        W11112   1.011  13.566   5.810
10248W        W11113   3.474  13.349   5.100
10249W        W11114   2.887  11.749   5.667
10250W        W11115   3.172  11.702   3.762
10251W        W11116   3.637  12.503   6.068
10252W        W11117   1.604  14.210   5.821
10253W        W11118   3.378  13.676   4.259
10254W        W11119   0.507  14.462   4.013
10255W        W11120   0.900  14.508   4.689
10256W        W11121   0.697  11.262   6.115
10257W        W11122   3.320  12.280   6.390
10258W        W11123   2.725  12.702   4.849
10259W        W11124   2.691  12.390   3.876
10260W        W11125   1.899  13.534   6.016
10261W        W11126   1.705  11.864   5.215
10262W        W11127   2.305  13.951   6.209
10263W        W11128   3.176  12.742   4.631
10264W        W11129   2.078  11.400   4.647
10265W        W11130   0.735  14.094   4.330
10266W        W11131   0.106  11.593   4.929
10267W        W11132   2.892  12.200   5.403
10268W        W11133   0.350  13.817   5.318
10269W        W11134   1.691  14.167   4.188
10270W        W11135   3.083  12.193   3.652
10271W        W11136   0.106  13.951   5.816
10272W        W11137   0.897  13.523   6.296
10273W        W11138   1.270  12.883   4.915
10274W        W11139   1.292  11.288   6.008
10275W        W11140   3.521  11.050   5.305
10276W        W11141   0.740  12.922   3.773
10277W        W11142   0.395  11.955   3.952
10278W        W11143   0.457  13.911   4.746
10279W        W11144   1.588  13.394   4.994
10280W        W11145   2.920  14.253   6.708
10281W        W11146   1.846  11.895   4.392
10282W        W11147   3.229  14.293   5.164
10283W        W11148   2.906  12.146   6.762
10284W        W11149   3.619  13.802   4.896
10285W        W11150   2.246  13.094   6.380
10286W        W11151   0.012  12.645   4.586
10287W        W11152   1.123  13.060   6.159
10288W        W11153   2.327  12.324   4.537
10289W        W11154   2.204  12.814   4.641
10290W        W11155   0.547  12.234   6.115
10291W        W11156   0.532  12.110   7.037
10292W        W11157   0.422  11.027   5.196
10293W        W11158   2.190  11.374   5.757
10294W        W11159   1.838  11.559   6.920
10295W        W11160   2.193  11.708   4.098
10296W        W11161   3.376  14.101   6.852
10297W        W11162   2.343  11.182   6.891
10298W        W11163   3.362  13.483   7.013
10299W        W11164   2.792  11.650   6.609
10300W        W11165   2.592  11.588   4.879
10301W        W11166   2.985  12.722   7.283
10302W        W11167   0.725  14.298   5.269
10303W        W11168   1.383  12.015   4.255
10304W        W11169   0.952  11.299   6.919
10305W        W11170   3.004  11.783   4.600
10306W        W11171   3.371  12.265   4.545
10307W        W11172   1.114  14.482   7.016
10308W        W11173   1.040  11.018   4.251
10309W        W11174   3.361  11.552   5.286
10310W        W11175   3.511  13.801   3.731
10311W        W11176   0.418  13.004   5.433
10312W        W11177   2.335  11.591   3.663
10313W        W11178   3.469  13.923   5.383
10314W        W11179   3.508  11.117   6.133
10315W        W11180   1.953  12.329   6.687
10316W        W11181   2.046  13.668   4.390
10317W        W11182   2.446  12.962   7.130
10318W        W11183   2.120  10.939   5.439
10319W        W11184   0.732  11.842   5.502
10320W        W11185   0.286  13.042   6.276
10321W        W11186   2.145  14.235   4.982
10322W        W11187   3.339  11.832   5.854
10323W        W11188   1.976  14.179   6.621
10324W        W11189   3.319  13.238   3.826
10325W        W11190   1.754  12.721   4.887
10326W        W11191   3.606  11.232   6.628
10327W        W11192   1.755  13.067   6.222
10328W        W11193   1.972  11.953   5.667
10329W        W11194   2.824  12.251   4.505
10330W        W11195   3.111  11.984   4.147
10331W        W11196   2.920  14.024   4.536
10332W        W11197   2.754  13.627   5.332
10333W        W11198   2.650  12.706   4.310
10334W        W11199   2.083  12.916   5.296
10335W        W11200   2.964  12.704   5.363
10336W        W11201   0.339  11.719   5.787
10337W        W11202   3.117  12.771   6.614
10338W        W11203   3.468  14.389   5.760
10339W        W11204   1.398  13.833   5.162
10340W        W11205   2.405  14.366   6.486
10341W        W11206   2.399  11.696   6.250
10342W        W11207   1.606  14.404   6.311
10343W        W11208   3.303  11.358   4.777
10344W        W11209   3.094  12.677   6.078
10345W        W11210   0.077  11.998   6.116
10346W        W11211   2.937  11.793   5.134
10347W        W11212   3.348  11.944   6.911
10348W        W11213   2.233  13.643   5.129
10349W        W11214   1.489  14.234   4.742
10350W        W11215   0.604  11.414   4.000
10351W        W11216   1.708  11.068   5.810
10352W        W11217   0.736  14.188   3.658
10353W        W11218   1.110  12.654   4.409
10354W        W11219   1.764  13.283   6.722
10355W        W11220   1.594  11.641   4.712
10356W        W11221   2.950  11.238   5.140
10357W        W11222   2.670  14.520   5.468
10358W        W11223   2.082  14.168   5.808
10359W        W11224   1.478  13.205   5.769
10360W        W11225   3.248  13.928   5.895
10361W        W11226   0.942  11.431   4.664
10362W        W11227   1.464  13.728   5.624
10363W        W11228   0.947  11.659   3.689
10364W        W11229   1.748  12.268   6.083
10365W        W11230   2.596  11.134   5.953
10366W        W11231   0.016  12.977   5.838
10367W        W11232   1.720  12.795   3.996
10368W        W11233   0.988  11.110   3.766
10369W        W11234   1.726  12.191   4.817
10370W        W11235   2.696  11.167   6.516
10371W        W11236   1.284  13.179   6.625
10372W        W11237   2.088  12.961   6.842
10373W        W11238   2.705  12.991   6.735
10374W        W11239   1.989  11.131   7.240
10375W        W11240   1.211  11.747   5.633
10376W        W11241   0.637  11.703   5.031
10377W        W11242   0.423  14.415   4.707
10378W        W11243   1.755  13.745   6.832
10379W        W11244   0.790  13.230   4.191
10380W        W11245   2.470  12.615   5.412
10381W        W11246   2.750  12.414   5.811
10382W        W11247   1.955  13.088   5.745
10383W        W11248   2.425  13.462   3.877
10384W        W11249   2.097  11.483   5.205
10385W        W11250   3.576  11.761   4.473
10386W        W11251   0.070  14.350   6.504
10387W        W11252   0.487  13.576   6.036
10388W        W11253   0.054  14.422   4.268
10389W        W11254   1.953  11.692   6.074
10390W        W11255   1.316  13.715   3.923
10391W        W11256   3.221  14.097   4.109
10392W        W11257   2.196  12.750   4.123
10393W        W11258   1.039  11.941   4.640
10394W        W11259   1.871  11.851   3.692
10395W        W11260   2.455  13.416   6.870
10396W        W11261   2.808  11.322   4.487
10397W        W11262   0.138  11.170   3.935
10398W        W11263   1.424  13.489   6.225
10399W        W11264   1.223  13.405   5.317
10400W        W11265   0.965  13.357   3.715
10401W        W11266   0.206  13.598   4.483
10402W        W11267   0.710  12.668   6.925
10403W        W11268   1.414  11.228   7.111
10404W        W11269   2.123  11.370   6.467
10405W        W11270   1.318  11.138   4.748
10406W        W11271   2.377  11.215   4.253
10407W        W11272   0.322  11.147   5.830
10408W        W11273   0.370  12.110   5.200
10409W        W11274   3.059  11.218   5.606
10410W        W11275   0.481  11.716   4.420
10411W        W11276   3.052  11.404   6.036
10412W        W11277   3.448  12.607   3.721
10413W        W11278   0.740  11.365   5.540
10414W        W11279   1.854  11.937   6.480
10415W        W11280   0.002  11.627   3.958
10416W        W11281   0.788  13.016   6.519
10417W        W11282   2.146  12.414   5.698
10418W        W11283   2.013  14.493   3.994
10419W        W11284   0.159  13.000   3.691
10420W        W11285   0.894  13.411   6.817
10421W        W11286   0.415  12.578   6.448
10422W        W11287   1.406  12.683   6.242
10423W        W11288   3.174  11.042   6.504
10424W        W11289   3.572  12.652   6.495
10425W        W11290   3.560  12.852   4.181
10426W        W11291   2.423  13.184   4.280
10427W        W11292   2.897  14.484   3.975
10428W        W11293   2.074  12.474   7.117
10429W        W11294   0.404  13.441   7.157
10430W        W11295   3.610  11.363   7.109
10431W        W11296   3.328  12.291   5.730
10432W        W11297   1.636  14.421   7.207
10433W        W11298   1.491  11.050   3.934
10434W        W11299   3.030  13.649   3.877
10435W        W11300   0.799  11.742   6.763
10436W        W11301   1.233  13.736   6.625
10437W        W11302   3.359  11.727   6.423
10438W        W11303   2.570  14.386   4.391
10439W        W11304   2.809  13.005   5.758
10440W        W11305   1.059  11.421   6.425
10441W        W11306   1.528  12.490   7.182
10442W        W11307   1.031  13.669   4.376
10443W        W11308   2.786  13.167   4.640
10444W        W11309   0.554  11.793   6.364
10445W        W11310   1.883  13.855   4.828
10446W        W11311   3.633  12.415   5.009
10447W        W11312   1.855  11.048   6.728
10448W        W11313   2.635  13.753   5.807
10449W        W11314   2.938  14.097   5.515
10450W        W11315   2.157  13.899   3.943
10451W        W11316   0.167  13.791   6.785
10452W        W11317   0.910  11.783   6.023
10453W        W11318   0.880  11.131   5.133
10454W        W11319   2.501  11.973   5.825
10455W        W11320   1.299  13.144   4.025
10456W        W11321   3.297  13.086   5.524
10457W        W11322   0.624  13.844   6.947
10458W        W11323   3.011  14.526   4.744
10459W        W11324   1.110  11.546   5.189
10460W        W11325   0.879  13.039   5.279
10461W        W11326   1.192  14.450   6.029
10462W        W11327   3.259  14.546   7.061
10463W        W11328   2.418  12.734   5.994
10464W        W11329   0.267  12.532   3.909
10465W        W11330   3.401  14.190   4.606
10466W        W11331   3.238  11.514   4.225
10467W        W11332   1.377  11.033   6.628
10468W        W11333   3.083  13.835   5.086
10469W        W11334   3.112  12.391   4.991
10470W        W11335   1.229  12.064   5.207
10471W        W11336   1.474  12.326   6.531
10472W        W11337   2.585  13.479   6.394
10473W        W11338   1.235  11.933   6.506
10474W        W11339   1.214  14.399   5.122
10475W        W11340   0.531  14.358   6.756
10476W        W11341   0.643  13.719   3.886
10477W        W11342   3.160  13.477   4.696
10478W        W11343   0.764  12.269   6.582
10479W        W11344   3.537  12.199   4.063
10480W        W11345   1.282  13.256   4.534
10481W        W11346   2.381  12.638   6.615
10482W        W11347   2.272  12.266   6.159
10483W        W11348   0.832  12.638   6.188
10484W        W11349   3.042  14.526   6.017
10485W        W11350   2.833  11.160   7.011
10486W        W11351   0.497  11.310   6.598
10487W        W11352   0.836  12.333   5.651
10488W        W11353   1.205  12.147   3.773
10489W        W11354   0.008  13.906   6.318
10490W        W11355   1.593  12.615   5.761
10491W        W11356   1.416  11.640   3.866
10492W        W11357   0.551  12.456   4.647
10493W        W11358   0.322  14.308   6.084
10494W        W11359   3.117  12.534   4.192
10495W        W11360   3.212  11.450   6.878
10496W        W11361   2.648  13.659   4.841
10497W        W11362   0.246  12.583   7.018
10498W        W11363   3.212  11.047   4.314
10499W        W11364   2.732  13.522   4.325
10500W        W11365   1.634  12.580   4.410
10501W        W11366   2.821  11.384   3.933
10502W        W11367   2.886  11.991   6.119
10503W        W11368   0.595  12.584   5.326
10504W        W11369   0.889  13.523   4.975
10505W        W11370   2.652  12.143   4.940
10506W        W11371   1.675  11.522   5.636
10507W        W11372   3.637  13.433   6.147
10508W        W11373   3.555  11.420   5.708
10509W        W11374   0.094  14.250   5.084
10510W        W11375   0.603  13.437   4.620
10511W        W11376   0.518  11.054   7.173
10512W        W11377   1.637  13.907   7.275
10513W        W11378   3.392  12.875   5.065
10514W        W11379   2.746  13.052   3.945
10515W        W11380   2.041  14.573   6.157
10516W        W11381   2.898  13.295   7.194
10517W        W11382   1.713  11.005   4.474
10518W        W11383   2.426  11.874   5.333
10519W        W11384   0.112  13.461   5.665
10520W        W11385   1.365  11.423   4.306
10521W        W11386   1.169  12.907   7.155
10522W        W11387   2.163  11.888   4.869
10523W        W11388   2.368  13.298   5.991
10524W        W11389   0.522  13.903   6.426
10525W        W11390   1.113  13.886   7.149
10526W        W11391   0.964  11.683   4.163
10527W        W11392   2.481  11.825   4.488
10528W        W11393   2.439  13.933   6.725
10529W        W11394   1.124  12.525   5.324
10530W        W11395   0.779  14.223   6.189
10531W        W11396   3.524  14.340   3.790
10532W        W11397   0.387  13.012   6.786
10533W        W11398   2.382  13.274   5.474
10534W        W11399   0.818  12.923   4.716
10535W        W11400   1.189  13.930   6.111
10536W        W11401   1.567  11.349   5.152
10537W        W11402   0.178  13.333   4.082
10538W        W11403   1.697  12.284   3.952
10539W        W11404   0.343  12.833   4.971
10540W        W11405   1.633  11.475   6.435
10541W        W11406   3.305  11.184   3.862
10542W        W11407   3.398  12.930   6.961
10543W        W11408   2.052  14.187   7.113
10544W        W11409   3.610  13.281   6.635
10545W        W11410   3.018  14.079   7.246
10546W        W11411   0.757  14.535   5.724
10547W        W11412   3.616  13.157   4.598
10548W        W11413   2.146  12.424   5.111
10549W        W11414   1.913  11.036   5.001
10550W        W11415   0.972  14.020   4.838
10551W        W11416   1.471  11.761   6.063
10552W        W11417   1.171  11.130   5.532
10553W        W11418   0.234  13.952   4.080
10554W        W11419   2.050  13.316   4.798
10555W        W11420   0.925  14.111   6.677
10556W        W11421   0.402  12.934   4.373
10557W        W11422   0.287  11.477   5.372
10558W        W11423   1.835  13.442   5.429
10559W        W11424   0.087  11.296   4.449
10560W        W11425   2.751  12.502   6.376
10561W        W11426   2.628  11.888   3.948
10562W        W11427   3.145  13.560   5.596
10563W        W11428   1.806  14.044   5.427
10564W        W11429   1.218  14.148   4.338
10565W        W11430   2.500  11.051   3.768
10566W        W11431   0.300  14.311   5.509
10567W        W11432   2.497  12.069   7.144
10568W        W11433   0.480  11.599   7.143
10569W        W11434   0.211  12.199   4.476
10570W        W11435   0.902  12.188   4.201
10571W        W11436   2.665  12.515   7.018
10572W        W11437   1.008  12.796   5.727
10573W        W11438   2.482  11.082   4.847
10574W        W11439   1.613  14.513   5.350
10575W        W11440   2.827  13.975   6.287
10576W        W11441   2.411  14.124   5.398
10577W        W11442   2.430  13.104   4.992
10578W        W11443   1.892  11.329   4.063
10579W        W11444   3.573  10.957   4.785
10580W        W11445   1.261  12.592   3.948
10581W        W11446   3.427  11.929   4.938
10582W        W11447   2.119  13.099   3.815
10583W        W11448   3.055  13.299   6.563
10584W        W11449   2.709  14.000   4.030
10585W        W11450   1.324  11.675   6.936
10586W        W11451   1.144  12.259   6.177
10587W        W11452   3.236  13.754   6.454
10588W        W11453   2.336  11.704   6.831
10589W        W11454   0.180  12.175   6.608
10590W        W11455   1.940  12.652   6.334
10591W        W11456   0.297  13.410   4.991
10592W        W11457   0.444  12.707   5.881
10593W        W11458   2.761  12.993   6.231
10594W        W11459   2.533  14.373   7.042
10595W        W11460   2.429  12.112   6.595
10596W        W11461   2.706  14.166   5.000
10597W        W11462   1.708  13.886   6.323
10598W        W11463   1.193  14.241   5.592
10599W        W11464   2.998  13.412   6.011
10600W        W11465   2.048  13.484   7.148
10601W        W11466   0.653  13.437   5.487
10602W        W11467   2.999  13.196   5.132
10603W        W11468   2.640  14.262   5.883
10604W        W11469   0.618  13.991   5.753
10605W        W11470   1.639  12.043   6.963
10606W        W11471   2.090  14.209   4.474
10607W        W11472   1.398  13.464   7.112
10608W        W11473   1.524  13.702   4.489
10609W        W11474   0.745  12.442   3.748
10610W        W11475   0.084  14.528  10.648
10611W        W11476   0.460  13.421  10.171
10612W        W11477   3.165  13.151   7.941
10613W        W11478   3.295  14.236   9.968
10614W        W11479   1.213  14.227   7.494
10615W        W11480   1.296  12.379   8.477
10616W        W11481   0.811  12.227   8.641
10617W        W11482   1.802  13.042   8.075
10618W        W11483   1.477  14.134  10.430
10619W        W11484   0.126  11.695  10.393
10620W        W11485   0.888  10.975  10.195
10621W        W11486   2.582  11.363   9.082
10622W        W11487   2.231  12.234   7.652
10623W        W11488   2.801  11.668  10.743
10624W        W11489   0.167  11.460   9.868
10625W        W11490   0.266  14.079  10.889
10626W        W11491   1.788  13.469   7.621
10627W        W11492   0.220  12.252   9.314
10628W        W11493   1.113  12.143  10.551
10629W        W11494   3.572  12.002   9.050
10630W        W11495   3.336  13.045   9.909
10631W        W11496   1.644  12.378   8.936
10632W        W11497   2.190  13.717   9.305
10633W        W11498   0.690  13.151   9.537
10634W        W11499   0.049  12.679   9.108
10635W        W11500   1.085  12.651  10.300
10636W        W11501   3.356  12.434  10.554
10637W        W11502   0.972  13.878   8.999
10638W        W11503   2.093  13.567  10.133
10639W        W11504   1.313  12.207   9.358
10640W        W11505   1.605  12.991   9.001
10641W        W11506   2.602  13.764  10.849
10642W        W11507   1.681  13.084  10.859
10643W        W11508   1.662  12.800  10.337
10644W        W11509   0.071  12.191  10.859
10645W        W11510   2.903  13.726  10.458
10646W        W11511   0.484  11.308   8.456
10647W        W11512   1.011  13.566   9.455
10648W        W11513   3.474  13.349   8.745
10649W        W11514   2.887  11.749   9.312
10650W        W11515   3.172  11.702   7.407
10651W        W11516   3.637  12.503   9.713
10652W        W11517   1.604  14.210   9.466
10653W        W11518   3.378  13.676   7.904
10654W        W11519   0.507  14.462   7.658
10655W        W11520   0.900  14.508   8.334
10656W        W11521   0.697  11.262   9.760
10657W        W11522   3.320  12.280  10.035
10658W        W11523   2.725  12.702   8.494
10659W        W11524   2.691  12.390   7.521
10660W        W11525   1.899  13.534   9.661
10661W        W11526   1.705  11.864   8.860
10662W        W11527   2.305  13.951   9.854
10663W        W11528   3.176  12.742   8.276
10664W        W11529   2.078  11.400   8.292
10665W        W11530   0.735  14.094   7.975
10666W        W11531   0.106  11.593   8.574
10667W        W11532   2.892  12.200   9.048
10668W        W11533   0.350  13.817   8.963
10669W        W11534   1.691  14.167   7.833
10670W        W11535   3.083  12.193   7.297
10671W        W11536   0.106  13.951   9.461
10672W        W11537   0.897  13.523   9.941
10673W        W11538   1.270  12.883   8.560
10674W        W11539   1.292  11.288   9.653
10675W        W11540   3.521  11.050   8.950
10676W        W11541   0.740  12.922   7.418
10677W        W11542   0.395  11.955   7.597
10678W        W11543   0.457  13.911   8.391
10679W        W11544   1.588  13.394   8.639
10680W        W11545   2.920  14.253  10.353
10681W        W11546   1.846  11.895   8.037
10682W        W11547   3.229  14.293   8.809
10683W        W11548   2.906  12.146  10.407
10684W        W11549   3.619  13.802   8.541
10685W        W11550   2.246  13.094  10.025
10686W        W11551   0.012  12.645   8.231
10687W        W11552   1.123  13.060   9.804
10688W        W11553   2.327  12.324   8.182
10689W        W11554   2.204  12.814   8.286
10690W        W11555   0.547  12.234   9.760
10691W        W11556   0.532  12.110  10.682
10692W        W11557   0.422  11.027   8.841
10693W        W11558   2.190  11.374   9.402
10694W        W11559   1.838  11.559  10.565
10695W        W11560   2.193  11.708   7.743
10696W        W11561   3.376  14.101  10.497
10697W        W11562   2.343  11.182  10.536
10698W        W11563   3.362  13.483  10.658
10699W        W11564   2.792  11.650  10.254
10700W        W11565   2.592  11.588   8.524
10701W        W11566   2.985  12.722  10.928
10702W        W11567   0.725  14.298   8.914
10703W        W11568   1.383  12.015   7.900
10704W        W11569   0.952  11.299  10.564
10705W        W11570   3.004  11.783   8.245
10706W        W11571   3.371  12.265   8.190
10707W        W11572   1.114  14.482  10.661
10708W        W11573   1.040  11.018   7.896
10709W        W11574   3.361  11.552   8.931
10710W        W11575   3.511  13.801   7.376
10711W        W11576   0.418  13.004   9.078
10712W        W11577   2.335  11.591   7.308
10713W        W11578   3.469  13.923   9.028
10714W        W11579   3.508  11.117   9.778
10715W        W11580   1.953  12.329  10.332
10716W        W11581   2.046  13.668   8.035
10717W        W11582   2.446  12.962  10.775
10718W        W11583   2.120  10.939   9.084
10719W        W11584   0.732  11.842   9.147
10720W        W11585   0.286  13.042   9.921
10721W        W11586   2.145  14.235   8.627
10722W        W11587   3.339  11.832   9.499
10723W        W11588   1.976  14.179  10.266
10724W        W11589   3.319  13.238   7.471
10725W        W11590   1.754  12.721   8.532
10726W        W11591   3.606  11.232  10.273
10727W        W11592   1.755  13.067   9.867
10728W        W11593   1.972  11.953   9.312
10729W        W11594   2.824  12.251   8.150
10730W        W11595   3.111  11.984   7.792
10731W        W11596   2.920  14.024   8.181
10732W        W11597   2.754  13.627   8.977
10733W        W11598   2.650  12.706   7.955
10734W        W11599   2.083  12.916   8.941
10735W        W11600   2.964  12.704   9.008
10736W        W11601   0.339  11.719   9.432
10737W        W11602   3.117  12.771  10.259
10738W        W11603   3.468  14.389   9.405
10739W        W11604   1.398  13.833   8.807
10740W        W11605   2.405  14.366  10.131
10741W        W11606   2.399  11.696   9.895
10742W        W11607   1.606  14.404   9.956
10743W        W11608   3.303  11.358   8.422
10744W        W11609   3.094  12.677   9.723
10745W        W11610   0.077  11.998   9.761
10746W        W11611   2.937  11.793   8.779
10747W        W11612   3.348  11.944  10.556
10748W        W11613   2.233  13.643   8.774
10749W        W11614   1.489  14.234   8.387
10750W        W11615   0.604  11.414   7.645
10751W        W11616   1.708  11.068   9.455
10752W        W11617   0.736  14.188   7.303
10753W        W11618   1.110  12.654   8.054
10754W        W11619   1.764  13.283  10.367
10755W        W11620   1.594  11.641   8.357
10756W        W11621   2.950  11.238   8.785
10757W        W11622   2.670  14.520   9.113
10758W        W11623   2.082  14.168   9.453
10759W        W11624   1.478  13.205   9.414
10760W        W11625   3.248  13.928   9.540
10761W        W11626   0.942  11.431   8.309
10762W        W11627   1.464  13.728   9.269
10763W        W11628   0.947  11.659   7.334
10764W        W11629   1.748  12.268   9.728
10765W        W11630   2.596  11.134   9.598
10766W        W11631   0.016  12.977   9.483
10767W        W11632   1.720  12.795   7.641
10768W        W11633   0.988  11.110   7.411
10769W        W11634   1.726  12.191   8.462
10770W        W11635   2.696  11.167  10.161
10771W        W11636   1.284  13.179  10.270
10772W        W11637   2.088  12.961  10.487
10773W        W11638   2.705  12.991  10.380
10774W        W11639   1.989  11.131  10.885
10775W        W11640   1.211  11.747   9.278
10776W        W11641   0.637  11.703   8.676
10777W        W11642   0.423  14.415   8.352
10778W        W11643   1.755  13.745  10.477
10779W        W11644   0.790  13.230   7.836
10780W        W11645   2.470  12.615   9.057
10781W        W11646   2.750  12.414   9.456
10782W        W11647   1.955  13.088   9.390
10783W        W11648   2.425  13.462   7.522
10784W        W11649   2.097  11.483   8.850
10785W        W11650   3.576  11.761   8.118
10786W        W11651   0.070  14.350  10.149
10787W        W11652   0.487  13.576   9.681
10788W        W11653   0.054  14.422   7.913
10789W        W11654   1.953  11.692   9.719
10790W        W11655   1.316  13.715   7.568
10791W        W11656   3.221  14.097   7.754
10792W        W11657   2.196  12.750   7.768
10793W        W11658   1.039  11.941   8.285
10794W        W11659   1.871  11.851   7.337
10795W        W11660   2.455  13.416  10.515
10796W        W11661   2.808  11.322   8.132
10797W        W11662   0.138  11.170   7.580
10798W        W11663   1.424  13.489   9.870
10799W        W11664   1.223  13.405   8.962
10800W        W11665   0.965  13.357   7.360
10801W        W11666   0.206  13.598   8.128
10802W        W11667   0.710  12.668  10.570
10803W        W11668   1.414  11.228  10.756
10804W        W11669   2.123  11.370  10.112
10805W        W11670   1.318  11.138   8.393
10806W        W11671   2.377  11.215   7.898
10807W        W11672   0.322  11.147   9.475
10808W        W11673   0.370  12.110   8.845
10809W        W11674   3.059  11.218   9.251
10810W        W11675   0.481  11.716   8.065
10811W        W11676   3.052  11.404   9.681
10812W        W11677   3.448  12.607   7.366
10813W        W11678   0.740  11.365   9.185
10814W        W11679   1.854  11.937  10.125
10815W        W11680   0.002  11.627   7.603
10816W        W11681   0.788  13.016  10.164
10817W        W11682   2.146  12.414   9.343
10818W        W11683   2.013  14.493   7.639
10819W        W11684   0.159  13.000   7.336
10820W        W11685   0.894  13.411  10.462
10821W        W11686   0.415  12.578  10.093
10822W        W11687   1.406  12.683   9.887
10823W        W11688   3.174  11.042  10.149
10824W        W11689   3.572  12.652  10.140
10825W        W11690   3.560  12.852   7.826
10826W        W11691   2.423  13.184   7.925
10827W        W11692   2.897  14.484   7.620
10828W        W11693   2.074  12.474  10.762
10829W        W11694   0.404  13.441  10.802
10830W        W11695   3.610  11.363  10.754
10831W        W11696   3.328  12.291   9.375
10832W        W11697   1.636  14.421  10.852
10833W        W11698   1.491  11.050   7.579
10834W        W11699   3.030  13.649   7.522
10835W        W11700   0.799  11.742  10.408
10836W        W11701   1.233  13.736  10.270
10837W        W11702   3.359  11.727  10.068
10838W        W11703   2.570  14.386   8.036
10839W        W11704   2.809  13.005   9.403
10840W        W11705   1.059  11.421  10.070
10841W        W11706   1.528  12.490  10.827
10842W        W11707   1.031  13.669   8.021
10843W        W11708   2.786  13.167   8.285
10844W        W11709   0.554  11.793  10.009
10845W        W11710   1.883  13.855   8.473
10846W        W11711   3.633  12.415   8.654
10847W        W11712   1.855  11.048  10.373
10848W        W11713   2.635  13.753   9.452
10849W        W11714   2.938  14.097   9.160
10850W        W11715   2.157  13.899   7.588
10851W        W11716   0.167  13.791  10.430
10852W        W11717   0.910  11.783   9.668
10853W        W11718   0.880  11.131   8.778
10854W        W11719   2.501  11.973   9.470
10855W        W11720   1.299  13.144   7.670
10856W        W11721   3.297  13.086   9.169
10857W        W11722   0.624  13.844  10.592
10858W        W11723   3.011  14.526   8.389
10859W        W11724   1.110  11.546   8.834
10860W        W11725   0.879  13.039   8.924
10861W        W11726   1.192  14.450   9.674
10862W        W11727   3.259  14.546  10.706
10863W        W11728   2.418  12.734   9.639
10864W        W11729   0.267  12.532   7.554
10865W        W11730   3.401  14.190   8.251
10866W        W11731   3.238  11.514   7.870
10867W        W11732   1.377  11.033  10.273
10868W        W11733   3.083  13.835   8.731
10869W        W11734   3.112  12.391   8.636
10870W        W11735   1.229  12.064   8.852
10871W        W11736   1.474  12.326  10.176
10872W        W11737   2.585  13.479  10.039
10873W        W11738   1.235  11.933  10.151
10874W        W11739   1.214  14.399   8.767
10875W        W11740   0.531  14.358  10.401
10876W        W11741   0.643  13.719   7.531
10877W        W11742   3.160  13.477   8.341
10878W        W11743   0.764  12.269  10.227
10879W        W11744   3.537  12.199   7.708
10880W        W11745   1.282  13.256   8.179
10881W        W11746   2.381  12.638  10.260
10882W        W11747   2.272  12.266   9.804
10883W        W11748   0.832  12.638   9.833
10884W        W11749   3.042  14.526   9.662
10885W        W11750   2.833  11.160  10.656
10886W        W11751   0.497  11.310  10.243
10887W        W11752   0.836  12.333   9.296
10888W        W11753   1.205  12.147   7.418
10889W        W11754   0.008  13.906   9.963
10890W        W11755   1.593  12.615   9.406
10891W        W11756   1.416  11.640   7.511
10892W        W11757   0.551  12.456   8.292
10893W        W11758   0.322  14.308   9.729
10894W        W11759   3.117  12.534   7.837
10895W        W11760   3.212  11.450  10.523
10896W        W11761   2.648  13.659   8.486
10897W        W11762   0.246  12.583  10.663
10898W        W11763   3.212  11.047   7.959
10899W        W11764   2.732  13.522   7.970
10900W        W11765   1.634  12.580   8.055
10901W        W11766   2.821  11.384   7.578
10902W        W11767   2.886  11.991   9.764
10903W        W11768   0.595  12.584   8.971
10904W        W11769   0.889  13.523   8.620
10905W        W11770   2.652  12.143   8.585
10906W        W11771   1.675  11.522   9.281
10907W        W11772   3.637  13.433   9.792
10908W        W11773   3.555  11.420   9.353
10909W        W11774   0.094  14.250   8.729
10910W        W11775   0.603  13.437   8.265
10911W        W11776   0.518  11.054  10.818
10912W        W11777   1.637  13.907  10.920
10913W        W11778   3.392  12.875   8.710
10914W        W11779   2.746  13.052   7.590
10915W        W11780   2.041  14.573   9.802
10916W        W11781   2.898  13.295  10.839
10917W        W11782   1.713  11.005   8.119
10918W        W11783   2.426  11.874   8.978
10919W        W11784   0.112  13.461   9.310
10920W        W11785   1.365  11.423   7.951
10921W        W11786   1.169  12.907  10.800
10922W        W11787   2.163  11.888   8.514
10923W        W11788   2.368  13.298   9.636
10924W        W11789   0.522  13.903  10.071
10925W        W11790   1.113  13.886  10.794
10926W        W11791   0.964  11.683   7.808
10927W        W11792   2.481  11.825   8.133
10928W        W11793   2.439  13.933  10.370
10929W        W11794   1.124  12.525   8.969
10930W        W11795   0.779  14.223   9.834
10931W        W11796   3.524  14.340   7.435
10932W        W11797   0.387  13.012  10.431
10933W        W11798   2.382  13.274   9.119
10934W        W11799   0.818  12.923   8.361
10935W        W11800   1.189  13.930   9.756
10936W        W11801   1.567  11.349   8.797
10937W        W11802   0.178  13.333   7.727
10938W        W11803   1.697  12.284   7.597
10939W        W11804   0.343  12.833   8.616
10940W        W11805   1.633  11.475  10.080
10941W        W11806   3.305  11.184   7.507
10942W        W11807   3.398  12.930  10.606
10943W        W11808   2.052  14.187  10.758
10944W        W11809   3.610  13.281  10.280
10945W        W11810   3.018  14.079  10.891
10946W        W11811   0.757  14.535   9.369
10947W        W11812   3.616  13.157   8.243
10948W        W11813   2.146  12.424   8.756
10949W        W11814   1.913  11.036   8.646
10950W        W11815   0.972  14.020   8.483
10951W        W11816   1.471  11.761   9.708
10952W        W11817   1.171  11.130   9.177
10953W        W11818   0.234  13.952   7.725
10954W        W11819   2.050  13.316   8.443
10955W        W11820   0.925  14.111  10.322
10956W        W11821   0.402  12.934   8.018
10957W        W11822   0.287  11.477   9.017
10958W        W11823   1.835  13.442   9.074
10959W        W11824   0.087  11.296   8.094
10960W        W11825   2.751  12.502  10.021
10961W        W11826   2.628  11.888   7.593
10962W        W11827   3.145  13.560   9.241
10963W        W11828   1.806  14.044   9.072
10964W        W11829   1.218  14.148   7.983
10965W        W11830   2.500  11.051   7.413
10966W        W11831   0.300  14.311   9.154
10967W        W11832   2.497  12.069  10.789
10968W        W11833   0.480  11.599  10.788
10969W        W11834   0.211  12.199   8.121
10970W        W11835   0.902  12.188   7.846
10971W        W11836   2.665  12.515  10.663
10972W        W11837   1.008  12.796   9.372
10973W        W11838   2.482  11.082   8.492
10974W        W11839   1.613  14.513   8.995
10975W        W11840   2.827  13.975   9.932
10976W        W11841   2.411  14.124   9.043
10977W        W11842   2.430  13.104   8.637
10978W        W11843   1.892  11.329   7.708
10979W        W11844   3.573  10.957   8.430
10980W        W11845   1.261  12.592   7.593
10981W        W11846   3.427  11.929   8.583
10982W        W11847   2.119  13.099   7.460
10983W        W11848   3.055  13.299  10.208
10984W        W11849   2.709  14.000   7.675
10985W        W11850   1.324  11.675  10.581
10986W        W11851   1.144  12.259   9.822
10987W        W11852   3.236  13.754  10.099
10988W        W11853   2.336  11.704  10.476
10989W        W11854   0.180  12.175  10.253
10990W        W11855   1.940  12.652   9.979
10991W        W11856   0.297  13.410   8.636
10992W        W11857   0.444  12.707   9.526
10993W        W11858   2.761  12.993   9.876
10994W        W11859   2.533  14.373  10.687
10995W        W11860   2.429  12.112  10.240
10996W        W11861   2.706  14.166   8.645
10997W        W11862   1.708  13.886   9.968
10998W        W11863   1.193  14.241   9.237
10999W        W11864   2.998  13.412   9.656
11000W        W11865   2.048  13.484  10.793
11001W        W11866   0.653  13.437   9.132
11002W        W11867   2.999  13.196   8.777
11003W        W11868   2.640  14.262   9.528
11004W        W11869   0.618  13.991   9.398
11005W        W11870   1.639  12.043  10.608
11006W        W11871   2.090  14.209   8.119
11007W        W11872   1.398  13.464  10.757
11008W        W11873   1.524  13.702   8.134
11009W        W11874   0.745  12.442   7.393
11010W        W11875   0.084  14.528  14.292
11011W        W11876   0.460  13.421  13.815
11012W        W11877   3.165  13.151  11.585
11013W        W11878   3.295  14.236  13.612
11014W        W11879   1.213  14.227  11.138
11015W        W11880   1.296  12.379  12.121
11016W        W11881   0.811  12.227  12.285
11017W        W11882   1.802  13.042  11.719
11018W        W11883   1.477  14.134  14.074
11019W        W11884   0.126  11.695  14.037
11020W        W11885   0.888  10.975  13.839
11021W        W11886   2.582  11.363  12.726
11022W        W11887   2.231  12.234  11.296
11023W        W11888   2.801  11.668  14.387
11024W        W11889   0.167  11.460  13.512
11025W        W11890   0.266  14.079  14.533
11026W        W11891   1.788  13.469  11.265
11027W        W11892   0.220  12.252  12.958
11028W        W11893   1.113  12.143  14.195
11029W        W11894   3.572  12.002  12.694
11030W        W11895   3.336  13.045  13.553
11031W        W11896   1.644  12.378  12.580
11032W        W11897   2.190  13.717  12.949
11033W        W11898   0.690  13.151  13.181
11034W        W11899   0.049  12.679  12.752
11035W        W11900   1.085  12.651  13.944
11036W        W11901   3.356  12.434  14.198
11037W        W11902   0.972  13.878  12.643
11038W        W11903   2.093  13.567  13.777
11039W        W11904   1.313  12.207  13.002
11040W        W11905   1.605  12.991  12.645
11041W        W11906   2.602  13.764  14.493
11042W        W11907   1.681  13.084  14.503
11043W        W11908   1.662  12.800  13.981
11044W        W11909   0.071  12.191  14.503
11045W        W11910   2.903  13.726  14.102
11046W        W11911   0.484  11.308  12.100
11047W        W11912   3.474  13.349  12.389
11048W        W11913   2.887  11.749  12.956
11049W        W11914   3.172  11.702  11.051
11050W        W11915   3.637  12.503  13.357
11051W        W11916   1.604  14.210  13.110
11052W        W11917   3.378  13.676  11.548
11053W        W11918   0.507  14.462  11.302
11054W        W11919   0.900  14.508  11.978
11055W        W11920   0.697  11.262  13.404
11056W        W11921   3.320  12.280  13.679
11057W        W11922   2.725  12.702  12.138
11058W        W11923   2.691  12.390  11.165
11059W        W11924   1.899  13.534  13.305
11060W        W11925   1.705  11.864  12.504
11061W        W11926   2.305  13.951  13.498
11062W        W11927   3.176  12.742  11.920
11063W        W11928   2.078  11.400  11.936
11064W        W11929   0.735  14.094  11.619
11065W        W11930   0.106  11.593  12.218
11066W        W11931   2.892  12.200  12.692
11067W        W11932   0.350  13.817  12.607
11068W        W11933   1.691  14.167  11.477
11069W        W11934   3.083  12.193  10.941
11070W        W11935   0.106  13.951  13.105
11071W        W11936   0.897  13.523  13.585
11072W        W11937   1.270  12.883  12.204
11073W        W11938   1.292  11.288  13.297
11074W        W11939   3.521  11.050  12.594
11075W        W11940   0.740  12.922  11.062
11076W        W11941   0.395  11.955  11.241
11077W        W11942   0.457  13.911  12.035
11078W        W11943   1.588  13.394  12.283
11079W        W11944   2.920  14.253  13.997
11080W        W11945   1.846  11.895  11.681
11081W        W11946   3.229  14.293  12.453
11082W        W11947   2.906  12.146  14.051
11083W        W11948   3.619  13.802  12.185
11084W        W11949   2.246  13.094  13.669
11085W        W11950   0.012  12.645  11.875
11086W        W11951   1.123  13.060  13.448
11087W        W11952   2.327  12.324  11.826
11088W        W11953   2.204  12.814  11.930
11089W        W11954   0.547  12.234  13.404
11090W        W11955   0.532  12.110  14.326
11091W        W11956   0.422  11.027  12.485
11092W        W11957   2.190  11.374  13.046
11093W        W11958   1.838  11.559  14.209
11094W        W11959   2.193  11.708  11.387
11095W        W11960   3.376  14.101  14.141
11096W        W11961   2.343  11.182  14.180
11097W        W11962   3.362  13.483  14.302
11098W        W11963   2.792  11.650  13.898
11099W        W11964   2.592  11.588  12.168
11100W        W11965   2.985  12.722  14.572
11101W        W11966   0.725  14.298  12.558
11102W        W11967   1.383  12.015  11.544
11103W        W11968   0.952  11.299  14.208
11104W        W11969   3.004  11.783  11.889
11105W        W11970   3.371  12.265  11.834
11106W        W11971   1.114  14.482  14.305
11107W        W11972   1.040  11.018  11.540
11108W        W11973   3.361  11.552  12.575
11109W        W11974   3.511  13.801  11.020
11110W        W11975   0.418  13.004  12.722
11111W        W11976   2.335  11.591  10.952
11112W        W11977   3.469  13.923  12.672
11113W        W11978   3.508  11.117  13.422
11114W        W11979   1.953  12.329  13.976
11115W        W11980   2.046  13.668  11.679
11116W        W11981   2.446  12.962  14.419
11117W        W11982   2.120  10.939  12.728
11118W        W11983   0.732  11.842  12.791
11119W        W11984   0.286  13.042  13.565
11120W        W11985   2.145  14.235  12.271
11121W        W11986   3.339  11.832  13.143
11122W        W11987   1.976  14.179  13.910
11123W        W11988   3.319  13.238  11.115
11124W        W11989   1.754  12.721  12.176
11125W        W11990   3.606  11.232  13.917
11126W        W11991   1.755  13.067  13.511
11127W        W11992   1.972  11.953  12.956
11128W        W11993   2.824  12.251  11.794
11129W        W11994   3.111  11.984  11.436
11130W        W11995   2.920  14.024  11.825
11131W        W11996   2.754  13.627  12.621
11132W        W11997   2.650  12.706  11.599
11133W        W11998   2.083  12.916  12.585
11134W        W11999   2.964  12.704  12.652
11135W        W12000   0.339  11.719  13.076
11136W        W12001   3.117  12.771  13.903
11137W        W12002   3.468  14.389  13.049
11138W        W12003   1.398  13.833  12.451
11139W        W12004   2.405  14.366  13.775
11140W        W12005   2.399  11.696  13.539
11141W        W12006   1.606  14.404  13.600
11142W        W12007   3.303  11.358  12.066
11143W        W12008   3.094  12.677  13.367
11144W        W12009   0.077  11.998  13.405
11145W        W12010   2.937  11.793  12.423
11146W        W12011   3.348  11.944  14.200
11147W        W12012   2.233  13.643  12.418
11148W        W12013   1.489  14.234  12.031
11149W        W12014   0.604  11.414  11.289
11150W        W12015   1.708  11.068  13.099
11151W        W12016   0.736  14.188  10.947
11152W        W12017   1.110  12.654  11.698
11153W        W12018   1.764  13.283  14.011
11154W        W12019   1.594  11.641  12.001
11155W        W12020   2.950  11.238  12.429
11156W        W12021   2.670  14.520  12.757
11157W        W12022   2.082  14.168  13.097
11158W        W12023   1.478  13.205  13.058
11159W        W12024   3.248  13.928  13.184
11160W        W12025   0.942  11.431  11.953
11161W        W12026   1.464  13.728  12.913
11162W        W12027   0.947  11.659  10.978
11163W        W12028   1.748  12.268  13.372
11164W        W12029   2.596  11.134  13.242
11165W        W12030   0.016  12.977  13.127
11166W        W12031   1.720  12.795  11.285
11167W        W12032   0.988  11.110  11.055
11168W        W12033   1.726  12.191  12.106
11169W        W12034   2.696  11.167  13.805
11170W        W12035   1.284  13.179  13.914
11171W        W12036   2.088  12.961  14.131
11172W        W12037   2.705  12.991  14.024
11173W        W12038   1.989  11.131  14.529
11174W        W12039   1.211  11.747  12.922
11175W        W12040   0.637  11.703  12.320
11176W        W12041   0.423  14.415  11.996
11177W        W12042   1.755  13.745  14.121
11178W        W12043   0.790  13.230  11.480
11179W        W12044   2.470  12.615  12.701
11180W        W12045   2.750  12.414  13.100
11181W        W12046   1.955  13.088  13.034
11182W        W12047   2.425  13.462  11.166
11183W        W12048   2.097  11.483  12.494
11184W        W12049   3.576  11.761  11.762
11185W        W12050   0.070  14.350  13.793
11186W        W12051   0.487  13.576  13.325
11187W        W12052   0.054  14.422  11.557
11188W        W12053   1.953  11.692  13.363
11189W        W12054   1.316  13.715  11.212
11190W        W12055   3.221  14.097  11.398
11191W        W12056   2.196  12.750  11.412
11192W        W12057   1.039  11.941  11.929
11193W        W12058   1.871  11.851  10.981
11194W        W12059   2.455  13.416  14.159
11195W        W12060   2.808  11.322  11.776
11196W        W12061   0.138  11.170  11.224
11197W        W12062   1.424  13.489  13.514
11198W        W12063   1.223  13.405  12.606
11199W        W12064   0.965  13.357  11.004
11200W        W12065   0.206  13.598  11.772
11201W        W12066   0.710  12.668  14.214
11202W        W12067   1.414  11.228  14.400
11203W        W12068   2.123  11.370  13.756
11204W        W12069   1.318  11.138  12.037
11205W        W12070   2.377  11.215  11.542
11206W        W12071   0.322  11.147  13.119
11207W        W12072   0.370  12.110  12.489
11208W        W12073   3.059  11.218  12.895
11209W        W12074   0.481  11.716  11.709
11210W        W12075   3.052  11.404  13.325
11211W        W12076   3.448  12.607  11.010
11212W        W12077   0.740  11.365  12.829
11213W        W12078   1.854  11.937  13.769
11214W        W12079   0.002  11.627  11.247
11215W        W12080   0.788  13.016  13.808
11216W        W12081   2.146  12.414  12.987
11217W        W12082   2.013  14.493  11.283
11218W        W12083   0.159  13.000  10.980
11219W        W12084   0.894  13.411  14.106
11220W        W12085   0.415  12.578  13.737
11221W        W12086   1.406  12.683  13.531
11222W        W12087   3.174  11.042  13.793
11223W        W12088   3.572  12.652  13.784
11224W        W12089   3.560  12.852  11.470
11225W        W12090   2.423  13.184  11.569
11226W        W12091   2.897  14.484  11.264
11227W        W12092   2.074  12.474  14.406
11228W        W12093   0.404  13.441  14.446
11229W        W12094   3.610  11.363  14.398
11230W        W12095   3.328  12.291  13.019
11231W        W12096   1.636  14.421  14.496
11232W        W12097   1.491  11.050  11.223
11233W        W12098   3.030  13.649  11.166
11234W        W12099   0.799  11.742  14.052
11235W        W12100   1.233  13.736  13.914
11236W        W12101   3.359  11.727  13.712
11237W        W12102   2.570  14.386  11.680
11238W        W12103   2.809  13.005  13.047
11239W        W12104   1.059  11.421  13.714
11240W        W12105   1.528  12.490  14.471
11241W        W12106   1.031  13.669  11.665
11242W        W12107   2.786  13.167  11.929
11243W        W12108   0.554  11.793  13.653
11244W        W12109   1.883  13.855  12.117
11245W        W12110   3.633  12.415  12.298
11246W        W12111   1.855  11.048  14.017
11247W        W12112   2.635  13.753  13.096
11248W        W12113   2.938  14.097  12.804
11249W        W12114   2.157  13.899  11.232
11250W        W12115   0.167  13.791  14.074
11251W        W12116   0.910  11.783  13.312
11252W        W12117   0.880  11.131  12.422
11253W        W12118   2.501  11.973  13.114
11254W        W12119   1.299  13.144  11.314
11255W        W12120   3.297  13.086  12.813
11256W        W12121   0.624  13.844  14.236
11257W        W12122   3.011  14.526  12.033
11258W        W12123   1.110  11.546  12.478
11259W        W12124   0.879  13.039  12.568
11260W        W12125   1.192  14.450  13.318
11261W        W12126   3.259  14.546  14.350
11262W        W12127   2.418  12.734  13.283
11263W        W12128   0.267  12.532  11.198
11264W        W12129   3.401  14.190  11.895
11265W        W12130   3.238  11.514  11.514
11266W        W12131   1.377  11.033  13.917
11267W        W12132   3.083  13.835  12.375
11268W        W12133   3.112  12.391  12.280
11269W        W12134   1.229  12.064  12.496
11270W        W12135   1.474  12.326  13.820
11271W        W12136   2.585  13.479  13.683
11272W        W12137   1.235  11.933  13.795
11273W        W12138   1.214  14.399  12.411
11274W        W12139   0.531  14.358  14.045
11275W        W12140   0.643  13.719  11.175
11276W        W12141   3.160  13.477  11.985
11277W        W12142   0.764  12.269  13.871
11278W        W12143   3.537  12.199  11.352
11279W        W12144   1.282  13.256  11.823
11280W        W12145   2.381  12.638  13.904
11281W        W12146   2.272  12.266  13.448
11282W        W12147   0.832  12.638  13.477
11283W        W12148   3.042  14.526  13.306
11284W        W12149   2.833  11.160  14.300
11285W        W12150   0.497  11.310  13.887
11286W        W12151   0.836  12.333  12.940
11287W        W12152   1.205  12.147  11.062
11288W        W12153   0.008  13.906  13.607
11289W        W12154   1.593  12.615  13.050
11290W        W12155   1.416  11.640  11.155
11291W        W12156   0.551  12.456  11.936
11292W        W12157   0.322  14.308  13.373
11293W        W12158   3.117  12.534  11.481
11294W        W12159   3.212  11.450  14.167
11295W        W12160   2.648  13.659  12.130
11296W        W12161   0.246  12.583  14.307
11297W        W12162   3.212  11.047  11.603
11298W        W12163   2.732  13.522  11.614
11299W        W12164   1.634  12.580  11.699
11300W        W12165   2.821  11.384  11.222
11301W        W12166   2.886  11.991  13.408
11302W        W12167   0.595  12.584  12.615
11303W        W12168   0.889  13.523  12.264
11304W        W12169   2.652  12.143  12.229
11305W        W12170   1.675  11.522  12.925
11306W        W12171   3.637  13.433  13.436
11307W        W12172   3.555  11.420  12.997
11308W        W12173   0.094  14.250  12.373
11309W        W12174   0.603  13.437  11.909
11310W        W12175   0.518  11.054  14.462
11311W        W12176   1.637  13.907  14.564
11312W        W12177   3.392  12.875  12.354
11313W        W12178   2.746  13.052  11.234
11314W        W12179   2.041  14.573  13.446
11315W        W12180   2.898  13.295  14.483
11316W        W12181   1.713  11.005  11.763
11317W        W12182   2.426  11.874  12.622
11318W        W12183   0.112  13.461  12.954
11319W        W12184   1.365  11.423  11.595
11320W        W12185   1.169  12.907  14.444
11321W        W12186   2.163  11.888  12.158
11322W        W12187   2.368  13.298  13.280
11323W        W12188   0.522  13.903  13.715
11324W        W12189   1.113  13.886  14.438
11325W        W12190   0.964  11.683  11.452
11326W        W12191   2.481  11.825  11.777
11327W        W12192   2.439  13.933  14.014
11328W        W12193   1.124  12.525  12.613
11329W        W12194   0.779  14.223  13.478
11330W        W12195   3.524  14.340  11.079
11331W        W12196   0.387  13.012  14.075
11332W        W12197   2.382  13.274  12.763
11333W        W12198   0.818  12.923  12.005
11334W        W12199   1.189  13.930  13.400
11335W        W12200   1.567  11.349  12.441
11336W        W12201   0.178  13.333  11.371
11337W        W12202   1.697  12.284  11.241
11338W        W12203   0.343  12.833  12.260
11339W        W12204   1.633  11.475  13.724
11340W        W12205   3.305  11.184  11.151
11341W        W12206   3.398  12.930  14.250
11342W        W12207   2.052  14.187  14.402
11343W        W12208   3.610  13.281  13.924
11344W        W12209   3.018  14.079  14.535
11345W        W12210   0.757  14.535  13.013
11346W        W12211   3.616  13.157  11.887
11347W        W12212   2.146  12.424  12.400
11348W        W12213   1.913  11.036  12.290
11349W        W12214   0.972  14.020  12.127
11350W        W12215   1.471  11.761  13.352
11351W        W12216   1.171  11.130  12.821
11352W        W12217   0.234  13.952  11.369
11353W        W12218   2.050  13.316  12.087
11354W        W12219   0.925  14.111  13.966
11355W        W12220   0.402  12.934  11.662
11356W        W12221   0.287  11.477  12.661
11357W        W12222   1.835  13.442  12.718
11358W        W12223   0.087  11.296  11.738
11359W        W12224   2.751  12.502  13.665
11360W        W12225   2.628  11.888  11.237
11361W        W12226   3.145  13.560  12.885
11362W        W12227   1.806  14.044  12.716
11363W        W12228   1.218  14.148  11.627
11364W        W12229   2.500  11.051  11.057
11365W        W12230   0.300  14.311  12.798
11366W        W12231   2.497  12.069  14.433
11367W        W12232   0.480  11.599  14.432
11368W        W12233   0.211  12.199  11.765
11369W        W12234   0.902  12.188  11.490
11370W        W12235   2.665  12.515  14.307
11371W        W12236   1.008  12.796  13.016
11372W        W12237   2.482  11.082  12.136
11373W        W12238   1.613  14.513  12.639
11374W        W12239   2.827  13.975  13.576
11375W        W12240   2.411  14.124  12.687
11376W        W12241   2.430  13.104  12.281
11377W        W12242   1.892  11.329  11.352
11378W        W12243   3.573  10.957  12.074
11379W        W12244   1.261  12.592  11.237
11380W        W12245   3.427  11.929  12.227
11381W        W12246   2.119  13.099  11.104
11382W        W12247   3.055  13.299  13.852
11383W        W12248   2.709  14.000  11.319
11384W        W12249   1.324  11.675  14.225
11385W        W12250   1.144  12.259  13.466
11386W        W12251   3.236  13.754  13.743
11387W        W12252   2.336  11.704  14.120
11388W        W12253   0.180  12.175  13.897
11389W        W12254   1.940  12.652  13.623
11390W        W12255   0.297  13.410  12.280
11391W        W12256   0.444  12.707  13.170
11392W        W12257   2.761  12.993  13.520
11393W        W12258   2.533  14.373  14.331
11394W        W12259   2.429  12.112  13.884
11395W        W12260   2.706  14.166  12.289
11396W        W12261   1.708  13.886  13.612
11397W        W12262   1.193  14.241  12.881
11398W        W12263   2.998  13.412  13.300
11399W        W12264   2.048  13.484  14.437
11400W        W12265   0.653  13.437  12.776
11401W        W12266   2.999  13.196  12.421
11402W        W12267   2.640  14.262  13.172
11403W        W12268   0.618  13.991  13.042
11404W        W12269   1.639  12.043  14.252
11405W        W12270   2.090  14.209  11.763
11406W        W12271   1.398  13.464  14.401
11407W        W12272   1.524  13.702  11.778
11408W        W12273   0.745  12.442  11.037
11409W        W12274   0.084  14.528  17.936
11410W        W12275   0.460  13.421  17.459
11411W        W12276   3.165  13.151  15.229
11412W        W12277   3.295  14.236  17.256
11413W        W12278   1.213  14.227  14.782
11414W        W12279   1.296  12.379  15.765
11415W        W12280   0.811  12.227  15.929
11416W        W12281   1.802  13.042  15.363
11417W        W12282   1.477  14.134  17.718
11418W        W12283   0.126  11.695  17.681
11419W        W12284   0.888  10.975  17.483
11420W        W12285   2.582  11.363  16.370
11421W        W12286   2.231  12.234  14.940
11422W        W12287   2.801  11.668  18.031
11423W        W12288   0.167  11.460  17.156
11424W        W12289   0.266  14.079  18.177
11425W        W12290   1.788  13.469  14.909
11426W        W12291   0.220  12.252  16.602
11427W        W12292   1.113  12.143  17.839
11428W        W12293   3.572  12.002  16.338
11429W        W12294   3.336  13.045  17.197
11430W        W12295   1.644  12.378  16.224
11431W        W12296   2.190  13.717  16.593
11432W        W12297   0.690  13.151  16.825
11433W        W12298   0.049  12.679  16.396
11434W        W12299   1.085  12.651  17.588
11435W        W12300   3.356  12.434  17.842
11436W        W12301   0.972  13.878  16.287
11437W        W12302   2.093  13.567  17.421
11438W        W12303   1.313  12.207  16.646
11439W        W12304   1.605  12.991  16.289
11440W        W12305   2.602  13.764  18.137
11441W        W12306   1.681  13.084  18.147
11442W        W12307   1.662  12.800  17.625
11443W        W12308   0.071  12.191  18.147
11444W        W12309   2.903  13.726  17.746
11445W        W12310   0.484  11.308  15.744
11446W        W12311   1.011  13.566  16.743
11447W        W12312   3.474  13.349  16.033
11448W        W12313   2.887  11.749  16.600
11449W        W12314   3.172  11.702  14.695
11450W        W12315   3.637  12.503  17.001
11451W        W12316   1.604  14.210  16.754
11452W        W12317   3.378  13.676  15.192
11453W        W12318   0.507  14.462  14.946
11454W        W12319   0.900  14.508  15.622
11455W        W12320   0.697  11.262  17.048
11456W        W12321   3.320  12.280  17.323
11457W        W12322   2.725  12.702  15.782
11458W        W12323   2.691  12.390  14.809
11459W        W12324   1.899  13.534  16.949
11460W        W12325   1.705  11.864  16.148
11461W        W12326   2.305  13.951  17.142
11462W        W12327   3.176  12.742  15.564
11463W        W12328   2.078  11.400  15.580
11464W        W12329   0.735  14.094  15.263
11465W        W12330   0.106  11.593  15.862
11466W        W12331   2.892  12.200  16.336
11467W        W12332   0.350  13.817  16.251
11468W        W12333   1.691  14.167  15.121
11469W        W12334   3.083  12.193  14.585
11470W        W12335   0.106  13.951  16.749
11471W        W12336   0.897  13.523  17.229
11472W        W12337   1.270  12.883  15.848
11473W        W12338   1.292  11.288  16.941
11474W        W12339   3.521  11.050  16.238
11475W        W12340   0.740  12.922  14.706
11476W        W12341   0.395  11.955  14.885
11477W        W12342   0.457  13.911  15.679
11478W        W12343   1.588  13.394  15.927
11479W        W12344   2.920  14.253  17.641
11480W        W12345   1.846  11.895  15.325
11481W        W12346   3.229  14.293  16.097
11482W        W12347   2.906  12.146  17.695
11483W        W12348   3.619  13.802  15.829
11484W        W12349   2.246  13.094  17.313
11485W        W12350   0.012  12.645  15.519
11486W        W12351   1.123  13.060  17.092
11487W        W12352   2.327  12.324  15.470
11488W        W12353   2.204  12.814  15.574
11489W        W12354   0.547  12.234  17.048
11490W        W12355   0.532  12.110  17.970
11491W        W12356   0.422  11.027  16.129
11492W        W12357   2.190  11.374  16.690
11493W        W12358   1.838  11.559  17.853
11494W        W12359   2.193  11.708  15.031
11495W        W12360   3.376  14.101  17.785
11496W        W12361   2.343  11.182  17.824
11497W        W12362   3.362  13.483  17.946
11498W        W12363   2.792  11.650  17.542
11499W        W12364   2.592  11.588  15.812
11500W        W12365   2.985  12.722  18.216
11501W        W12366   0.725  14.298  16.202
11502W        W12367   1.383  12.015  15.188
11503W        W12368   0.952  11.299  17.852
11504W        W12369   3.004  11.783  15.533
11505W        W12370   3.371  12.265  15.478
11506W        W12371   1.114  14.482  17.949
11507W        W12372   1.040  11.018  15.184
11508W        W12373   3.361  11.552  16.219
11509W        W12374   3.511  13.801  14.664
11510W        W12375   0.418  13.004  16.366
11511W        W12376   2.335  11.591  14.596
11512W        W12377   3.469  13.923  16.316
11513W        W12378   3.508  11.117  17.066
11514W        W12379   1.953  12.329  17.620
11515W        W12380   2.046  13.668  15.323
11516W        W12381   2.446  12.962  18.063
11517W        W12382   2.120  10.939  16.372
11518W        W12383   0.732  11.842  16.435
11519W        W12384   0.286  13.042  17.209
11520W        W12385   2.145  14.235  15.915
11521W        W12386   3.339  11.832  16.787
11522W        W12387   1.976  14.179  17.554
11523W        W12388   3.319  13.238  14.759
11524W        W12389   1.754  12.721  15.820
11525W        W12390   3.606  11.232  17.561
11526W        W12391   1.755  13.067  17.155
11527W        W12392   1.972  11.953  16.600
11528W        W12393   2.824  12.251  15.438
11529W        W12394   3.111  11.984  15.080
11530W        W12395   2.920  14.024  15.469
11531W        W12396   2.754  13.627  16.265
11532W        W12397   2.650  12.706  15.243
11533W        W12398   2.083  12.916  16.229
11534W        W12399   2.964  12.704  16.296
11535W        W12400   0.339  11.719  16.720
11536W        W12401   3.117  12.771  17.547
11537W        W12402   3.468  14.389  16.693
11538W        W12403   1.398  13.833  16.095
11539W        W12404   2.405  14.366  17.419
11540W        W12405   2.399  11.696  17.183
11541W        W12406   1.606  14.404  17.244
11542W        W12407   3.303  11.358  15.710
11543W        W12408   3.094  12.677  17.011
11544W        W12409   0.077  11.998  17.049
11545W        W12410   2.937  11.793  16.067
11546W        W12411   3.348  11.944  17.844
11547W        W12412   2.233  13.643  16.062
11548W        W12413   1.489  14.234  15.675
11549W        W12414   0.604  11.414  14.933
11550W        W12415   1.708  11.068  16.743
11551W        W12416   0.736  14.188  14.591
11552W        W12417   1.110  12.654  15.342
11553W        W12418   1.764  13.283  17.655
11554W        W12419   1.594  11.641  15.645
11555W        W12420   2.950  11.238  16.073
11556W        W12421   2.670  14.520  16.401
11557W        W12422   2.082  14.168  16.741
11558W        W12423   1.478  13.205  16.702
11559W        W12424   3.248  13.928  16.828
11560W        W12425   0.942  11.431  15.597
11561W        W12426   1.464  13.728  16.557
11562W        W12427   0.947  11.659  14.622
11563W        W12428   1.748  12.268  17.016
11564W        W12429   2.596  11.134  16.886
11565W        W12430   0.016  12.977  16.771
11566W        W12431   1.720  12.795  14.929
11567W        W12432   0.988  11.110  14.699
11568W        W12433   1.726  12.191  15.750
11569W        W12434   2.696  11.167  17.449
11570W        W12435   1.284  13.179  17.558
11571W        W12436   2.088  12.961  17.775
11572W        W12437   2.705  12.991  17.668
11573W        W12438   1.989  11.131  18.173
11574W        W12439   1.211  11.747  16.566
11575W        W12440   0.637  11.703  15.964
11576W        W12441   0.423  14.415  15.640
11577W        W12442   1.755  13.745  17.765
11578W        W12443   0.790  13.230  15.124
11579W        W12444   2.470  12.615  16.345
11580W        W12445   2.750  12.414  16.744
11581W        W12446   1.955  13.088  16.678
11582W        W12447   2.425  13.462  14.810
11583W        W12448   2.097  11.483  16.138
11584W        W12449   3.576  11.761  15.406
11585W        W12450   0.070  14.350  17.437
11586W        W12451   0.487  13.576  16.969
11587W        W12452   0.054  14.422  15.201
11588W        W12453   1.953  11.692  17.007
11589W        W12454   1.316  13.715  14.856
11590W        W12455   3.221  14.097  15.042
11591W        W12456   2.196  12.750  15.056
11592W        W12457   1.039  11.941  15.573
11593W        W12458   1.871  11.851  14.625
11594W        W12459   2.455  13.416  17.803
11595W        W12460   2.808  11.322  15.420
11596W        W12461   0.138  11.170  14.868
11597W        W12462   1.424  13.489  17.158
11598W        W12463   1.223  13.405  16.250
11599W        W12464   0.965  13.357  14.648
11600W        W12465   0.206  13.598  15.416
11601W        W12466   0.710  12.668  17.858
11602W        W12467   1.414  11.228  18.044
11603W        W12468   2.123  11.370  17.400
11604W        W12469   1.318  11.138  15.681
11605W        W12470   2.377  11.215  15.186
11606W        W12471   0.322  11.147  16.763
11607W        W12472   0.370  12.110  16.133
11608W        W12473   3.059  11.218  16.539
11609W        W12474   0.481  11.716  15.353
11610W        W12475   3.052  11.404  16.969
11611W        W12476   3.448  12.607  14.654
11612W        W12477   0.740  11.365  16.473
11613W        W12478   1.854  11.937  17.413
11614W        W12479   0.002  11.627  14.891
11615W        W12480   0.788  13.016  17.452
11616W        W12481   2.146  12.414  16.631
11617W        W12482   2.013  14.493  14.927
11618W        W12483   0.159  13.000  14.624
11619W        W12484   0.894  13.411  17.750
11620W        W12485   0.415  12.578  17.381
11621W        W12486   1.406  12.683  17.175
11622W        W12487   3.174  11.042  17.437
11623W        W12488   3.572  12.652  17.428
11624W        W12489   3.560  12.852  15.114
11625W        W12490   2.423  13.184  15.213
11626W        W12491   2.897  14.484  14.908
11627W        W12492   2.074  12.474  18.050
11628W        W12493   0.404  13.441  18.090
11629W        W12494   3.610  11.363  18.042
11630W        W12495   3.328  12.291  16.663
11631W        W12496   1.636  14.421  18.140
11632W        W12497   1.491  11.050  14.867
11633W        W12498   3.030  13.649  14.810
11634W        W12499   0.799  11.742  17.696
11635W        W12500   1.233  13.736  17.558
11636W        W12501   3.359  11.727  17.356
11637W        W12502   2.570  14.386  15.324
11638W        W12503   2.809  13.005  16.691
11639W        W12504   1.059  11.421  17.358
11640W        W12505   1.528  12.490  18.115
11641W        W12506   1.031  13.669  15.309
11642W        W12507   2.786  13.167  15.573
11643W        W12508   0.554  11.793  17.297
11644W        W12509   1.883  13.855  15.761
11645W        W12510   3.633  12.415  15.942
11646W        W12511   1.855  11.048  17.661
11647W        W12512   2.635  13.753  16.740
11648W        W12513   2.938  14.097  16.448
11649W        W12514   2.157  13.899  14.876
11650W        W12515   0.167  13.791  17.718
11651W        W12516   0.910  11.783  16.956
11652W        W12517   0.880  11.131  16.066
11653W        W12518   2.501  11.973  16.758
11654W        W12519   1.299  13.144  14.958
11655W        W12520   3.297  13.086  16.457
11656W        W12521   0.624  13.844  17.880
11657W        W12522   3.011  14.526  15.677
11658W        W12523   1.110  11.546  16.122
11659W        W12524   0.879  13.039  16.212
11660W        W12525   1.192  14.450  16.962
11661W        W12526   3.259  14.546  17.994
11662W        W12527   2.418  12.734  16.927
11663W        W12528   0.267  12.532  14.842
11664W        W12529   3.401  14.190  15.539
11665W        W12530   3.238  11.514  15.158
11666W        W12531   1.377  11.033  17.561
11667W        W12532   3.083  13.835  16.019
11668W        W12533   3.112  12.391  15.924
11669W        W12534   1.229  12.064  16.140
11670W        W12535   1.474  12.326  17.464
11671W        W12536   2.585  13.479  17.327
11672W        W12537   1.235  11.933  17.439
11673W        W12538   1.214  14.399  16.055
11674W        W12539   0.531  14.358  17.689
11675W        W12540   0.643  13.719  14.819
11676W        W12541   3.160  13.477  15.629
11677W        W12542   0.764  12.269  17.515
11678W        W12543   3.537  12.199  14.996
11679W        W12544   1.282  13.256  15.467
11680W        W12545   2.381  12.638  17.548
11681W        W12546   2.272  12.266  17.092
11682W        W12547   0.832  12.638  17.121
11683W        W12548   3.042  14.526  16.950
11684W        W12549   2.833  11.160  17.944
11685W        W12550   0.497  11.310  17.531
11686W        W12551   0.836  12.333  16.584
11687W        W12552   1.205  12.147  14.706
11688W        W12553   0.008  13.906  17.251
11689W        W12554   1.593  12.615  16.694
11690W        W12555   1.416  11.640  14.799
11691W        W12556   0.551  12.456  15.580
11692W        W12557   0.322  14.308  17.017
11693W        W12558   3.117  12.534  15.125
11694W        W12559   3.212  11.450  17.811
11695W        W12560   2.648  13.659  15.774
11696W        W12561   0.246  12.583  17.951
11697W        W12562   3.212  11.047  15.247
11698W        W12563   2.732  13.522  15.258
11699W        W12564   1.634  12.580  15.343
11700W        W12565   2.821  11.384  14.866
11701W        W12566   2.886  11.991  17.052
11702W        W12567   0.595  12.584  16.259
11703W        W12568   0.889  13.523  15.908
11704W        W12569   2.652  12.143  15.873
11705W        W12570   1.675  11.522  16.569
11706W        W12571   3.637  13.433  17.080
11707W        W12572   3.555  11.420  16.641
11708W        W12573   0.094  14.250  16.017
11709W        W12574   0.603  13.437  15.553
11710W        W12575   0.518  11.054  18.106
11711W        W12576   1.637  13.907  18.208
11712W        W12577   3.392  12.875  15.998
11713W        W12578   2.746  13.052  14.878
11714W        W12579   2.041  14.573  17.090
11715W        W12580   2.898  13.295  18.127
11716W        W12581   1.713  11.005  15.407
11717W        W12582   2.426  11.874  16.266
11718W        W12583   0.112  13.461  16.598
11719W        W12584   1.365  11.423  15.239
11720W        W12585   1.169  12.907  18.088
11721W        W12586   2.163  11.888  15.802
11722W        W12587   2.368  13.298  16.924
11723W        W12588   0.522  13.903  17.359
11724W        W12589   1.113  13.886  18.082
11725W        W12590   0.964  11.683  15.096
11726W        W12591   2.481  11.825  15.421
11727W        W12592   2.439  13.933  17.658
11728W        W12593   1.124  12.525  16.257
11729W        W12594   0.779  14.223  17.122
11730W        W12595   3.524  14.340  14.723
11731W        W12596   0.387  13.012  17.719
11732W        W12597   2.382  13.274  16.407
11733W        W12598   0.818  12.923  15.649
11734W        W12599   1.189  13.930  17.044
11735W        W12600   1.567  11.349  16.085
11736W        W12601   0.178  13.333  15.015
11737W        W12602   1.697  12.284  14.885
11738W        W12603   0.343  12.833  15.904
11739W        W12604   1.633  11.475  17.368
11740W        W12605   3.305  11.184  14.795
11741W        W12606   3.398  12.930  17.894
11742W        W12607   2.052  14.187  18.046
11743W        W12608   3.610  13.281  17.568
11744W        W12609   3.018  14.079  18.179
11745W        W12610   0.757  14.535  16.657
11746W        W12611   3.616  13.157  15.531
11747W        W12612   2.146  12.424  16.044
11748W        W12613   1.913  11.036  15.934
11749W        W12614   1.471  11.761  16.996
11750W        W12615   1.171  11.130  16.465
11751W        W12616   0.234  13.952  15.013
11752W        W12617   2.050  13.316  15.731
11753W        W12618   0.925  14.111  17.610
11754W        W12619   0.402  12.934  15.306
11755W        W12620   0.287  11.477  16.305
11756W        W12621   1.835  13.442  16.362
11757W        W12622   0.087  11.296  15.382
11758W        W12623   2.751  12.502  17.309
11759W        W12624   2.628  11.888  14.881
11760W        W12625   3.145  13.560  16.529
11761W        W12626   1.806  14.044  16.360
11762W        W12627   1.218  14.148  15.271
11763W        W12628   2.500  11.051  14.701
11764W        W12629   0.300  14.311  16.442
11765W        W12630   2.497  12.069  18.077
11766W        W12631   0.480  11.599  18.076
11767W        W12632   0.211  12.199  15.409
11768W        W12633   0.902  12.188  15.134
11769W        W12634   2.665  12.515  17.951
11770W        W12635   1.008  12.796  16.660
11771W        W12636   2.482  11.082  15.780
11772W        W12637   1.613  14.513  16.283
11773W        W12638   2.827  13.975  17.220
11774W        W12639   2.411  14.124  16.331
11775W        W12640   2.430  13.104  15.925
11776W        W12641   1.892  11.329  14.996
11777W        W12642   3.573  10.957  15.718
11778W        W12643   1.261  12.592  14.881
11779W        W12644   3.427  11.929  15.871
11780W        W12645   2.119  13.099  14.748
11781W        W12646   3.055  13.299  17.496
11782W        W12647   2.709  14.000  14.963
11783W        W12648   1.324  11.675  17.869
11784W        W12649   1.144  12.259  17.110
11785W        W12650   3.236  13.754  17.387
11786W        W12651   2.336  11.704  17.764
11787W        W12652   0.180  12.175  17.541
11788W        W12653   1.940  12.652  17.267
11789W        W12654   0.297  13.410  15.924
11790W        W12655   0.444  12.707  16.814
11791W        W12656   2.761  12.993  17.164
11792W        W12657   2.533  14.373  17.975
11793W        W12658   2.429  12.112  17.528
11794W        W12659   2.706  14.166  15.933
11795W        W12660   1.708  13.886  17.256
11796W        W12661   1.193  14.241  16.525
11797W        W12662   2.998  13.412  16.944
11798W        W12663   2.048  13.484  18.081
11799W        W12664   0.653  13.437  16.420
11800W        W12665   2.999  13.196  16.065
11801W        W12666   2.640  14.262  16.816
11802W        W12667   0.618  13.991  16.686
11803W        W12668   1.639  12.043  17.896
11804W        W12669   2.090  14.209  15.407
11805W        W12670   1.398  13.464  18.045
11806W        W12671   1.524  13.702  15.422
11807W        W12672   0.745  12.442  14.681
11808W        W12673   0.084  14.528  21.580
11809W        W12674   0.460  13.421  21.103
11810W        W12675   3.165  13.151  18.873
11811W        W12676   3.295  14.236  20.900
11812W        W12677   1.213  14.227  18.426
11813W        W12678   1.296  12.379  19.409
11814W        W12679   0.811  12.227  19.573
11815W        W12680   1.802  13.042  19.007
11816W        W12681   1.477  14.134  21.362
11817W        W12682   0.126  11.695  21.325
11818W        W12683   0.888  10.975  21.127
11819W        W12684   2.582  11.363  20.014
11820W        W12685   2.231  12.234  18.584
11821W        W12686   2.801  11.668  21.675
11822W        W12687   0.167  11.460  20.800
11823W        W12688   0.266  14.079  21.821
11824W        W12689   1.788  13.469  18.553
11825W        W12690   0.220  12.252  20.246
11826W        W12691   1.113  12.143  21.483
11827W        W12692   3.572  12.002  19.982
11828W        W12693   3.336  13.045  20.841
11829W        W12694   1.644  12.378  19.868
11830W        W12695   2.190  13.717  20.237
11831W        W12696   0.690  13.151  20.469
11832W        W12697   0.049  12.679  20.040
11833W        W12698   1.085  12.651  21.232
11834W        W12699   3.356  12.434  21.486
11835W        W12700   0.972  13.878  19.931
11836W        W12701   2.093  13.567  21.065
11837W        W12702   1.313  12.207  20.290
11838W        W12703   1.605  12.991  19.933
11839W        W12704   2.602  13.764  21.781
11840W        W12705   1.681  13.084  21.791
11841W        W12706   1.662  12.800  21.269
11842W        W12707   0.071  12.191  21.791
11843W        W12708   2.903  13.726  21.390
11844W        W12709   0.484  11.308  19.388
11845W        W12710   1.011  13.566  20.387
11846W        W12711   3.474  13.349  19.677
11847W        W12712   2.887  11.749  20.244
11848W        W12713   3.172  11.702  18.339
11849W        W12714   3.637  12.503  20.645
11850W        W12715   1.604  14.210  20.398
11851W        W12716   3.378  13.676  18.836
11852W        W12717   0.507  14.462  18.590
11853W        W12718   0.900  14.508  19.266
11854W        W12719   0.697  11.262  20.692
11855W        W12720   3.320  12.280  20.967
11856W        W12721   2.725  12.702  19.426
11857W        W12722   2.691  12.390  18.453
11858W        W12723   1.899  13.534  20.593
11859W        W12724   1.705  11.864  19.792
11860W        W12725   2.305  13.951  20.786
11861W        W12726   3.176  12.742  19.208
11862W        W12727   2.078  11.400  19.224
11863W        W12728   0.735  14.094  18.907
11864W        W12729   0.106  11.593  19.506
11865W        W12730   2.892  12.200  19.980
11866W        W12731   0.350  13.817  19.895
11867W        W12732   1.691  14.167  18.765
11868W        W12733   3.083  12.193  18.229
11869W        W12734   0.106  13.951  20.393
11870W        W12735   0.897  13.523  20.873
11871W        W12736   1.270  12.883  19.492
11872W        W12737   1.292  11.288  20.585
11873W        W12738   3.521  11.050  19.882
11874W        W12739   0.740  12.922  18.350
11875W        W12740   0.395  11.955  18.529
11876W        W12741   0.457  13.911  19.323
11877W        W12742   1.588  13.394  19.571
11878W        W12743   2.920  14.253  21.285
11879W        W12744   1.846  11.895  18.969
11880W        W12745   3.229  14.293  19.741
11881W        W12746   2.906  12.146  21.339
11882W        W12747   3.619  13.802  19.473
11883W        W12748   2.246  13.094  20.957
11884W        W12749   0.012  12.645  19.163
11885W        W12750   1.123  13.060  20.736
11886W        W12751   2.327  12.324  19.114
11887W        W12752   2.204  12.814  19.218
11888W        W12753   0.547  12.234  20.692
11889W        W12754   0.532  12.110  21.614
11890W        W12755   0.422  11.027  19.773
11891W        W12756   2.190  11.374  20.334
11892W        W12757   1.838  11.559  21.497
11893W        W12758   2.193  11.708  18.675
11894W        W12759   3.376  14.101  21.429
11895W        W12760   2.343  11.182  21.468
11896W        W12761   3.362  13.483  21.590
11897W        W12762   2.792  11.650  21.186
11898W        W12763   2.592  11.588  19.456
11899W        W12764   2.985  12.722  21.860
11900W        W12765   0.725  14.298  19.846
11901W        W12766   1.383  12.015  18.832
11902W        W12767   0.952  11.299  21.496
11903W        W12768   3.004  11.783  19.177
11904W        W12769   3.371  12.265  19.122
11905W        W12770   1.114  14.482  21.593
11906W        W12771   1.040  11.018  18.828
11907W        W12772   3.361  11.552  19.863
11908W        W12773   3.511  13.801  18.308
11909W        W12774   0.418  13.004  20.010
11910W        W12775   2.335  11.591  18.240
11911W        W12776   3.469  13.923  19.960
11912W        W12777   3.508  11.117  20.710
11913W        W12778   1.953  12.329  21.264
11914W        W12779   2.046  13.668  18.967
11915W        W12780   2.446  12.962  21.707
11916W        W12781   2.120  10.939  20.016
11917W        W12782   0.732  11.842  20.079
11918W        W12783   0.286  13.042  20.853
11919W        W12784   2.145  14.235  19.559
11920W        W12785   3.339  11.832  20.431
11921W        W12786   1.976  14.179  21.198
11922W        W12787   3.319  13.238  18.403
11923W        W12788   1.754  12.721  19.464
11924W        W12789   3.606  11.232  21.205
11925W        W12790   1.755  13.067  20.799
11926W        W12791   1.972  11.953  20.244
11927W        W12792   2.824  12.251  19.082
11928W        W12793   3.111  11.984  18.724
11929W        W12794   2.920  14.024  19.113
11930W        W12795   2.754  13.627  19.909
11931W        W12796   2.650  12.706  18.887
11932W        W12797   2.083  12.916  19.873
11933W        W12798   2.964  12.704  19.940
11934W        W12799   0.339  11.719  20.364
11935W        W12800   3.117  12.771  21.191
11936W        W12801   3.468  14.389  20.337
11937W        W12802   1.398  13.833  19.739
11938W        W12803   2.405  14.366  21.063
11939W        W12804   2.399  11.696  20.827
11940W        W12805   1.606  14.404  20.888
11941W        W12806   3.303  11.358  19.354
11942W        W12807   3.094  12.677  20.655
11943W        W12808   0.077  11.998  20.693
11944W        W12809   2.937  11.793  19.711
11945W        W12810   3.348  11.944  21.488
11946W        W12811   2.233  13.643  19.706
11947W        W12812   1.489  14.234  19.319
11948W        W12813   0.604  11.414  18.577
11949W        W12814   1.708  11.068  20.387
11950W        W12815   0.736  14.188  18.235
11951W        W12816   1.110  12.654  18.986
11952W        W12817   1.764  13.283  21.299
11953W        W12818   1.594  11.641  19.289
11954W        W12819   2.950  11.238  19.717
11955W        W12820   2.670  14.520  20.045
11956W        W12821   2.082  14.168  20.385
11957W        W12822   1.478  13.205  20.346
11958W        W12823   3.248  13.928  20.472
11959W        W12824   0.942  11.431  19.241
11960W        W12825   1.464  13.728  20.201
11961W        W12826   0.947  11.659  18.266
11962W        W12827   1.748  12.268  20.660
11963W        W12828   2.596  11.134  20.530
11964W        W12829   0.016  12.977  20.415
11965W        W12830   1.720  12.795  18.573
11966W        W12831   0.988  11.110  18.343
11967W        W12832   1.726  12.191  19.394
11968W        W12833   2.696  11.167  21.093
11969W        W12834   1.284  13.179  21.202
11970W        W12835   2.088  12.961  21.419
11971W        W12836   2.705  12.991  21.312
11972W        W12837   1.989  11.131  21.817
11973W        W12838   1.211  11.747  20.210
11974W        W12839   0.637  11.703  19.608
11975W        W12840   0.423  14.415  19.284
11976W        W12841   1.755  13.745  21.409
11977W        W12842   0.790  13.230  18.768
11978W        W12843   2.470  12.615  19.989
11979W        W12844   2.750  12.414  20.388
11980W        W12845   1.955  13.088  20.322
11981W        W12846   2.425  13.462  18.454
11982W        W12847   2.097  11.483  19.782
11983W        W12848   3.576  11.761  19.050
11984W        W12849   0.070  14.350  21.081
11985W        W12850   0.487  13.576  20.613
11986W        W12851   0.054  14.422  18.845
11987W        W12852   1.953  11.692  20.651
11988W        W12853   1.316  13.715  18.500
11989W        W12854   3.221  14.097  18.686
11990W        W12855   2.196  12.750  18.700
11991W        W12856   1.039  11.941  19.217
11992W        W12857   1.871  11.851  18.269
11993W        W12858   2.455  13.416  21.447
11994W        W12859   2.808  11.322  19.064
11995W        W12860   0.138  11.170  18.512
11996W        W12861   1.424  13.489  20.802
11997W        W12862   1.223  13.405  19.894
11998W        W12863   0.965  13.357  18.292
11999W        W12864   0.206  13.598  19.060
12000W        W12865   0.710  12.668  21.502
12001W        W12866   1.414  11.228  21.688
12002W        W12867   2.123  11.370  21.044
12003W        W12868   1.318  11.138  19.325
12004W        W12869   2.377  11.215  18.830
12005W        W12870   0.322  11.147  20.407
12006W        W12871   0.370  12.110  19.777
12007W        W12872   3.059  11.218  20.183
12008W        W12873   0.481  11.716  18.997
12009W        W12874   3.052  11.404  20.613
12010W        W12875   3.448  12.607  18.298
12011W        W12876   0.740  11.365  20.117
12012W        W12877   1.854  11.937  21.057
12013W        W12878   0.002  11.627  18.535
12014W        W12879   0.788  13.016  21.096
12015W        W12880   2.146  12.414  20.275
12016W        W12881   2.013  14.493  18.571
12017W        W12882   0.159  13.000  18.268
12018W        W12883   0.894  13.411  21.394
12019W        W12884   0.415  12.578  21.025
12020W        W12885   1.406  12.683  20.819
12021W        W12886   3.174  11.042  21.081
12022W        W12887   3.572  12.652  21.072
12023W        W12888   3.560  12.852  18.758
12024W        W12889   2.423  13.184  18.857
12025W        W12890   2.897  14.484  18.552
12026W        W12891   2.074  12.474  21.694
12027W        W12892   0.404  13.441  21.734
12028W        W12893   3.610  11.363  21.686
12029W        W12894   3.328  12.291  20.307
12030W        W12895   1.636  14.421  21.784
12031W        W12896   1.491  11.050  18.511
12032W        W12897   3.030  13.649  18.454
12033W        W12898   0.799  11.742  21.340
12034W        W12899   1.233  13.736  21.202
12035W        W12900   3.359  11.727  21.000
12036W        W12901   2.570  14.386  18.968
12037W        W12902   2.809  13.005  20.335
12038W        W12903   1.059  11.421  21.002
12039W        W12904   1.528  12.490  21.759
12040W        W12905   1.031  13.669  18.953
12041W        W12906   2.786  13.167  19.217
12042W        W12907   0.554  11.793  20.941
12043W        W12908   1.883  13.855  19.405
12044W        W12909   3.633  12.415  19.586
12045W        W12910   1.855  11.048  21.305
12046W        W12911   2.635  13.753  20.384
12047W        W12912   2.938  14.097  20.092
12048W        W12913   2.157  13.899  18.520
12049W        W12914   0.167  13.791  21.362
12050W        W12915   0.910  11.783  20.600
12051W        W12916   0.880  11.131  19.710
12052W        W12917   2.501  11.973  20.402
12053W        W12918   1.299  13.144  18.602
12054W        W12919   3.297  13.086  20.101
12055W        W12920   0.624  13.844  21.524
12056W        W12921   3.011  14.526  19.321
12057W        W12922   1.110  11.546  19.766
12058W        W12923   0.879  13.039  19.856
12059W        W12924   1.192  14.450  20.606
12060W        W12925   3.259  14.546  21.638
12061W        W12926   2.418  12.734  20.571
12062W        W12927   0.267  12.532  18.486
12063W        W12928   3.401  14.190  19.183
12064W        W12929   3.238  11.514  18.802
12065W        W12930   1.377  11.033  21.205
12066W        W12931   3.083  13.835  19.663
12067W        W12932   3.112  12.391  19.568
12068W        W12933   1.229  12.064  19.784
12069W        W12934   1.474  12.326  21.108
12070W        W12935   2.585  13.479  20.971
12071W        W12936   1.235  11.933  21.083
12072W        W12937   1.214  14.399  19.699
12073W        W12938   0.531  14.358  21.333
12074W        W12939   0.643  13.719  18.463
12075W        W12940   3.160  13.477  19.273
12076W        W12941   0.764  12.269  21.159
12077W        W12942   3.537  12.199  18.640
12078W        W12943   1.282  13.256  19.111
12079W        W12944   2.381  12.638  21.192
12080W        W12945   2.272  12.266  20.736
12081W        W12946   0.832  12.638  20.765
12082W        W12947   3.042  14.526  20.594
12083W        W12948   2.833  11.160  21.588
12084W        W12949   0.497  11.310  21.175
12085W        W12950   0.836  12.333  20.228
12086W        W12951   1.205  12.147  18.350
12087W        W12952   0.008  13.906  20.895
12088W        W12953   1.593  12.615  20.338
12089W        W12954   1.416  11.640  18.443
12090W        W12955   0.551  12.456  19.224
12091W        W12956   0.322  14.308  20.661
12092W        W12957   3.117  12.534  18.769
12093W        W12958   3.212  11.450  21.455
12094W        W12959   2.648  13.659  19.418
12095W        W12960   0.246  12.583  21.595
12096W        W12961   3.212  11.047  18.891
12097W        W12962   2.732  13.522  18.902
12098W        W12963   1.634  12.580  18.987
12099W        W12964   2.821  11.384  18.510
12100W        W12965   2.886  11.991  20.696
12101W        W12966   0.595  12.584  19.903
12102W        W12967   0.889  13.523  19.552
12103W        W12968   2.652  12.143  19.517
12104W        W12969   1.675  11.522  20.213
12105W        W12970   3.637  13.433  20.724
12106W        W12971   3.555  11.420  20.285
12107W        W12972   0.094  14.250  19.661
12108W        W12973   0.603  13.437  19.197
12109W        W12974   0.518  11.054  21.750
12110W        W12975   1.637  13.907  21.852
12111W        W12976   3.392  12.875  19.642
12112W        W12977   2.746  13.052  18.522
12113W        W12978   2.041  14.573  20.734
12114W        W12979   2.898  13.295  21.771
12115W        W12980   1.713  11.005  19.051
12116W        W12981   2.426  11.874  19.910
12117W        W12982   0.112  13.461  20.242
12118W        W12983   1.365  11.423  18.883
12119W        W12984   1.169  12.907  21.732
12120W        W12985   2.163  11.888  19.446
12121W        W12986   2.368  13.298  20.568
12122W        W12987   0.522  13.903  21.003
12123W        W12988   1.113  13.886  21.726
12124W        W12989   0.964  11.683  18.740
12125W        W12990   2.481  11.825  19.065
12126W        W12991   2.439  13.933  21.302
12127W        W12992   1.124  12.525  19.901
12128W        W12993   0.779  14.223  20.766
12129W        W12994   3.524  14.340  18.367
12130W        W12995   0.387  13.012  21.363
12131W        W12996   2.382  13.274  20.051
12132W        W12997   0.818  12.923  19.293
12133W        W12998   1.189  13.930  20.688
12134W        W12999   1.567  11.349  19.729
12135W        W13000   0.178  13.333  18.659
12136W        W13001   1.697  12.284  18.529
12137W        W13002   0.343  12.833  19.548
12138W        W13003   1.633  11.475  21.012
12139W        W13004   3.305  11.184  18.439
12140W        W13005   3.398  12.930  21.538
12141W        W13006   2.052  14.187  21.690
12142W        W13007   3.610  13.281  21.212
12143W        W13008   3.018  14.079  21.823
12144W        W13009   0.757  14.535  20.301
12145W        W13010   3.616  13.157  19.175
12146W        W13011   2.146  12.424  19.688
12147W        W13012   1.913  11.036  19.578
12148W        W13013   0.972  14.020  19.415
12149W        W13014   1.471  11.761  20.640
12150W        W13015   1.171  11.130  20.109
12151W        W13016   0.234  13.952  18.657
12152W        W13017   2.050  13.316  19.375
12153W        W13018   0.925  14.111  21.254
12154W        W13019   0.402  12.934  18.950
12155W        W13020   0.287  11.477  19.949
12156W        W13021   1.835  13.442  20.006
12157W        W13022   0.087  11.296  19.026
12158W        W13023   2.751  12.502  20.953
12159W        W13024   2.628  11.888  18.525
12160W        W13025   3.145  13.560  20.173
12161W        W13026   1.806  14.044  20.004
12162W        W13027   1.218  14.148  18.915
12163W        W13028   2.500  11.051  18.345
12164W        W13029   0.300  14.311  20.086
12165W        W13030   2.497  12.069  21.721
12166W        W13031   0.480  11.599  21.720
12167W        W13032   0.211  12.199  19.053
12168W        W13033   0.902  12.188  18.778
12169W        W13034   2.665  12.515  21.595
12170W        W13035   1.008  12.796  20.304
12171W        W13036   2.482  11.082  19.424
12172W        W13037   1.613  14.513  19.927
12173W        W13038   2.827  13.975  20.864
12174W        W13039   2.411  14.124  19.975
12175W        W13040   2.430  13.104  19.569
12176W        W13041   1.892  11.329  18.640
12177W        W13042   3.573  10.957  19.362
12178W        W13043   1.261  12.592  18.525
12179W        W13044   3.427  11.929  19.515
12180W        W13045   2.119  13.099  18.392
12181W        W13046   3.055  13.299  21.140
12182W        W13047   2.709  14.000  18.607
12183W        W13048   1.324  11.675  21.513
12184W        W13049   1.144  12.259  20.754
12185W        W13050   3.236  13.754  21.031
12186W        W13051   2.336  11.704  21.408
12187W        W13052   0.180  12.175  21.185
12188W        W13053   1.940  12.652  20.911
12189W        W13054   0.297  13.410  19.568
12190W        W13055   0.444  12.707  20.458
12191W        W13056   2.761  12.993  20.808
12192W        W13057   2.533  14.373  21.619
12193W        W13058   2.429  12.112  21.172
12194W        W13059   2.706  14.166  19.577
12195W        W13060   1.708  13.886  20.900
12196W        W13061   1.193  14.241  20.169
12197W        W13062   2.998  13.412  20.588
12198W        W13063   2.048  13.484  21.725
12199W        W13064   0.653  13.437  20.064
12200W        W13065   2.999  13.196  19.709
12201W        W13066   2.640  14.262  20.460
12202W        W13067   0.618  13.991  20.330
12203W        W13068   1.639  12.043  21.540
12204W        W13069   2.090  14.209  19.051
12205W        W13070   1.398  13.464  21.689
12206W        W13071   1.524  13.702  19.066
12207W        W13072   0.745  12.442  18.325
12208W        W13073   0.084  14.528  25.225
12209W        W13074   0.460  13.421  24.748
12210W        W13075   3.165  13.151  22.518
12211W        W13076   3.295  14.236  24.545
12212W        W13077   1.213  14.227  22.071
12213W        W13078   1.296  12.379  23.054
12214W        W13079   0.811  12.227  23.218
12215W        W13080   1.802  13.042  22.652
12216W        W13081   1.477  14.134  25.007
12217W        W13082   0.126  11.695  24.970
12218W        W13083   0.888  10.975  24.772
12219W        W13084   2.582  11.363  23.659
12220W        W13085   2.231  12.234  22.229
12221W        W13086   2.801  11.668  25.320
12222W        W13087   0.167  11.460  24.445
12223W        W13088   0.266  14.079  25.466
12224W        W13089   1.788  13.469  22.198
12225W        W13090   0.220  12.252  23.891
12226W        W13091   1.113  12.143  25.128
12227W        W13092   3.572  12.002  23.627
12228W        W13093   3.336  13.045  24.486
12229W        W13094   1.644  12.378  23.513
12230W        W13095   2.190  13.717  23.882
12231W        W13096   0.690  13.151  24.114
12232W        W13097   0.049  12.679  23.685
12233W        W13098   1.085  12.651  24.877
12234W        W13099   3.356  12.434  25.131
12235W        W13100   0.972  13.878  23.576
12236W        W13101   2.093  13.567  24.710
12237W        W13102   1.313  12.207  23.935
12238W        W13103   1.605  12.991  23.578
12239W        W13104   2.602  13.764  25.426
12240W        W13105   1.681  13.084  25.436
12241W        W13106   1.662  12.800  24.914
12242W        W13107   0.071  12.191  25.436
12243W        W13108   2.903  13.726  25.035
12244W        W13109   0.484  11.308  23.033
12245W        W13110   1.011  13.566  24.032
12246W        W13111   3.474  13.349  23.322
12247W        W13112   2.887  11.749  23.889
12248W        W13113   3.172  11.702  21.984
12249W        W13114   3.637  12.503  24.290
12250W        W13115   1.604  14.210  24.043
12251W        W13116   3.378  13.676  22.481
12252W        W13117   0.507  14.462  22.235
12253W        W13118   0.900  14.508  22.911
12254W        W13119   0.697  11.262  24.337
12255W        W13120   3.320  12.280  24.612
12256W        W13121   2.725  12.702  23.071
12257W        W13122   2.691  12.390  22.098
12258W        W13123   1.899  13.534  24.238
12259W        W13124   1.705  11.864  23.437
12260W        W13125   2.305  13.951  24.431
12261W        W13126   3.176  12.742  22.853
12262W        W13127   2.078  11.400  22.869
12263W        W13128   0.735  14.094  22.552
12264W        W13129   0.106  11.593  23.151
12265W        W13130   2.892  12.200  23.625
12266W        W13131   0.350  13.817  23.540
12267W        W13132   1.691  14.167  22.410
12268W        W13133   3.083  12.193  21.874
12269W        W13134   0.106  13.951  24.038
12270W        W13135   0.897  13.523  24.518
12271W        W13136   1.270  12.883  23.137
12272W        W13137   1.292  11.288  24.230
12273W        W13138   3.521  11.050  23.527
12274W        W13139   0.740  12.922  21.995
12275W        W13140   0.395  11.955  22.174
12276W        W13141   0.457  13.911  22.968
12277W        W13142   1.588  13.394  23.216
12278W        W13143   2.920  14.253  24.930
12279W        W13144   1.846  11.895  22.614
12280W        W13145   3.229  14.293  23.386
12281W        W13146   2.906  12.146  24.984
12282W        W13147   3.619  13.802  23.118
12283W        W13148   2.246  13.094  24.602
12284W        W13149   0.012  12.645  22.808
12285W        W13150   1.123  13.060  24.381
12286W        W13151   2.327  12.324  22.759
12287W        W13152   2.204  12.814  22.863
12288W        W13153   0.547  12.234  24.337
12289W        W13154   0.532  12.110  25.259
12290W        W13155   0.422  11.027  23.418
12291W        W13156   2.190  11.374  23.979
12292W        W13157   1.838  11.559  25.142
12293W        W13158   2.193  11.708  22.320
12294W        W13159   3.376  14.101  25.074
12295W        W13160   2.343  11.182  25.113
12296W        W13161   3.362  13.483  25.235
12297W        W13162   2.792  11.650  24.831
12298W        W13163   2.592  11.588  23.101
12299W        W13164   2.985  12.722  25.505
12300W        W13165   0.725  14.298  23.491
12301W        W13166   1.383  12.015  22.477
12302W        W13167   0.952  11.299  25.141
12303W        W13168   3.004  11.783  22.822
12304W        W13169   3.371  12.265  22.767
12305W        W13170   1.114  14.482  25.238
12306W        W13171   1.040  11.018  22.473
12307W        W13172   3.361  11.552  23.508
12308W        W13173   3.511  13.801  21.953
12309W        W13174   0.418  13.004  23.655
12310W        W13175   2.335  11.591  21.885
12311W        W13176   3.469  13.923  23.605
12312W        W13177   3.508  11.117  24.355
12313W        W13178   1.953  12.329  24.909
12314W        W13179   2.046  13.668  22.612
12315W        W13180   2.446  12.962  25.352
12316W        W13181   2.120  10.939  23.661
12317W        W13182   0.732  11.842  23.724
12318W        W13183   0.286  13.042  24.498
12319W        W13184   2.145  14.235  23.204
12320W        W13185   3.339  11.832  24.076
12321W        W13186   1.976  14.179  24.843
12322W        W13187   3.319  13.238  22.048
12323W        W13188   1.754  12.721  23.109
12324W        W13189   3.606  11.232  24.850
12325W        W13190   1.755  13.067  24.444
12326W        W13191   1.972  11.953  23.889
12327W        W13192   2.824  12.251  22.727
12328W        W13193   3.111  11.984  22.369
12329W        W13194   2.920  14.024  22.758
12330W        W13195   2.754  13.627  23.554
12331W        W13196   2.650  12.706  22.532
12332W        W13197   2.083  12.916  23.518
12333W        W13198   2.964  12.704  23.585
12334W        W13199   0.339  11.719  24.009
12335W        W13200   3.117  12.771  24.836
12336W        W13201   3.468  14.389  23.982
12337W        W13202   1.398  13.833  23.384
12338W        W13203   2.405  14.366  24.708
12339W        W13204   2.399  11.696  24.472
12340W        W13205   1.606  14.404  24.533
12341W        W13206   3.303  11.358  22.999
12342W        W13207   3.094  12.677  24.300
12343W        W13208   0.077  11.998  24.338
12344W        W13209   2.937  11.793  23.356
12345W        W13210   3.348  11.944  25.133
12346W        W13211   2.233  13.643  23.351
12347W        W13212   1.489  14.234  22.964
12348W        W13213   1.708  11.068  24.032
12349W        W13214   0.736  14.188  21.880
12350W        W13215   1.110  12.654  22.631
12351W        W13216   1.764  13.283  24.944
12352W        W13217   1.594  11.641  22.934
12353W        W13218   2.950  11.238  23.362
12354W        W13219   2.670  14.520  23.690
12355W        W13220   2.082  14.168  24.030
12356W        W13221   1.478  13.205  23.991
12357W        W13222   3.248  13.928  24.117
12358W        W13223   0.942  11.431  22.886
12359W        W13224   1.464  13.728  23.846
12360W        W13225   0.947  11.659  21.911
12361W        W13226   1.748  12.268  24.305
12362W        W13227   2.596  11.134  24.175
12363W        W13228   0.016  12.977  24.060
12364W        W13229   1.720  12.795  22.218
12365W        W13230   0.988  11.110  21.988
12366W        W13231   1.726  12.191  23.039
12367W        W13232   2.696  11.167  24.738
12368W        W13233   1.284  13.179  24.847
12369W        W13234   2.088  12.961  25.064
12370W        W13235   2.705  12.991  24.957
12371W        W13236   1.211  11.747  23.855
12372W        W13237   0.637  11.703  23.253
12373W        W13238   0.423  14.415  22.929
12374W        W13239   1.755  13.745  25.054
12375W        W13240   0.790  13.230  22.413
12376W        W13241   2.470  12.615  23.634
12377W        W13242   2.750  12.414  24.033
12378W        W13243   1.955  13.088  23.967
12379W        W13244   2.425  13.462  22.099
12380W        W13245   2.097  11.483  23.427
12381W        W13246   3.576  11.761  22.695
12382W        W13247   0.070  14.350  24.726
12383W        W13248   0.487  13.576  24.258
12384W        W13249   0.054  14.422  22.490
12385W        W13250   1.953  11.692  24.296
12386W        W13251   1.316  13.715  22.145
12387W        W13252   3.221  14.097  22.331
12388W        W13253   2.196  12.750  22.345
12389W        W13254   1.039  11.941  22.862
12390W        W13255   1.871  11.851  21.914
12391W        W13256   2.455  13.416  25.092
12392W        W13257   2.808  11.322  22.709
12393W        W13258   0.138  11.170  22.157
12394W        W13259   1.424  13.489  24.447
12395W        W13260   1.223  13.405  23.539
12396W        W13261   0.965  13.357  21.937
12397W        W13262   0.206  13.598  22.705
12398W        W13263   0.710  12.668  25.147
12399W        W13264   1.414  11.228  25.333
12400W        W13265   2.123  11.370  24.689
12401W        W13266   1.318  11.138  22.970
12402W        W13267   2.377  11.215  22.475
12403W        W13268   0.322  11.147  24.052
12404W        W13269   0.370  12.110  23.422
12405W        W13270   3.059  11.218  23.828
12406W        W13271   0.481  11.716  22.642
12407W        W13272   3.052  11.404  24.258
12408W        W13273   3.448  12.607  21.943
12409W        W13274   0.740  11.365  23.762
12410W        W13275   1.854  11.937  24.702
12411W        W13276   0.002  11.627  22.180
12412W        W13277   0.788  13.016  24.741
12413W        W13278   2.146  12.414  23.920
12414W        W13279   2.013  14.493  22.216
12415W        W13280   0.159  13.000  21.913
12416W        W13281   0.894  13.411  25.039
12417W        W13282   0.415  12.578  24.670
12418W        W13283   1.406  12.683  24.464
12419W        W13284   3.174  11.042  24.726
12420W        W13285   3.572  12.652  24.717
12421W        W13286   3.560  12.852  22.403
12422W        W13287   2.423  13.184  22.502
12423W        W13288   2.897  14.484  22.197
12424W        W13289   2.074  12.474  25.339
12425W        W13290   0.404  13.441  25.379
12426W        W13291   3.610  11.363  25.331
12427W        W13292   3.328  12.291  23.952
12428W        W13293   1.636  14.421  25.429
12429W        W13294   1.491  11.050  22.156
12430W        W13295   3.030  13.649  22.099
12431W        W13296   0.799  11.742  24.985
12432W        W13297   1.233  13.736  24.847
12433W        W13298   3.359  11.727  24.645
12434W        W13299   2.570  14.386  22.613
12435W        W13300   2.809  13.005  23.980
12436W        W13301   1.059  11.421  24.647
12437W        W13302   1.528  12.490  25.404
12438W        W13303   1.031  13.669  22.598
12439W        W13304   2.786  13.167  22.862
12440W        W13305   0.554  11.793  24.586
12441W        W13306   1.883  13.855  23.050
12442W        W13307   3.633  12.415  23.231
12443W        W13308   1.855  11.048  24.950
12444W        W13309   2.635  13.753  24.029
12445W        W13310   2.938  14.097  23.737
12446W        W13311   2.157  13.899  22.165
12447W        W13312   0.167  13.791  25.007
12448W        W13313   0.910  11.783  24.245
12449W        W13314   0.880  11.131  23.355
12450W        W13315   2.501  11.973  24.047
12451W        W13316   1.299  13.144  22.247
12452W        W13317   3.297  13.086  23.746
12453W        W13318   0.624  13.844  25.169
12454W        W13319   3.011  14.526  22.966
12455W        W13320   1.110  11.546  23.411
12456W        W13321   0.879  13.039  23.501
12457W        W13322   1.192  14.450  24.251
12458W        W13323   3.259  14.546  25.283
12459W        W13324   2.418  12.734  24.216
12460W        W13325   0.267  12.532  22.131
12461W        W13326   3.401  14.190  22.828
12462W        W13327   3.238  11.514  22.447
12463W        W13328   1.377  11.033  24.850
12464W        W13329   3.083  13.835  23.308
12465W        W13330   3.112  12.391  23.213
12466W        W13331   1.229  12.064  23.429
12467W        W13332   1.474  12.326  24.753
12468W        W13333   2.585  13.479  24.616
12469W        W13334   1.235  11.933  24.728
12470W        W13335   1.214  14.399  23.344
12471W        W13336   0.531  14.358  24.978
12472W        W13337   0.643  13.719  22.108
12473W        W13338   3.160  13.477  22.918
12474W        W13339   0.764  12.269  24.804
12475W        W13340   3.537  12.199  22.285
12476W        W13341   1.282  13.256  22.756
12477W        W13342   2.381  12.638  24.837
12478W        W13343   2.272  12.266  24.381
12479W        W13344   0.832  12.638  24.410
12480W        W13345   3.042  14.526  24.239
12481W        W13346   2.833  11.160  25.233
12482W        W13347   0.497  11.310  24.820
12483W        W13348   0.836  12.333  23.873
12484W        W13349   1.205  12.147  21.995
12485W        W13350   0.008  13.906  24.540
12486W        W13351   1.593  12.615  23.983
12487W        W13352   1.416  11.640  22.088
12488W        W13353   0.551  12.456  22.869
12489W        W13354   0.322  14.308  24.306
12490W        W13355   3.117  12.534  22.414
12491W        W13356   3.212  11.450  25.100
12492W        W13357   2.648  13.659  23.063
12493W        W13358   0.246  12.583  25.240
12494W        W13359   3.212  11.047  22.536
12495W        W13360   2.732  13.522  22.547
12496W        W13361   1.634  12.580  22.632
12497W        W13362   2.821  11.384  22.155
12498W        W13363   2.886  11.991  24.341
12499W        W13364   0.595  12.584  23.548
12500W        W13365   0.889  13.523  23.197
12501W        W13366   2.652  12.143  23.162
12502W        W13367   1.675  11.522  23.858
12503W        W13368   3.637  13.433  24.369
12504W        W13369   3.555  11.420  23.930
12505W        W13370   0.094  14.250  23.306
12506W        W13371   0.603  13.437  22.842
12507W        W13372   0.518  11.054  25.395
12508W        W13373   1.637  13.907  25.497
12509W        W13374   3.392  12.875  23.287
12510W        W13375   2.746  13.052  22.167
12511W        W13376   2.041  14.573  24.379
12512W        W13377   2.898  13.295  25.416
12513W        W13378   1.713  11.005  22.696
12514W        W13379   2.426  11.874  23.555
12515W        W13380   0.112  13.461  23.887
12516W        W13381   1.365  11.423  22.528
12517W        W13382   1.169  12.907  25.377
12518W        W13383   2.163  11.888  23.091
12519W        W13384   2.368  13.298  24.213
12520W        W13385   0.522  13.903  24.648
12521W        W13386   1.113  13.886  25.371
12522W        W13387   0.964  11.683  22.385
12523W        W13388   2.481  11.825  22.710
12524W        W13389   2.439  13.933  24.947
12525W        W13390   1.124  12.525  23.546
12526W        W13391   0.779  14.223  24.411
12527W        W13392   3.524  14.340  22.012
12528W        W13393   0.387  13.012  25.008
12529W        W13394   2.382  13.274  23.696
12530W        W13395   0.818  12.923  22.938
12531W        W13396   1.189  13.930  24.333
12532W        W13397   1.567  11.349  23.374
12533W        W13398   0.178  13.333  22.304
12534W        W13399   1.697  12.284  22.174
12535W        W13400   0.343  12.833  23.193
12536W        W13401   1.633  11.475  24.657
12537W        W13402   3.305  11.184  22.084
12538W        W13403   3.398  12.930  25.183
12539W        W13404   2.052  14.187  25.335
12540W        W13405   3.610  13.281  24.857
12541W        W13406   3.018  14.079  25.468
12542W        W13407   0.757  14.535  23.946
12543W        W13408   3.616  13.157  22.820
12544W        W13409   2.146  12.424  23.333
12545W        W13410   1.913  11.036  23.223
12546W        W13411   0.972  14.020  23.060
12547W        W13412   1.471  11.761  24.285
12548W        W13413   1.171  11.130  23.754
12549W        W13414   0.234  13.952  22.302
12550W        W13415   2.050  13.316  23.020
12551W        W13416   0.925  14.111  24.899
12552W        W13417   0.402  12.934  22.595
12553W        W13418   0.287  11.477  23.594
12554W        W13419   1.835  13.442  23.651
12555W        W13420   0.087  11.296  22.671
12556W        W13421   2.751  12.502  24.598
12557W        W13422   2.628  11.888  22.170
12558W        W13423   3.145  13.560  23.818
12559W        W13424   1.806  14.044  23.649
12560W        W13425   1.218  14.148  22.560
12561W        W13426   2.500  11.051  21.990
12562W        W13427   0.300  14.311  23.731
12563W        W13428   2.497  12.069  25.366
12564W        W13429   0.480  11.599  25.365
12565W        W13430   0.211  12.199  22.698
12566W        W13431   0.902  12.188  22.423
12567W        W13432   2.665  12.515  25.240
12568W        W13433   1.008  12.796  23.949
12569W        W13434   2.482  11.082  23.069
12570W        W13435   1.613  14.513  23.572
12571W        W13436   2.827  13.975  24.509
12572W        W13437   2.411  14.124  23.620
12573W        W13438   2.430  13.104  23.214
12574W        W13439   1.892  11.329  22.285
12575W        W13440   3.573  10.957  23.007
12576W        W13441   1.261  12.592  22.170
12577W        W13442   3.427  11.929  23.160
12578W        W13443   2.119  13.099  22.037
12579W        W13444   3.055  13.299  24.785
12580W        W13445   2.709  14.000  22.252
12581W        W13446   1.324  11.675  25.158
12582W        W13447   1.144  12.259  24.399
12583W        W13448   3.236  13.754  24.676
12584W        W13449   2.336  11.704  25.053
12585W        W13450   0.180  12.175  24.830
12586W        W13451   1.940  12.652  24.556
12587W        W13452   0.297  13.410  23.213
12588W        W13453   0.444  12.707  24.103
12589W        W13454   2.761  12.993  24.453
12590W        W13455   2.533  14.373  25.264
12591W        W13456   2.429  12.112  24.817
12592W        W13457   2.706  14.166  23.222
12593W        W13458   1.708  13.886  24.545
12594W        W13459   1.193  14.241  23.814
12595W        W13460   2.998  13.412  24.233
12596W        W13461   2.048  13.484  25.370
12597W        W13462   0.653  13.437  23.709
12598W        W13463   2.999  13.196  23.354
12599W        W13464   2.640  14.262  24.105
12600W        W13465   0.618  13.991  23.975
12601W        W13466   1.639  12.043  25.185
12602W        W13467   2.090  14.209  22.696
12603W        W13468   1.398  13.464  25.334
12604W        W13469   1.524  13.702  22.711
12605W        W13470   0.745  12.442  21.970
12606W        W13471   0.084  14.528  28.869
12607W        W13472   0.460  13.421  28.392
12608W        W13473   3.165  13.151  26.162
12609W        W13474   3.295  14.236  28.189
12610W        W13475   1.213  14.227  25.715
12611W        W13476   1.296  12.379  26.698
12612W        W13477   0.811  12.227  26.862
12613W        W13478   1.802  13.042  26.296
12614W        W13479   1.477  14.134  28.651
12615W        W13480   0.126  11.695  28.614
12616W        W13481   0.888  10.975  28.416
12617W        W13482   2.582  11.363  27.303
12618W        W13483   2.231  12.234  25.873
12619W        W13484   2.801  11.668  28.964
12620W        W13485   0.167  11.460  28.089
12621W        W13486   0.266  14.079  29.110
12622W        W13487   1.788  13.469  25.842
12623W        W13488   0.220  12.252  27.535
12624W        W13489   1.113  12.143  28.772
12625W        W13490   3.572  12.002  27.271
12626W        W13491   3.336  13.045  28.130
12627W        W13492   1.644  12.378  27.157
12628W        W13493   2.190  13.717  27.526
12629W        W13494   0.690  13.151  27.758
12630W        W13495   0.049  12.679  27.329
12631W        W13496   1.085  12.651  28.521
12632W        W13497   3.356  12.434  28.775
12633W        W13498   0.972  13.878  27.220
12634W        W13499   2.093  13.567  28.354
12635W        W13500   1.313  12.207  27.579
12636W        W13501   1.605  12.991  27.222
12637W        W13502   2.602  13.764  29.070
12638W        W13503   1.681  13.084  29.080
12639W        W13504   1.662  12.800  28.558
12640W        W13505   0.071  12.191  29.080
12641W        W13506   2.903  13.726  28.679
12642W        W13507   0.484  11.308  26.677
12643W        W13508   1.011  13.566  27.676
12644W        W13509   3.474  13.349  26.966
12645W        W13510   2.887  11.749  27.533
12646W        W13511   3.172  11.702  25.628
12647W        W13512   3.637  12.503  27.934
12648W        W13513   1.604  14.210  27.687
12649W        W13514   3.378  13.676  26.125
12650W        W13515   0.507  14.462  25.879
12651W        W13516   0.900  14.508  26.555
12652W        W13517   0.697  11.262  27.981
12653W        W13518   3.320  12.280  28.256
12654W        W13519   2.725  12.702  26.715
12655W        W13520   2.691  12.390  25.742
12656W        W13521   1.899  13.534  27.882
12657W        W13522   1.705  11.864  27.081
12658W        W13523   2.305  13.951  28.075
12659W        W13524   3.176  12.742  26.497
12660W        W13525   2.078  11.400  26.513
12661W        W13526   0.735  14.094  26.196
12662W        W13527   0.106  11.593  26.795
12663W        W13528   2.892  12.200  27.269
12664W        W13529   0.350  13.817  27.184
12665W        W13530   1.691  14.167  26.054
12666W        W13531   3.083  12.193  25.518
12667W        W13532   0.106  13.951  27.682
12668W        W13533   0.897  13.523  28.162
12669W        W13534   1.270  12.883  26.781
12670W        W13535   1.292  11.288  27.874
12671W        W13536   3.521  11.050  27.171
12672W        W13537   0.740  12.922  25.639
12673W        W13538   0.395  11.955  25.818
12674W        W13539   0.457  13.911  26.612
12675W        W13540   1.588  13.394  26.860
12676W        W13541   2.920  14.253  28.574
12677W        W13542   1.846  11.895  26.258
12678W        W13543   3.229  14.293  27.030
12679W        W13544   2.906  12.146  28.628
12680W        W13545   3.619  13.802  26.762
12681W        W13546   2.246  13.094  28.246
12682W        W13547   0.012  12.645  26.452
12683W        W13548   1.123  13.060  28.025
12684W        W13549   2.327  12.324  26.403
12685W        W13550   2.204  12.814  26.507
12686W        W13551   0.547  12.234  27.981
12687W        W13552   0.532  12.110  28.903
12688W        W13553   0.422  11.027  27.062
12689W        W13554   2.190  11.374  27.623
12690W        W13555   1.838  11.559  28.786
12691W        W13556   2.193  11.708  25.964
12692W        W13557   3.376  14.101  28.718
12693W        W13558   2.343  11.182  28.757
12694W        W13559   3.362  13.483  28.879
12695W        W13560   2.792  11.650  28.475
12696W        W13561   2.592  11.588  26.745
12697W        W13562   2.985  12.722  29.149
12698W        W13563   0.725  14.298  27.135
12699W        W13564   1.383  12.015  26.121
12700W        W13565   0.952  11.299  28.785
12701W        W13566   3.004  11.783  26.466
12702W        W13567   3.371  12.265  26.411
12703W        W13568   1.114  14.482  28.882
12704W        W13569   1.040  11.018  26.117
12705W        W13570   3.361  11.552  27.152
12706W        W13571   3.511  13.801  25.597
12707W        W13572   0.418  13.004  27.299
12708W        W13573   2.335  11.591  25.529
12709W        W13574   3.469  13.923  27.249
12710W        W13575   3.508  11.117  27.999
12711W        W13576   1.953  12.329  28.553
12712W        W13577   2.046  13.668  26.256
12713W        W13578   2.446  12.962  28.996
12714W        W13579   2.120  10.939  27.305
12715W        W13580   0.732  11.842  27.368
12716W        W13581   0.286  13.042  28.142
12717W        W13582   2.145  14.235  26.848
12718W        W13583   3.339  11.832  27.720
12719W        W13584   1.976  14.179  28.487
12720W        W13585   3.319  13.238  25.692
12721W        W13586   1.754  12.721  26.753
12722W        W13587   3.606  11.232  28.494
12723W        W13588   1.755  13.067  28.088
12724W        W13589   1.972  11.953  27.533
12725W        W13590   2.824  12.251  26.371
12726W        W13591   3.111  11.984  26.013
12727W        W13592   2.920  14.024  26.402
12728W        W13593   2.754  13.627  27.198
12729W        W13594   2.650  12.706  26.176
12730W        W13595   2.083  12.916  27.162
12731W        W13596   2.964  12.704  27.229
12732W        W13597   0.339  11.719  27.653
12733W        W13598   3.117  12.771  28.480
12734W        W13599   3.468  14.389  27.626
12735W        W13600   1.398  13.833  27.028
12736W        W13601   2.405  14.366  28.352
12737W        W13602   2.399  11.696  28.116
12738W        W13603   1.606  14.404  28.177
12739W        W13604   3.303  11.358  26.643
12740W        W13605   3.094  12.677  27.944
12741W        W13606   0.077  11.998  27.982
12742W        W13607   2.937  11.793  27.000
12743W        W13608   3.348  11.944  28.777
12744W        W13609   2.233  13.643  26.995
12745W        W13610   1.489  14.234  26.608
12746W        W13611   0.604  11.414  25.866
12747W        W13612   1.708  11.068  27.676
12748W        W13613   0.736  14.188  25.524
12749W        W13614   1.110  12.654  26.275
12750W        W13615   1.764  13.283  28.588
12751W        W13616   1.594  11.641  26.578
12752W        W13617   2.950  11.238  27.006
12753W        W13618   2.670  14.520  27.334
12754W        W13619   2.082  14.168  27.674
12755W        W13620   1.478  13.205  27.635
12756W        W13621   3.248  13.928  27.761
12757W        W13622   0.942  11.431  26.530
12758W        W13623   1.464  13.728  27.490
12759W        W13624   0.947  11.659  25.555
12760W        W13625   1.748  12.268  27.949
12761W        W13626   2.596  11.134  27.819
12762W        W13627   0.016  12.977  27.704
12763W        W13628   1.720  12.795  25.862
12764W        W13629   0.988  11.110  25.632
12765W        W13630   1.726  12.191  26.683
12766W        W13631   2.696  11.167  28.382
12767W        W13632   1.284  13.179  28.491
12768W        W13633   2.088  12.961  28.708
12769W        W13634   2.705  12.991  28.601
12770W        W13635   1.989  11.131  29.106
12771W        W13636   1.211  11.747  27.499
12772W        W13637   0.637  11.703  26.897
12773W        W13638   0.423  14.415  26.573
12774W        W13639   1.755  13.745  28.698
12775W        W13640   0.790  13.230  26.057
12776W        W13641   2.470  12.615  27.278
12777W        W13642   2.750  12.414  27.677
12778W        W13643   1.955  13.088  27.611
12779W        W13644   2.425  13.462  25.743
12780W        W13645   2.097  11.483  27.071
12781W        W13646   3.576  11.761  26.339
12782W        W13647   0.070  14.350  28.370
12783W        W13648   0.487  13.576  27.902
12784W        W13649   0.054  14.422  26.134
12785W        W13650   1.953  11.692  27.940
12786W        W13651   1.316  13.715  25.789
12787W        W13652   3.221  14.097  25.975
12788W        W13653   2.196  12.750  25.989
12789W        W13654   1.039  11.941  26.506
12790W        W13655   1.871  11.851  25.558
12791W        W13656   2.455  13.416  28.736
12792W        W13657   2.808  11.322  26.353
12793W        W13658   0.138  11.170  25.801
12794W        W13659   1.424  13.489  28.091
12795W        W13660   1.223  13.405  27.183
12796W        W13661   0.965  13.357  25.581
12797W        W13662   0.206  13.598  26.349
12798W        W13663   0.710  12.668  28.791
12799W        W13664   1.414  11.228  28.977
12800W        W13665   2.123  11.370  28.333
12801W        W13666   1.318  11.138  26.614
12802W        W13667   2.377  11.215  26.119
12803W        W13668   0.322  11.147  27.696
12804W        W13669   0.370  12.110  27.066
12805W        W13670   3.059  11.218  27.472
12806W        W13671   0.481  11.716  26.286
12807W        W13672   3.052  11.404  27.902
12808W        W13673   3.448  12.607  25.587
12809W        W13674   0.740  11.365  27.406
12810W        W13675   1.854  11.937  28.346
12811W        W13676   0.002  11.627  25.824
12812W        W13677   0.788  13.016  28.385
12813W        W13678   2.146  12.414  27.564
12814W        W13679   2.013  14.493  25.860
12815W        W13680   0.159  13.000  25.557
12816W        W13681   0.415  12.578  28.314
12817W        W13682   1.406  12.683  28.108
12818W        W13683   3.174  11.042  28.370
12819W        W13684   3.572  12.652  28.361
12820W        W13685   3.560  12.852  26.047
12821W        W13686   2.423  13.184  26.146
12822W        W13687   2.897  14.484  25.841
12823W        W13688   2.074  12.474  28.983
12824W        W13689   0.404  13.441  29.023
12825W        W13690   3.610  11.363  28.975
12826W        W13691   3.328  12.291  27.596
12827W        W13692   1.636  14.421  29.073
12828W        W13693   1.491  11.050  25.800
12829W        W13694   3.030  13.649  25.743
12830W        W13695   0.799  11.742  28.629
12831W        W13696   1.233  13.736  28.491
12832W        W13697   3.359  11.727  28.289
12833W        W13698   2.570  14.386  26.257
12834W        W13699   2.809  13.005  27.624
12835W        W13700   1.059  11.421  28.291
12836W        W13701   1.528  12.490  29.048
12837W        W13702   1.031  13.669  26.242
12838W        W13703   2.786  13.167  26.506
12839W        W13704   0.554  11.793  28.230
12840W        W13705   1.883  13.855  26.694
12841W        W13706   3.633  12.415  26.875
12842W        W13707   1.855  11.048  28.594
12843W        W13708   2.635  13.753  27.673
12844W        W13709   2.938  14.097  27.381
12845W        W13710   2.157  13.899  25.809
12846W        W13711   0.167  13.791  28.651
12847W        W13712   0.910  11.783  27.889
12848W        W13713   0.880  11.131  26.999
12849W        W13714   2.501  11.973  27.691
12850W        W13715   1.299  13.144  25.891
12851W        W13716   3.297  13.086  27.390
12852W        W13717   0.624  13.844  28.813
12853W        W13718   3.011  14.526  26.610
12854W        W13719   1.110  11.546  27.055
12855W        W13720   0.879  13.039  27.145
12856W        W13721   1.192  14.450  27.895
12857W        W13722   3.259  14.546  28.927
12858W        W13723   2.418  12.734  27.860
12859W        W13724   0.267  12.532  25.775
12860W        W13725   3.401  14.190  26.472
12861W        W13726   3.238  11.514  26.091
12862W        W13727   1.377  11.033  28.494
12863W        W13728   3.083  13.835  26.952
12864W        W13729   3.112  12.391  26.857
12865W        W13730   1.229  12.064  27.073
12866W        W13731   1.474  12.326  28.397
12867W        W13732   2.585  13.479  28.260
12868W        W13733   1.235  11.933  28.372
12869W        W13734   1.214  14.399  26.988
12870W        W13735   0.531  14.358  28.622
12871W        W13736   0.643  13.719  25.752
12872W        W13737   3.160  13.477  26.562
12873W        W13738   0.764  12.269  28.448
12874W        W13739   3.537  12.199  25.929
12875W        W13740   1.282  13.256  26.400
12876W        W13741   2.381  12.638  28.481
12877W        W13742   2.272  12.266  28.025
12878W        W13743   0.832  12.638  28.054
12879W        W13744   3.042  14.526  27.883
12880W        W13745   2.833  11.160  28.877
12881W        W13746   0.497  11.310  28.464
12882W        W13747   0.836  12.333  27.517
12883W        W13748   1.205  12.147  25.639
12884W        W13749   0.008  13.906  28.184
12885W        W13750   1.593  12.615  27.627
12886W        W13751   1.416  11.640  25.732
12887W        W13752   0.551  12.456  26.513
12888W        W13753   0.322  14.308  27.950
12889W        W13754   3.117  12.534  26.058
12890W        W13755   3.212  11.450  28.744
12891W        W13756   2.648  13.659  26.707
12892W        W13757   0.246  12.583  28.884
12893W        W13758   3.212  11.047  26.180
12894W        W13759   2.732  13.522  26.191
12895W        W13760   1.634  12.580  26.276
12896W        W13761   2.821  11.384  25.799
12897W        W13762   2.886  11.991  27.985
12898W        W13763   0.595  12.584  27.192
12899W        W13764   0.889  13.523  26.841
12900W        W13765   2.652  12.143  26.806
12901W        W13766   1.675  11.522  27.502
12902W        W13767   3.637  13.433  28.013
12903W        W13768   3.555  11.420  27.574
12904W        W13769   0.094  14.250  26.950
12905W        W13770   0.603  13.437  26.486
12906W        W13771   0.518  11.054  29.039
12907W        W13772   1.637  13.907  29.141
12908W        W13773   3.392  12.875  26.931
12909W        W13774   2.746  13.052  25.811
12910W        W13775   2.041  14.573  28.023
12911W        W13776   2.898  13.295  29.060
12912W        W13777   1.713  11.005  26.340
12913W        W13778   2.426  11.874  27.199
12914W        W13779   0.112  13.461  27.531
12915W        W13780   1.365  11.423  26.172
12916W        W13781   1.169  12.907  29.021
12917W        W13782   2.163  11.888  26.735
12918W        W13783   2.368  13.298  27.857
12919W        W13784   0.522  13.903  28.292
12920W        W13785   1.113  13.886  29.015
12921W        W13786   0.964  11.683  26.029
12922W        W13787   2.481  11.825  26.354
12923W        W13788   2.439  13.933  28.591
12924W        W13789   1.124  12.525  27.190
12925W        W13790   0.779  14.223  28.055
12926W        W13791   3.524  14.340  25.656
12927W        W13792   0.387  13.012  28.652
12928W        W13793   2.382  13.274  27.340
12929W        W13794   0.818  12.923  26.582
12930W        W13795   1.189  13.930  27.977
12931W        W13796   1.567  11.349  27.018
12932W        W13797   0.178  13.333  25.948
12933W        W13798   1.697  12.284  25.818
12934W        W13799   0.343  12.833  26.837
12935W        W13800   1.633  11.475  28.301
12936W        W13801   3.305  11.184  25.728
12937W        W13802   3.398  12.930  28.827
12938W        W13803   2.052  14.187  28.979
12939W        W13804   3.610  13.281  28.501
12940W        W13805   3.018  14.079  29.112
12941W        W13806   0.757  14.535  27.590
12942W        W13807   3.616  13.157  26.464
12943W        W13808   2.146  12.424  26.977
12944W        W13809   1.913  11.036  26.867
12945W        W13810   0.972  14.020  26.704
12946W        W13811   1.471  11.761  27.929
12947W        W13812   1.171  11.130  27.398
12948W        W13813   0.234  13.952  25.946
12949W        W13814   2.050  13.316  26.664
12950W        W13815   0.925  14.111  28.543
12951W        W13816   0.402  12.934  26.239
12952W        W13817   0.287  11.477  27.238
12953W        W13818   1.835  13.442  27.295
12954W        W13819   0.087  11.296  26.315
12955W        W13820   2.751  12.502  28.242
12956W        W13821   2.628  11.888  25.814
12957W        W13822   3.145  13.560  27.462
12958W        W13823   1.806  14.044  27.293
12959W        W13824   1.218  14.148  26.204
12960W        W13825   2.500  11.051  25.634
12961W        W13826   0.300  14.311  27.375
12962W        W13827   2.497  12.069  29.010
12963W        W13828   0.480  11.599  29.009
12964W        W13829   0.211  12.199  26.342
12965W        W13830   0.902  12.188  26.067
12966W        W13831   2.665  12.515  28.884
12967W        W13832   1.008  12.796  27.593
12968W        W13833   2.482  11.082  26.713
12969W        W13834   1.613  14.513  27.216
12970W        W13835   2.827  13.975  28.153
12971W        W13836   2.411  14.124  27.264
12972W        W13837   2.430  13.104  26.858
12973W        W13838   1.892  11.329  25.929
12974W        W13839   3.573  10.957  26.651
12975W        W13840   1.261  12.592  25.814
12976W        W13841   3.427  11.929  26.804
12977W        W13842   2.119  13.099  25.681
12978W        W13843   3.055  13.299  28.429
12979W        W13844   2.709  14.000  25.896
12980W        W13845   1.324  11.675  28.802
12981W        W13846   1.144  12.259  28.043
12982W        W13847   3.236  13.754  28.320
12983W        W13848   2.336  11.704  28.697
12984W        W13849   0.180  12.175  28.474
12985W        W13850   1.940  12.652  28.200
12986W        W13851   0.297  13.410  26.857
12987W        W13852   0.444  12.707  27.747
12988W        W13853   2.761  12.993  28.097
12989W        W13854   2.533  14.373  28.908
12990W        W13855   2.429  12.112  28.461
12991W        W13856   2.706  14.166  26.866
12992W        W13857   1.708  13.886  28.189
12993W        W13858   1.193  14.241  27.458
12994W        W13859   2.998  13.412  27.877
12995W        W13860   2.048  13.484  29.014
12996W        W13861   0.653  13.437  27.353
12997W        W13862   2.999  13.196  26.998
12998W        W13863   2.640  14.262  27.749
12999W        W13864   0.618  13.991  27.619
13000W        W13865   1.639  12.043  28.829
13001W        W13866   2.090  14.209  26.340
13002W        W13867   1.398  13.464  28.978
13003W        W13868   1.524  13.702  26.355
13004W        W13869   0.745  12.442  25.614
13005W        W13870   0.084  18.172   3.359
13006W        W13871   0.460  17.065   2.882
13007W        W13872   3.165  16.795   0.652
13008W        W13873   3.295  17.880   2.679
13009W        W13874   1.213  17.871   0.205
13010W        W13875   1.296  16.023   1.188
13011W        W13876   0.811  15.871   1.352
13012W        W13877   1.802  16.686   0.786
13013W        W13878   1.477  17.778   3.141
13014W        W13879   0.126  15.339   3.104
13015W        W13880   0.888  14.619   2.906
13016W        W13881   2.582  15.007   1.793
13017W        W13882   2.231  15.878   0.363
13018W        W13883   2.801  15.312   3.454
13019W        W13884   0.167  15.104   2.579
13020W        W13885   0.266  17.723   3.600
13021W        W13886   1.788  17.113   0.332
13022W        W13887   0.220  15.896   2.025
13023W        W13888   1.113  15.787   3.262
13024W        W13889   3.572  15.646   1.761
13025W        W13890   3.336  16.689   2.620
13026W        W13891   1.644  16.022   1.647
13027W        W13892   2.190  17.361   2.016
13028W        W13893   0.690  16.795   2.248
13029W        W13894   0.049  16.323   1.819
13030W        W13895   1.085  16.295   3.011
13031W        W13896   3.356  16.078   3.265
13032W        W13897   0.972  17.522   1.710
13033W        W13898   2.093  17.211   2.844
13034W        W13899   1.313  15.851   2.069
13035W        W13900   1.605  16.635   1.712
13036W        W13901   2.602  17.408   3.560
13037W        W13902   1.681  16.728   3.570
13038W        W13903   1.662  16.444   3.048
13039W        W13904   0.071  15.835   3.570
13040W        W13905   2.903  17.370   3.169
13041W        W13906   0.484  14.952   1.167
13042W        W13907   1.011  17.210   2.166
13043W        W13908   3.474  16.993   1.456
13044W        W13909   2.887  15.393   2.023
13045W        W13910   3.172  15.346   0.118
13046W        W13911   3.637  16.147   2.424
13047W        W13912   1.604  17.854   2.177
13048W        W13913   3.378  17.320   0.615
13049W        W13914   0.507  18.106   0.369
13050W        W13915   0.900  18.152   1.045
13051W        W13916   0.697  14.906   2.471
13052W        W13917   3.320  15.924   2.746
13053W        W13918   2.725  16.346   1.205
13054W        W13919   2.691  16.034   0.232
13055W        W13920   1.899  17.178   2.372
13056W        W13921   1.705  15.508   1.571
13057W        W13922   2.305  17.595   2.565
13058W        W13923   3.176  16.386   0.987
13059W        W13924   2.078  15.044   1.003
13060W        W13925   0.735  17.738   0.686
13061W        W13926   0.106  15.237   1.285
13062W        W13927   2.892  15.844   1.759
13063W        W13928   0.350  17.461   1.674
13064W        W13929   1.691  17.811   0.544
13065W        W13930   3.083  15.837   0.008
13066W        W13931   0.106  17.595   2.172
13067W        W13932   0.897  17.167   2.652
13068W        W13933   1.270  16.527   1.271
13069W        W13934   1.292  14.932   2.364
13070W        W13935   3.521  14.694   1.661
13071W        W13936   0.740  16.566   0.129
13072W        W13937   0.395  15.599   0.308
13073W        W13938   0.457  17.555   1.102
13074W        W13939   1.588  17.038   1.350
13075W        W13940   2.920  17.897   3.064
13076W        W13941   1.846  15.539   0.748
13077W        W13942   3.229  17.937   1.520
13078W        W13943   2.906  15.790   3.118
13079W        W13944   3.619  17.446   1.252
13080W        W13945   2.246  16.738   2.736
13081W        W13946   0.012  16.289   0.942
13082W        W13947   1.123  16.704   2.515
13083W        W13948   2.327  15.968   0.893
13084W        W13949   2.204  16.458   0.997
13085W        W13950   0.547  15.878   2.471
13086W        W13951   0.532  15.754   3.393
13087W        W13952   0.422  14.671   1.552
13088W        W13953   2.190  15.018   2.113
13089W        W13954   1.838  15.203   3.276
13090W        W13955   2.193  15.352   0.454
13091W        W13956   3.376  17.745   3.208
13092W        W13957   2.343  14.826   3.247
13093W        W13958   3.362  17.127   3.369
13094W        W13959   2.792  15.294   2.965
13095W        W13960   2.592  15.232   1.235
13096W        W13961   2.985  16.366   3.639
13097W        W13962   0.725  17.942   1.625
13098W        W13963   1.383  15.659   0.611
13099W        W13964   0.952  14.943   3.275
13100W        W13965   3.004  15.427   0.956
13101W        W13966   3.371  15.909   0.901
13102W        W13967   1.114  18.126   3.372
13103W        W13968   1.040  14.662   0.607
13104W        W13969   3.361  15.196   1.642
13105W        W13970   3.511  17.445   0.087
13106W        W13971   0.418  16.648   1.789
13107W        W13972   2.335  15.235   0.019
13108W        W13973   3.469  17.567   1.739
13109W        W13974   3.508  14.761   2.489
13110W        W13975   1.953  15.973   3.043
13111W        W13976   2.046  17.312   0.746
13112W        W13977   2.446  16.606   3.486
13113W        W13978   2.120  14.583   1.795
13114W        W13979   0.732  15.486   1.858
13115W        W13980   0.286  16.686   2.632
13116W        W13981   2.145  17.879   1.338
13117W        W13982   3.339  15.476   2.210
13118W        W13983   1.976  17.823   2.977
13119W        W13984   3.319  16.882   0.182
13120W        W13985   1.754  16.365   1.243
13121W        W13986   3.606  14.876   2.984
13122W        W13987   1.755  16.711   2.578
13123W        W13988   1.972  15.597   2.023
13124W        W13989   2.824  15.895   0.861
13125W        W13990   3.111  15.628   0.503
13126W        W13991   2.920  17.668   0.892
13127W        W13992   2.754  17.271   1.688
13128W        W13993   2.650  16.350   0.666
13129W        W13994   2.083  16.560   1.652
13130W        W13995   2.964  16.348   1.719
13131W        W13996   0.339  15.363   2.143
13132W        W13997   3.117  16.415   2.970
13133W        W13998   3.468  18.033   2.116
13134W        W13999   1.398  17.477   1.518
13135W        W14000   2.405  18.010   2.842
13136W        W14001   2.399  15.340   2.606
13137W        W14002   1.606  18.048   2.667
13138W        W14003   3.303  15.002   1.133
13139W        W14004   3.094  16.321   2.434
13140W        W14005   0.077  15.642   2.472
13141W        W14006   2.937  15.437   1.490
13142W        W14007   3.348  15.588   3.267
13143W        W14008   2.233  17.287   1.485
13144W        W14009   1.489  17.878   1.098
13145W        W14010   0.604  15.058   0.356
13146W        W14011   1.708  14.712   2.166
13147W        W14012   0.736  17.832   0.014
13148W        W14013   1.110  16.298   0.765
13149W        W14014   1.764  16.927   3.078
13150W        W14015   1.594  15.285   1.068
13151W        W14016   2.950  14.882   1.496
13152W        W14017   2.670  18.164   1.824
13153W        W14018   2.082  17.812   2.164
13154W        W14019   1.478  16.849   2.125
13155W        W14020   3.248  17.572   2.251
13156W        W14021   0.942  15.075   1.020
13157W        W14022   1.464  17.372   1.980
13158W        W14023   0.947  15.303   0.045
13159W        W14024   1.748  15.912   2.439
13160W        W14025   2.596  14.778   2.309
13161W        W14026   0.016  16.621   2.194
13162W        W14027   1.720  16.439   0.352
13163W        W14028   0.988  14.754   0.122
13164W        W14029   1.726  15.835   1.173
13165W        W14030   2.696  14.811   2.872
13166W        W14031   1.284  16.823   2.981
13167W        W14032   2.088  16.605   3.198
13168W        W14033   2.705  16.635   3.091
13169W        W14034   1.989  14.775   3.596
13170W        W14035   1.211  15.391   1.989
13171W        W14036   0.637  15.347   1.387
13172W        W14037   0.423  18.059   1.063
13173W        W14038   1.755  17.389   3.188
13174W        W14039   0.790  16.874   0.547
13175W        W14040   2.470  16.259   1.768
13176W        W14041   2.750  16.058   2.167
13177W        W14042   1.955  16.732   2.101
13178W        W14043   2.425  17.106   0.233
13179W        W14044   2.097  15.127   1.561
13180W        W14045   3.576  15.405   0.829
13181W        W14046   0.070  17.994   2.860
13182W        W14047   0.487  17.220   2.392
13183W        W14048   0.054  18.066   0.624
13184W        W14049   1.953  15.336   2.430
13185W        W14050   1.316  17.359   0.279
13186W        W14051   3.221  17.741   0.465
13187W        W14052   2.196  16.394   0.479
13188W        W14053   1.039  15.585   0.996
13189W        W14054   1.871  15.495   0.048
13190W        W14055   2.455  17.060   3.226
13191W        W14056   2.808  14.966   0.843
13192W        W14057   0.138  14.814   0.291
13193W        W14058   1.424  17.133   2.581
13194W        W14059   1.223  17.049   1.673
13195W        W14060   0.965  17.001   0.071
13196W        W14061   0.206  17.242   0.839
13197W        W14062   0.710  16.312   3.281
13198W        W14063   1.414  14.872   3.467
13199W        W14064   2.123  15.014   2.823
13200W        W14065   1.318  14.782   1.104
13201W        W14066   2.377  14.859   0.609
13202W        W14067   0.322  14.791   2.186
13203W        W14068   0.370  15.754   1.556
13204W        W14069   3.059  14.862   1.962
13205W        W14070   0.481  15.360   0.776
13206W        W14071   3.052  15.048   2.392
13207W        W14072   3.448  16.251   0.077
13208W        W14073   0.740  15.009   1.896
13209W        W14074   1.854  15.581   2.836
13210W        W14075   0.002  15.271   0.314
13211W        W14076   0.788  16.660   2.875
13212W        W14077   2.146  16.058   2.054
13213W        W14078   2.013  18.137   0.350
13214W        W14079   0.159  16.644   0.047
13215W        W14080   0.894  17.055   3.173
13216W        W14081   0.415  16.222   2.804
13217W        W14082   1.406  16.327   2.598
13218W        W14083   3.174  14.686   2.860
13219W        W14084   3.572  16.296   2.851
13220W        W14085   3.560  16.496   0.537
13221W        W14086   2.423  16.828   0.636
13222W        W14087   2.897  18.128   0.331
13223W        W14088   2.074  16.118   3.473
13224W        W14089   0.404  17.085   3.513
13225W        W14090   3.610  15.007   3.465
13226W        W14091   3.328  15.935   2.086
13227W        W14092   1.636  18.065   3.563
13228W        W14093   1.491  14.694   0.290
13229W        W14094   3.030  17.293   0.233
13230W        W14095   0.799  15.386   3.119
13231W        W14096   1.233  17.380   2.981
13232W        W14097   3.359  15.371   2.779
13233W        W14098   2.570  18.030   0.747
13234W        W14099   2.809  16.649   2.114
13235W        W14100   1.059  15.065   2.781
13236W        W14101   1.528  16.134   3.538
13237W        W14102   1.031  17.313   0.732
13238W        W14103   2.786  16.811   0.996
13239W        W14104   0.554  15.437   2.720
13240W        W14105   1.883  17.499   1.184
13241W        W14106   3.633  16.059   1.365
13242W        W14107   1.855  14.692   3.084
13243W        W14108   2.635  17.397   2.163
13244W        W14109   2.938  17.741   1.871
13245W        W14110   2.157  17.543   0.299
13246W        W14111   0.167  17.435   3.141
13247W        W14112   0.910  15.427   2.379
13248W        W14113   0.880  14.775   1.489
13249W        W14114   2.501  15.617   2.181
13250W        W14115   1.299  16.788   0.381
13251W        W14116   3.297  16.730   1.880
13252W        W14117   0.624  17.488   3.303
13253W        W14118   3.011  18.170   1.100
13254W        W14119   1.110  15.190   1.545
13255W        W14120   0.879  16.683   1.635
13256W        W14121   1.192  18.094   2.385
13257W        W14122   3.259  18.190   3.417
13258W        W14123   2.418  16.378   2.350
13259W        W14124   0.267  16.176   0.265
13260W        W14125   3.401  17.834   0.962
13261W        W14126   3.238  15.158   0.581
13262W        W14127   1.377  14.677   2.984
13263W        W14128   3.083  17.479   1.442
13264W        W14129   3.112  16.035   1.347
13265W        W14130   1.229  15.708   1.563
13266W        W14131   1.474  15.970   2.887
13267W        W14132   2.585  17.123   2.750
13268W        W14133   1.235  15.577   2.862
13269W        W14134   1.214  18.043   1.478
13270W        W14135   0.531  18.002   3.112
13271W        W14136   0.643  17.363   0.242
13272W        W14137   3.160  17.121   1.052
13273W        W14138   0.764  15.913   2.938
13274W        W14139   3.537  15.843   0.419
13275W        W14140   1.282  16.900   0.890
13276W        W14141   2.381  16.282   2.971
13277W        W14142   2.272  15.910   2.515
13278W        W14143   0.832  16.282   2.544
13279W        W14144   3.042  18.170   2.373
13280W        W14145   2.833  14.804   3.367
13281W        W14146   0.497  14.954   2.954
13282W        W14147   0.836  15.977   2.007
13283W        W14148   1.205  15.791   0.129
13284W        W14149   0.008  17.550   2.674
13285W        W14150   1.593  16.259   2.117
13286W        W14151   1.416  15.284   0.222
13287W        W14152   0.551  16.100   1.003
13288W        W14153   0.322  17.952   2.440
13289W        W14154   3.117  16.178   0.548
13290W        W14155   3.212  15.094   3.234
13291W        W14156   2.648  17.303   1.197
13292W        W14157   0.246  16.227   3.374
13293W        W14158   3.212  14.691   0.670
13294W        W14159   2.732  17.166   0.681
13295W        W14160   1.634  16.224   0.766
13296W        W14161   2.821  15.028   0.289
13297W        W14162   2.886  15.635   2.475
13298W        W14163   0.595  16.228   1.682
13299W        W14164   0.889  17.167   1.331
13300W        W14165   2.652  15.787   1.296
13301W        W14166   1.675  15.166   1.992
13302W        W14167   3.637  17.077   2.503
13303W        W14168   3.555  15.064   2.064
13304W        W14169   0.094  17.894   1.440
13305W        W14170   0.603  17.081   0.976
13306W        W14171   0.518  14.698   3.529
13307W        W14172   1.637  17.551   3.631
13308W        W14173   3.392  16.519   1.421
13309W        W14174   2.746  16.696   0.301
13310W        W14175   2.041  18.217   2.513
13311W        W14176   2.898  16.939   3.550
13312W        W14177   1.713  14.649   0.830
13313W        W14178   2.426  15.518   1.689
13314W        W14179   0.112  17.105   2.021
13315W        W14180   1.365  15.067   0.662
13316W        W14181   1.169  16.551   3.511
13317W        W14182   2.163  15.532   1.225
13318W        W14183   2.368  16.942   2.347
13319W        W14184   0.522  17.547   2.782
13320W        W14185   1.113  17.530   3.505
13321W        W14186   0.964  15.327   0.519
13322W        W14187   2.481  15.469   0.844
13323W        W14188   2.439  17.577   3.081
13324W        W14189   1.124  16.169   1.680
13325W        W14190   0.779  17.867   2.545
13326W        W14191   3.524  17.984   0.146
13327W        W14192   0.387  16.656   3.142
13328W        W14193   2.382  16.918   1.830
13329W        W14194   0.818  16.567   1.072
13330W        W14195   1.189  17.574   2.467
13331W        W14196   1.567  14.993   1.508
13332W        W14197   0.178  16.977   0.438
13333W        W14198   1.697  15.928   0.308
13334W        W14199   0.343  16.477   1.327
13335W        W14200   1.633  15.119   2.791
13336W        W14201   3.305  14.828   0.218
13337W        W14202   3.398  16.574   3.317
13338W        W14203   2.052  17.831   3.469
13339W        W14204   3.610  16.925   2.991
13340W        W14205   3.018  17.723   3.602
13341W        W14206   0.757  18.179   2.080
13342W        W14207   3.616  16.801   0.954
13343W        W14208   2.146  16.068   1.467
13344W        W14209   1.913  14.680   1.357
13345W        W14210   0.972  17.664   1.194
13346W        W14211   1.471  15.405   2.419
13347W        W14212   1.171  14.774   1.888
13348W        W14213   0.234  17.596   0.436
13349W        W14214   2.050  16.960   1.154
13350W        W14215   0.925  17.755   3.033
13351W        W14216   0.402  16.578   0.729
13352W        W14217   0.287  15.121   1.728
13353W        W14218   1.835  17.086   1.785
13354W        W14219   0.087  14.940   0.805
13355W        W14220   2.751  16.146   2.732
13356W        W14221   2.628  15.532   0.304
13357W        W14222   3.145  17.204   1.952
13358W        W14223   1.806  17.688   1.783
13359W        W14224   1.218  17.792   0.694
13360W        W14225   2.500  14.695   0.124
13361W        W14226   0.300  17.955   1.865
13362W        W14227   2.497  15.713   3.500
13363W        W14228   0.480  15.243   3.499
13364W        W14229   0.211  15.843   0.832
13365W        W14230   0.902  15.832   0.557
13366W        W14231   2.665  16.159   3.374
13367W        W14232   1.008  16.440   2.083
13368W        W14233   2.482  14.726   1.203
13369W        W14234   1.613  18.157   1.706
13370W        W14235   2.827  17.619   2.643
13371W        W14236   2.411  17.768   1.754
13372W        W14237   2.430  16.748   1.348
13373W        W14238   1.892  14.973   0.419
13374W        W14239   3.573  14.601   1.141
13375W        W14240   1.261  16.236   0.304
13376W        W14241   3.427  15.573   1.294
13377W        W14242   2.119  16.743   0.171
13378W        W14243   3.055  16.943   2.919
13379W        W14244   2.709  17.644   0.386
13380W        W14245   1.324  15.319   3.292
13381W        W14246   1.144  15.903   2.533
13382W        W14247   3.236  17.398   2.810
13383W        W14248   2.336  15.348   3.187
13384W        W14249   0.180  15.819   2.964
13385W        W14250   1.940  16.296   2.690
13386W        W14251   0.297  17.054   1.347
13387W        W14252   0.444  16.351   2.237
13388W        W14253   2.761  16.637   2.587
13389W        W14254   2.533  18.017   3.398
13390W        W14255   2.429  15.756   2.951
13391W        W14256   2.706  17.810   1.356
13392W        W14257   1.708  17.530   2.679
13393W        W14258   1.193  17.885   1.948
13394W        W14259   2.998  17.056   2.367
13395W        W14260   2.048  17.128   3.504
13396W        W14261   0.653  17.081   1.843
13397W        W14262   2.999  16.840   1.488
13398W        W14263   2.640  17.906   2.239
13399W        W14264   0.618  17.635   2.109
13400W        W14265   1.639  15.687   3.319
13401W        W14266   2.090  17.853   0.830
13402W        W14267   1.398  17.108   3.468
13403W        W14268   1.524  17.346   0.845
13404W        W14269   0.745  16.086   0.104
13405W        W14270   0.084  18.172   7.003
13406W        W14271   0.460  17.065   6.526
13407W        W14272   3.165  16.795   4.296
13408W        W14273   3.295  17.880   6.323
13409W        W14274   1.213  17.871   3.849
13410W        W14275   1.296  16.023   4.832
13411W        W14276   0.811  15.871   4.996
13412W        W14277   1.802  16.686   4.430
13413W        W14278   1.477  17.778   6.785
13414W        W14279   0.126  15.339   6.748
13415W        W14280   0.888  14.619   6.550
13416W        W14281   2.582  15.007   5.437
13417W        W14282   2.231  15.878   4.007
13418W        W14283   2.801  15.312   7.098
13419W        W14284   0.167  15.104   6.223
13420W        W14285   0.266  17.723   7.244
13421W        W14286   1.788  17.113   3.976
13422W        W14287   0.220  15.896   5.669
13423W        W14288   1.113  15.787   6.906
13424W        W14289   3.572  15.646   5.405
13425W        W14290   3.336  16.689   6.264
13426W        W14291   1.644  16.022   5.291
13427W        W14292   2.190  17.361   5.660
13428W        W14293   0.690  16.795   5.892
13429W        W14294   0.049  16.323   5.463
13430W        W14295   1.085  16.295   6.655
13431W        W14296   3.356  16.078   6.909
13432W        W14297   0.972  17.522   5.354
13433W        W14298   2.093  17.211   6.488
13434W        W14299   1.313  15.851   5.713
13435W        W14300   1.605  16.635   5.356
13436W        W14301   2.602  17.408   7.204
13437W        W14302   1.681  16.728   7.214
13438W        W14303   1.662  16.444   6.692
13439W        W14304   0.071  15.835   7.214
13440W        W14305   2.903  17.370   6.813
13441W        W14306   0.484  14.952   4.811
13442W        W14307   1.011  17.210   5.810
13443W        W14308   3.474  16.993   5.100
13444W        W14309   2.887  15.393   5.667
13445W        W14310   3.172  15.346   3.762
13446W        W14311   3.637  16.147   6.068
13447W        W14312   1.604  17.854   5.821
13448W        W14313   3.378  17.320   4.259
13449W        W14314   0.507  18.106   4.013
13450W        W14315   0.900  18.152   4.689
13451W        W14316   0.697  14.906   6.115
13452W        W14317   3.320  15.924   6.390
13453W        W14318   2.725  16.346   4.849
13454W        W14319   2.691  16.034   3.876
13455W        W14320   1.899  17.178   6.016
13456W        W14321   1.705  15.508   5.215
13457W        W14322   2.305  17.595   6.209
13458W        W14323   3.176  16.386   4.631
13459W        W14324   2.078  15.044   4.647
13460W        W14325   0.735  17.738   4.330
13461W        W14326   0.106  15.237   4.929
13462W        W14327   2.892  15.844   5.403
13463W        W14328   0.350  17.461   5.318
13464W        W14329   1.691  17.811   4.188
13465W        W14330   3.083  15.837   3.652
13466W        W14331   0.106  17.595   5.816
13467W        W14332   0.897  17.167   6.296
13468W        W14333   1.270  16.527   4.915
13469W        W14334   1.292  14.932   6.008
13470W        W14335   3.521  14.694   5.305
13471W        W14336   0.740  16.566   3.773
13472W        W14337   0.395  15.599   3.952
13473W        W14338   0.457  17.555   4.746
13474W        W14339   1.588  17.038   4.994
13475W        W14340   2.920  17.897   6.708
13476W        W14341   1.846  15.539   4.392
13477W        W14342   3.229  17.937   5.164
13478W        W14343   2.906  15.790   6.762
13479W        W14344   3.619  17.446   4.896
13480W        W14345   2.246  16.738   6.380
13481W        W14346   0.012  16.289   4.586
13482W        W14347   1.123  16.704   6.159
13483W        W14348   2.327  15.968   4.537
13484W        W14349   2.204  16.458   4.641
13485W        W14350   0.547  15.878   6.115
13486W        W14351   0.532  15.754   7.037
13487W        W14352   0.422  14.671   5.196
13488W        W14353   2.190  15.018   5.757
13489W        W14354   1.838  15.203   6.920
13490W        W14355   2.193  15.352   4.098
13491W        W14356   3.376  17.745   6.852
13492W        W14357   2.343  14.826   6.891
13493W        W14358   3.362  17.127   7.013
13494W        W14359   2.792  15.294   6.609
13495W        W14360   2.592  15.232   4.879
13496W        W14361   2.985  16.366   7.283
13497W        W14362   0.725  17.942   5.269
13498W        W14363   1.383  15.659   4.255
13499W        W14364   0.952  14.943   6.919
13500W        W14365   3.004  15.427   4.600
13501W        W14366   3.371  15.909   4.545
13502W        W14367   1.114  18.126   7.016
13503W        W14368   1.040  14.662   4.251
13504W        W14369   3.361  15.196   5.286
13505W        W14370   3.511  17.445   3.731
13506W        W14371   0.418  16.648   5.433
13507W        W14372   2.335  15.235   3.663
13508W        W14373   3.469  17.567   5.383
13509W        W14374   3.508  14.761   6.133
13510W        W14375   1.953  15.973   6.687
13511W        W14376   2.046  17.312   4.390
13512W        W14377   2.446  16.606   7.130
13513W        W14378   2.120  14.583   5.439
13514W        W14379   0.732  15.486   5.502
13515W        W14380   0.286  16.686   6.276
13516W        W14381   2.145  17.879   4.982
13517W        W14382   3.339  15.476   5.854
13518W        W14383   1.976  17.823   6.621
13519W        W14384   3.319  16.882   3.826
13520W        W14385   1.754  16.365   4.887
13521W        W14386   3.606  14.876   6.628
13522W        W14387   1.755  16.711   6.222
13523W        W14388   1.972  15.597   5.667
13524W        W14389   2.824  15.895   4.505
13525W        W14390   3.111  15.628   4.147
13526W        W14391   2.920  17.668   4.536
13527W        W14392   2.754  17.271   5.332
13528W        W14393   2.650  16.350   4.310
13529W        W14394   2.083  16.560   5.296
13530W        W14395   2.964  16.348   5.363
13531W        W14396   0.339  15.363   5.787
13532W        W14397   3.117  16.415   6.614
13533W        W14398   3.468  18.033   5.760
13534W        W14399   1.398  17.477   5.162
13535W        W14400   2.405  18.010   6.486
13536W        W14401   2.399  15.340   6.250
13537W        W14402   1.606  18.048   6.311
13538W        W14403   3.303  15.002   4.777
13539W        W14404   3.094  16.321   6.078
13540W        W14405   0.077  15.642   6.116
13541W        W14406   2.937  15.437   5.134
13542W        W14407   3.348  15.588   6.911
13543W        W14408   2.233  17.287   5.129
13544W        W14409   1.489  17.878   4.742
13545W        W14410   0.604  15.058   4.000
13546W        W14411   1.708  14.712   5.810
13547W        W14412   0.736  17.832   3.658
13548W        W14413   1.110  16.298   4.409
13549W        W14414   1.764  16.927   6.722
13550W        W14415   1.594  15.285   4.712
13551W        W14416   2.950  14.882   5.140
13552W        W14417   2.670  18.164   5.468
13553W        W14418   2.082  17.812   5.808
13554W        W14419   1.478  16.849   5.769
13555W        W14420   3.248  17.572   5.895
13556W        W14421   0.942  15.075   4.664
13557W        W14422   1.464  17.372   5.624
13558W        W14423   0.947  15.303   3.689
13559W        W14424   1.748  15.912   6.083
13560W        W14425   2.596  14.778   5.953
13561W        W14426   0.016  16.621   5.838
13562W        W14427   1.720  16.439   3.996
13563W        W14428   0.988  14.754   3.766
13564W        W14429   1.726  15.835   4.817
13565W        W14430   2.696  14.811   6.516
13566W        W14431   1.284  16.823   6.625
13567W        W14432   2.088  16.605   6.842
13568W        W14433   2.705  16.635   6.735
13569W        W14434   1.989  14.775   7.240
13570W        W14435   1.211  15.391   5.633
13571W        W14436   0.637  15.347   5.031
13572W        W14437   0.423  18.059   4.707
13573W        W14438   1.755  17.389   6.832
13574W        W14439   0.790  16.874   4.191
13575W        W14440   2.470  16.259   5.412
13576W        W14441   2.750  16.058   5.811
13577W        W14442   1.955  16.732   5.745
13578W        W14443   2.425  17.106   3.877
13579W        W14444   2.097  15.127   5.205
13580W        W14445   3.576  15.405   4.473
13581W        W14446   0.070  17.994   6.504
13582W        W14447   0.487  17.220   6.036
13583W        W14448   0.054  18.066   4.268
13584W        W14449   1.953  15.336   6.074
13585W        W14450   1.316  17.359   3.923
13586W        W14451   3.221  17.741   4.109
13587W        W14452   2.196  16.394   4.123
13588W        W14453   1.039  15.585   4.640
13589W        W14454   1.871  15.495   3.692
13590W        W14455   2.455  17.060   6.870
13591W        W14456   2.808  14.966   4.487
13592W        W14457   0.138  14.814   3.935
13593W        W14458   1.424  17.133   6.225
13594W        W14459   1.223  17.049   5.317
13595W        W14460   0.965  17.001   3.715
13596W        W14461   0.206  17.242   4.483
13597W        W14462   0.710  16.312   6.925
13598W        W14463   1.414  14.872   7.111
13599W        W14464   2.123  15.014   6.467
13600W        W14465   1.318  14.782   4.748
13601W        W14466   2.377  14.859   4.253
13602W        W14467   0.322  14.791   5.830
13603W        W14468   0.370  15.754   5.200
13604W        W14469   3.059  14.862   5.606
13605W        W14470   0.481  15.360   4.420
13606W        W14471   3.052  15.048   6.036
13607W        W14472   3.448  16.251   3.721
13608W        W14473   0.740  15.009   5.540
13609W        W14474   1.854  15.581   6.480
13610W        W14475   0.002  15.271   3.958
13611W        W14476   0.788  16.660   6.519
13612W        W14477   2.146  16.058   5.698
13613W        W14478   2.013  18.137   3.994
13614W        W14479   0.159  16.644   3.691
13615W        W14480   0.894  17.055   6.817
13616W        W14481   0.415  16.222   6.448
13617W        W14482   1.406  16.327   6.242
13618W        W14483   3.174  14.686   6.504
13619W        W14484   3.572  16.296   6.495
13620W        W14485   3.560  16.496   4.181
13621W        W14486   2.423  16.828   4.280
13622W        W14487   2.897  18.128   3.975
13623W        W14488   2.074  16.118   7.117
13624W        W14489   0.404  17.085   7.157
13625W        W14490   3.610  15.007   7.109
13626W        W14491   3.328  15.935   5.730
13627W        W14492   1.636  18.065   7.207
13628W        W14493   1.491  14.694   3.934
13629W        W14494   3.030  17.293   3.877
13630W        W14495   0.799  15.386   6.763
13631W        W14496   1.233  17.380   6.625
13632W        W14497   3.359  15.371   6.423
13633W        W14498   2.570  18.030   4.391
13634W        W14499   2.809  16.649   5.758
13635W        W14500   1.059  15.065   6.425
13636W        W14501   1.528  16.134   7.182
13637W        W14502   1.031  17.313   4.376
13638W        W14503   2.786  16.811   4.640
13639W        W14504   0.554  15.437   6.364
13640W        W14505   1.883  17.499   4.828
13641W        W14506   3.633  16.059   5.009
13642W        W14507   1.855  14.692   6.728
13643W        W14508   2.635  17.397   5.807
13644W        W14509   2.938  17.741   5.515
13645W        W14510   2.157  17.543   3.943
13646W        W14511   0.167  17.435   6.785
13647W        W14512   0.910  15.427   6.023
13648W        W14513   0.880  14.775   5.133
13649W        W14514   2.501  15.617   5.825
13650W        W14515   1.299  16.788   4.025
13651W        W14516   3.297  16.730   5.524
13652W        W14517   0.624  17.488   6.947
13653W        W14518   3.011  18.170   4.744
13654W        W14519   1.110  15.190   5.189
13655W        W14520   0.879  16.683   5.279
13656W        W14521   1.192  18.094   6.029
13657W        W14522   3.259  18.190   7.061
13658W        W14523   2.418  16.378   5.994
13659W        W14524   0.267  16.176   3.909
13660W        W14525   3.401  17.834   4.606
13661W        W14526   3.238  15.158   4.225
13662W        W14527   1.377  14.677   6.628
13663W        W14528   3.083  17.479   5.086
13664W        W14529   3.112  16.035   4.991
13665W        W14530   1.229  15.708   5.207
13666W        W14531   1.474  15.970   6.531
13667W        W14532   2.585  17.123   6.394
13668W        W14533   1.235  15.577   6.506
13669W        W14534   1.214  18.043   5.122
13670W        W14535   0.531  18.002   6.756
13671W        W14536   0.643  17.363   3.886
13672W        W14537   3.160  17.121   4.696
13673W        W14538   0.764  15.913   6.582
13674W        W14539   3.537  15.843   4.063
13675W        W14540   1.282  16.900   4.534
13676W        W14541   2.381  16.282   6.615
13677W        W14542   2.272  15.910   6.159
13678W        W14543   0.832  16.282   6.188
13679W        W14544   3.042  18.170   6.017
13680W        W14545   2.833  14.804   7.011
13681W        W14546   0.497  14.954   6.598
13682W        W14547   0.836  15.977   5.651
13683W        W14548   1.205  15.791   3.773
13684W        W14549   0.008  17.550   6.318
13685W        W14550   1.593  16.259   5.761
13686W        W14551   1.416  15.284   3.866
13687W        W14552   0.551  16.100   4.647
13688W        W14553   0.322  17.952   6.084
13689W        W14554   3.117  16.178   4.192
13690W        W14555   3.212  15.094   6.878
13691W        W14556   2.648  17.303   4.841
13692W        W14557   0.246  16.227   7.018
13693W        W14558   3.212  14.691   4.314
13694W        W14559   2.732  17.166   4.325
13695W        W14560   1.634  16.224   4.410
13696W        W14561   2.821  15.028   3.933
13697W        W14562   2.886  15.635   6.119
13698W        W14563   0.595  16.228   5.326
13699W        W14564   0.889  17.167   4.975
13700W        W14565   2.652  15.787   4.940
13701W        W14566   1.675  15.166   5.636
13702W        W14567   3.637  17.077   6.147
13703W        W14568   3.555  15.064   5.708
13704W        W14569   0.094  17.894   5.084
13705W        W14570   0.603  17.081   4.620
13706W        W14571   0.518  14.698   7.173
13707W        W14572   1.637  17.551   7.275
13708W        W14573   3.392  16.519   5.065
13709W        W14574   2.746  16.696   3.945
13710W        W14575   2.041  18.217   6.157
13711W        W14576   2.898  16.939   7.194
13712W        W14577   1.713  14.649   4.474
13713W        W14578   2.426  15.518   5.333
13714W        W14579   0.112  17.105   5.665
13715W        W14580   1.365  15.067   4.306
13716W        W14581   1.169  16.551   7.155
13717W        W14582   2.163  15.532   4.869
13718W        W14583   2.368  16.942   5.991
13719W        W14584   0.522  17.547   6.426
13720W        W14585   1.113  17.530   7.149
13721W        W14586   0.964  15.327   4.163
13722W        W14587   2.481  15.469   4.488
13723W        W14588   2.439  17.577   6.725
13724W        W14589   1.124  16.169   5.324
13725W        W14590   0.779  17.867   6.189
13726W        W14591   3.524  17.984   3.790
13727W        W14592   0.387  16.656   6.786
13728W        W14593   2.382  16.918   5.474
13729W        W14594   0.818  16.567   4.716
13730W        W14595   1.189  17.574   6.111
13731W        W14596   1.567  14.993   5.152
13732W        W14597   0.178  16.977   4.082
13733W        W14598   1.697  15.928   3.952
13734W        W14599   0.343  16.477   4.971
13735W        W14600   1.633  15.119   6.435
13736W        W14601   3.305  14.828   3.862
13737W        W14602   3.398  16.574   6.961
13738W        W14603   2.052  17.831   7.113
13739W        W14604   3.610  16.925   6.635
13740W        W14605   3.018  17.723   7.246
13741W        W14606   0.757  18.179   5.724
13742W        W14607   3.616  16.801   4.598
13743W        W14608   2.146  16.068   5.111
13744W        W14609   1.913  14.680   5.001
13745W        W14610   0.972  17.664   4.838
13746W        W14611   1.471  15.405   6.063
13747W        W14612   1.171  14.774   5.532
13748W        W14613   0.234  17.596   4.080
13749W        W14614   2.050  16.960   4.798
13750W        W14615   0.925  17.755   6.677
13751W        W14616   0.402  16.578   4.373
13752W        W14617   0.287  15.121   5.372
13753W        W14618   1.835  17.086   5.429
13754W        W14619   0.087  14.940   4.449
13755W        W14620   2.751  16.146   6.376
13756W        W14621   2.628  15.532   3.948
13757W        W14622   3.145  17.204   5.596
13758W        W14623   1.806  17.688   5.427
13759W        W14624   1.218  17.792   4.338
13760W        W14625   2.500  14.695   3.768
13761W        W14626   0.300  17.955   5.509
13762W        W14627   2.497  15.713   7.144
13763W        W14628   0.480  15.243   7.143
13764W        W14629   0.211  15.843   4.476
13765W        W14630   0.902  15.832   4.201
13766W        W14631   2.665  16.159   7.018
13767W        W14632   1.008  16.440   5.727
13768W        W14633   2.482  14.726   4.847
13769W        W14634   1.613  18.157   5.350
13770W        W14635   2.827  17.619   6.287
13771W        W14636   2.411  17.768   5.398
13772W        W14637   2.430  16.748   4.992
13773W        W14638   1.892  14.973   4.063
13774W        W14639   3.573  14.601   4.785
13775W        W14640   1.261  16.236   3.948
13776W        W14641   3.427  15.573   4.938
13777W        W14642   2.119  16.743   3.815
13778W        W14643   3.055  16.943   6.563
13779W        W14644   2.709  17.644   4.030
13780W        W14645   1.324  15.319   6.936
13781W        W14646   1.144  15.903   6.177
13782W        W14647   3.236  17.398   6.454
13783W        W14648   2.336  15.348   6.831
13784W        W14649   0.180  15.819   6.608
13785W        W14650   1.940  16.296   6.334
13786W        W14651   0.297  17.054   4.991
13787W        W14652   0.444  16.351   5.881
13788W        W14653   2.761  16.637   6.231
13789W        W14654   2.533  18.017   7.042
13790W        W14655   2.429  15.756   6.595
13791W        W14656   2.706  17.810   5.000
13792W        W14657   1.708  17.530   6.323
13793W        W14658   1.193  17.885   5.592
13794W        W14659   2.998  17.056   6.011
13795W        W14660   2.048  17.128   7.148
13796W        W14661   0.653  17.081   5.487
13797W        W14662   2.999  16.840   5.132
13798W        W14663   2.640  17.906   5.883
13799W        W14664   0.618  17.635   5.753
13800W        W14665   1.639  15.687   6.963
13801W        W14666   2.090  17.853   4.474
13802W        W14667   1.398  17.108   7.112
13803W        W14668   1.524  17.346   4.489
13804W        W14669   0.745  16.086   3.748
13805W        W14670   0.084  18.172  10.648
13806W        W14671   0.460  17.065  10.171
13807W        W14672   3.165  16.795   7.941
13808W        W14673   3.295  17.880   9.968
13809W        W14674   1.213  17.871   7.494
13810W        W14675   1.296  16.023   8.477
13811W        W14676   0.811  15.871   8.641
13812W        W14677   1.802  16.686   8.075
13813W        W14678   1.477  17.778  10.430
13814W        W14679   0.126  15.339  10.393
13815W        W14680   0.888  14.619  10.195
13816W        W14681   2.582  15.007   9.082
13817W        W14682   2.231  15.878   7.652
13818W        W14683   2.801  15.312  10.743
13819W        W14684   0.167  15.104   9.868
13820W        W14685   0.266  17.723  10.889
13821W        W14686   1.788  17.113   7.621
13822W        W14687   0.220  15.896   9.314
13823W        W14688   1.113  15.787  10.551
13824W        W14689   3.572  15.646   9.050
13825W        W14690   3.336  16.689   9.909
13826W        W14691   1.644  16.022   8.936
13827W        W14692   2.190  17.361   9.305
13828W        W14693   0.690  16.795   9.537
13829W        W14694   0.049  16.323   9.108
13830W        W14695   1.085  16.295  10.300
13831W        W14696   3.356  16.078  10.554
13832W        W14697   0.972  17.522   8.999
13833W        W14698   2.093  17.211  10.133
13834W        W14699   1.313  15.851   9.358
13835W        W14700   1.605  16.635   9.001
13836W        W14701   2.602  17.408  10.849
13837W        W14702   1.681  16.728  10.859
13838W        W14703   1.662  16.444  10.337
13839W        W14704   0.071  15.835  10.859
13840W        W14705   2.903  17.370  10.458
13841W        W14706   0.484  14.952   8.456
13842W        W14707   1.011  17.210   9.455
13843W        W14708   3.474  16.993   8.745
13844W        W14709   2.887  15.393   9.312
13845W        W14710   3.172  15.346   7.407
13846W        W14711   3.637  16.147   9.713
13847W        W14712   1.604  17.854   9.466
13848W        W14713   3.378  17.320   7.904
13849W        W14714   0.507  18.106   7.658
13850W        W14715   0.900  18.152   8.334
13851W        W14716   0.697  14.906   9.760
13852W        W14717   3.320  15.924  10.035
13853W        W14718   2.725  16.346   8.494
13854W        W14719   2.691  16.034   7.521
13855W        W14720   1.899  17.178   9.661
13856W        W14721   1.705  15.508   8.860
13857W        W14722   2.305  17.595   9.854
13858W        W14723   3.176  16.386   8.276
13859W        W14724   2.078  15.044   8.292
13860W        W14725   0.735  17.738   7.975
13861W        W14726   0.106  15.237   8.574
13862W        W14727   2.892  15.844   9.048
13863W        W14728   0.350  17.461   8.963
13864W        W14729   1.691  17.811   7.833
13865W        W14730   3.083  15.837   7.297
13866W        W14731   0.106  17.595   9.461
13867W        W14732   0.897  17.167   9.941
13868W        W14733   1.270  16.527   8.560
13869W        W14734   1.292  14.932   9.653
13870W        W14735   3.521  14.694   8.950
13871W        W14736   0.740  16.566   7.418
13872W        W14737   0.395  15.599   7.597
13873W        W14738   0.457  17.555   8.391
13874W        W14739   1.588  17.038   8.639
13875W        W14740   2.920  17.897  10.353
13876W        W14741   1.846  15.539   8.037
13877W        W14742   3.229  17.937   8.809
13878W        W14743   2.906  15.790  10.407
13879W        W14744   3.619  17.446   8.541
13880W        W14745   2.246  16.738  10.025
13881W        W14746   0.012  16.289   8.231
13882W        W14747   1.123  16.704   9.804
13883W        W14748   2.327  15.968   8.182
13884W        W14749   2.204  16.458   8.286
13885W        W14750   0.547  15.878   9.760
13886W        W14751   0.532  15.754  10.682
13887W        W14752   0.422  14.671   8.841
13888W        W14753   2.190  15.018   9.402
13889W        W14754   1.838  15.203  10.565
13890W        W14755   2.193  15.352   7.743
13891W        W14756   3.376  17.745  10.497
13892W        W14757   2.343  14.826  10.536
13893W        W14758   3.362  17.127  10.658
13894W        W14759   2.792  15.294  10.254
13895W        W14760   2.592  15.232   8.524
13896W        W14761   2.985  16.366  10.928
13897W        W14762   0.725  17.942   8.914
13898W        W14763   1.383  15.659   7.900
13899W        W14764   0.952  14.943  10.564
13900W        W14765   3.004  15.427   8.245
13901W        W14766   3.371  15.909   8.190
13902W        W14767   1.114  18.126  10.661
13903W        W14768   1.040  14.662   7.896
13904W        W14769   3.361  15.196   8.931
13905W        W14770   3.511  17.445   7.376
13906W        W14771   0.418  16.648   9.078
13907W        W14772   2.335  15.235   7.308
13908W        W14773   3.469  17.567   9.028
13909W        W14774   3.508  14.761   9.778
13910W        W14775   1.953  15.973  10.332
13911W        W14776   2.046  17.312   8.035
13912W        W14777   2.446  16.606  10.775
13913W        W14778   2.120  14.583   9.084
13914W        W14779   0.732  15.486   9.147
13915W        W14780   0.286  16.686   9.921
13916W        W14781   2.145  17.879   8.627
13917W        W14782   3.339  15.476   9.499
13918W        W14783   1.976  17.823  10.266
13919W        W14784   3.319  16.882   7.471
13920W        W14785   1.754  16.365   8.532
13921W        W14786   3.606  14.876  10.273
13922W        W14787   1.755  16.711   9.867
13923W        W14788   1.972  15.597   9.312
13924W        W14789   2.824  15.895   8.150
13925W        W14790   3.111  15.628   7.792
13926W        W14791   2.920  17.668   8.181
13927W        W14792   2.754  17.271   8.977
13928W        W14793   2.650  16.350   7.955
13929W        W14794   2.083  16.560   8.941
13930W        W14795   2.964  16.348   9.008
13931W        W14796   0.339  15.363   9.432
13932W        W14797   3.117  16.415  10.259
13933W        W14798   3.468  18.033   9.405
13934W        W14799   1.398  17.477   8.807
13935W        W14800   2.405  18.010  10.131
13936W        W14801   2.399  15.340   9.895
13937W        W14802   1.606  18.048   9.956
13938W        W14803   3.303  15.002   8.422
13939W        W14804   3.094  16.321   9.723
13940W        W14805   0.077  15.642   9.761
13941W        W14806   2.937  15.437   8.779
13942W        W14807   3.348  15.588  10.556
13943W        W14808   2.233  17.287   8.774
13944W        W14809   1.489  17.878   8.387
13945W        W14810   0.604  15.058   7.645
13946W        W14811   1.708  14.712   9.455
13947W        W14812   0.736  17.832   7.303
13948W        W14813   1.110  16.298   8.054
13949W        W14814   1.764  16.927  10.367
13950W        W14815   1.594  15.285   8.357
13951W        W14816   2.950  14.882   8.785
13952W        W14817   2.670  18.164   9.113
13953W        W14818   2.082  17.812   9.453
13954W        W14819   1.478  16.849   9.414
13955W        W14820   3.248  17.572   9.540
13956W        W14821   0.942  15.075   8.309
13957W        W14822   1.464  17.372   9.269
13958W        W14823   0.947  15.303   7.334
13959W        W14824   1.748  15.912   9.728
13960W        W14825   2.596  14.778   9.598
13961W        W14826   0.016  16.621   9.483
13962W        W14827   1.720  16.439   7.641
13963W        W14828   0.988  14.754   7.411
13964W        W14829   1.726  15.835   8.462
13965W        W14830   2.696  14.811  10.161
13966W        W14831   1.284  16.823  10.270
13967W        W14832   2.088  16.605  10.487
13968W        W14833   2.705  16.635  10.380
13969W        W14834   1.989  14.775  10.885
13970W        W14835   1.211  15.391   9.278
13971W        W14836   0.637  15.347   8.676
13972W        W14837   0.423  18.059   8.352
13973W        W14838   1.755  17.389  10.477
13974W        W14839   0.790  16.874   7.836
13975W        W14840   2.470  16.259   9.057
13976W        W14841   2.750  16.058   9.456
13977W        W14842   1.955  16.732   9.390
13978W        W14843   2.425  17.106   7.522
13979W        W14844   2.097  15.127   8.850
13980W        W14845   3.576  15.405   8.118
13981W        W14846   0.070  17.994  10.149
13982W        W14847   0.487  17.220   9.681
13983W        W14848   0.054  18.066   7.913
13984W        W14849   1.953  15.336   9.719
13985W        W14850   1.316  17.359   7.568
13986W        W14851   3.221  17.741   7.754
13987W        W14852   2.196  16.394   7.768
13988W        W14853   1.039  15.585   8.285
13989W        W14854   1.871  15.495   7.337
13990W        W14855   2.455  17.060  10.515
13991W        W14856   2.808  14.966   8.132
13992W        W14857   0.138  14.814   7.580
13993W        W14858   1.424  17.133   9.870
13994W        W14859   1.223  17.049   8.962
13995W        W14860   0.965  17.001   7.360
13996W        W14861   0.206  17.242   8.128
13997W        W14862   0.710  16.312  10.570
13998W        W14863   1.414  14.872  10.756
13999W        W14864   2.123  15.014  10.112
14000W        W14865   1.318  14.782   8.393
14001W        W14866   2.377  14.859   7.898
14002W        W14867   0.322  14.791   9.475
14003W        W14868   0.370  15.754   8.845
14004W        W14869   3.059  14.862   9.251
14005W        W14870   0.481  15.360   8.065
14006W        W14871   3.052  15.048   9.681
14007W        W14872   3.448  16.251   7.366
14008W        W14873   0.740  15.009   9.185
14009W        W14874   1.854  15.581  10.125
14010W        W14875   0.002  15.271   7.603
14011W        W14876   0.788  16.660  10.164
14012W        W14877   2.146  16.058   9.343
14013W        W14878   2.013  18.137   7.639
14014W        W14879   0.159  16.644   7.336
14015W        W14880   0.894  17.055  10.462
14016W        W14881   0.415  16.222  10.093
14017W        W14882   1.406  16.327   9.887
14018W        W14883   3.174  14.686  10.149
14019W        W14884   3.572  16.296  10.140
14020W        W14885   3.560  16.496   7.826
14021W        W14886   2.423  16.828   7.925
14022W        W14887   2.897  18.128   7.620
14023W        W14888   2.074  16.118  10.762
14024W        W14889   0.404  17.085  10.802
14025W        W14890   3.610  15.007  10.754
14026W        W14891   3.328  15.935   9.375
14027W        W14892   1.636  18.065  10.852
14028W        W14893   1.491  14.694   7.579
14029W        W14894   3.030  17.293   7.522
14030W        W14895   0.799  15.386  10.408
14031W        W14896   1.233  17.380  10.270
14032W        W14897   3.359  15.371  10.068
14033W        W14898   2.570  18.030   8.036
14034W        W14899   2.809  16.649   9.403
14035W        W14900   1.059  15.065  10.070
14036W        W14901   1.528  16.134  10.827
14037W        W14902   1.031  17.313   8.021
14038W        W14903   2.786  16.811   8.285
14039W        W14904   0.554  15.437  10.009
14040W        W14905   1.883  17.499   8.473
14041W        W14906   3.633  16.059   8.654
14042W        W14907   1.855  14.692  10.373
14043W        W14908   2.635  17.397   9.452
14044W        W14909   2.938  17.741   9.160
14045W        W14910   2.157  17.543   7.588
14046W        W14911   0.167  17.435  10.430
14047W        W14912   0.910  15.427   9.668
14048W        W14913   0.880  14.775   8.778
14049W        W14914   2.501  15.617   9.470
14050W        W14915   1.299  16.788   7.670
14051W        W14916   3.297  16.730   9.169
14052W        W14917   0.624  17.488  10.592
14053W        W14918   3.011  18.170   8.389
14054W        W14919   1.110  15.190   8.834
14055W        W14920   0.879  16.683   8.924
14056W        W14921   1.192  18.094   9.674
14057W        W14922   3.259  18.190  10.706
14058W        W14923   2.418  16.378   9.639
14059W        W14924   0.267  16.176   7.554
14060W        W14925   3.401  17.834   8.251
14061W        W14926   3.238  15.158   7.870
14062W        W14927   1.377  14.677  10.273
14063W        W14928   3.083  17.479   8.731
14064W        W14929   3.112  16.035   8.636
14065W        W14930   1.229  15.708   8.852
14066W        W14931   1.474  15.970  10.176
14067W        W14932   2.585  17.123  10.039
14068W        W14933   1.235  15.577  10.151
14069W        W14934   1.214  18.043   8.767
14070W        W14935   0.531  18.002  10.401
14071W        W14936   0.643  17.363   7.531
14072W        W14937   3.160  17.121   8.341
14073W        W14938   0.764  15.913  10.227
14074W        W14939   3.537  15.843   7.708
14075W        W14940   1.282  16.900   8.179
14076W        W14941   2.381  16.282  10.260
14077W        W14942   2.272  15.910   9.804
14078W        W14943   0.832  16.282   9.833
14079W        W14944   3.042  18.170   9.662
14080W        W14945   2.833  14.804  10.656
14081W        W14946   0.497  14.954  10.243
14082W        W14947   0.836  15.977   9.296
14083W        W14948   1.205  15.791   7.418
14084W        W14949   0.008  17.550   9.963
14085W        W14950   1.593  16.259   9.406
14086W        W14951   1.416  15.284   7.511
14087W        W14952   0.551  16.100   8.292
14088W        W14953   0.322  17.952   9.729
14089W        W14954   3.117  16.178   7.837
14090W        W14955   3.212  15.094  10.523
14091W        W14956   2.648  17.303   8.486
14092W        W14957   0.246  16.227  10.663
14093W        W14958   3.212  14.691   7.959
14094W        W14959   2.732  17.166   7.970
14095W        W14960   1.634  16.224   8.055
14096W        W14961   2.821  15.028   7.578
14097W        W14962   2.886  15.635   9.764
14098W        W14963   0.595  16.228   8.971
14099W        W14964   0.889  17.167   8.620
14100W        W14965   2.652  15.787   8.585
14101W        W14966   1.675  15.166   9.281
14102W        W14967   3.637  17.077   9.792
14103W        W14968   3.555  15.064   9.353
14104W        W14969   0.094  17.894   8.729
14105W        W14970   0.603  17.081   8.265
14106W        W14971   0.518  14.698  10.818
14107W        W14972   1.637  17.551  10.920
14108W        W14973   3.392  16.519   8.710
14109W        W14974   2.746  16.696   7.590
14110W        W14975   2.041  18.217   9.802
14111W        W14976   2.898  16.939  10.839
14112W        W14977   1.713  14.649   8.119
14113W        W14978   2.426  15.518   8.978
14114W        W14979   0.112  17.105   9.310
14115W        W14980   1.365  15.067   7.951
14116W        W14981   1.169  16.551  10.800
14117W        W14982   2.163  15.532   8.514
14118W        W14983   2.368  16.942   9.636
14119W        W14984   0.522  17.547  10.071
14120W        W14985   1.113  17.530  10.794
14121W        W14986   0.964  15.327   7.808
14122W        W14987   2.481  15.469   8.133
14123W        W14988   2.439  17.577  10.370
14124W        W14989   1.124  16.169   8.969
14125W        W14990   0.779  17.867   9.834
14126W        W14991   3.524  17.984   7.435
14127W        W14992   0.387  16.656  10.431
14128W        W14993   2.382  16.918   9.119
14129W        W14994   0.818  16.567   8.361
14130W        W14995   1.189  17.574   9.756
14131W        W14996   1.567  14.993   8.797
14132W        W14997   0.178  16.977   7.727
14133W        W14998   1.697  15.928   7.597
14134W        W14999   0.343  16.477   8.616
14135W        W15000   1.633  15.119  10.080
14136W        W15001   3.305  14.828   7.507
14137W        W15002   3.398  16.574  10.606
14138W        W15003   2.052  17.831  10.758
14139W        W15004   3.610  16.925  10.280
14140W        W15005   3.018  17.723  10.891
14141W        W15006   0.757  18.179   9.369
14142W        W15007   3.616  16.801   8.243
14143W        W15008   2.146  16.068   8.756
14144W        W15009   1.913  14.680   8.646
14145W        W15010   0.972  17.664   8.483
14146W        W15011   1.471  15.405   9.708
14147W        W15012   1.171  14.774   9.177
14148W        W15013   0.234  17.596   7.725
14149W        W15014   2.050  16.960   8.443
14150W        W15015   0.925  17.755  10.322
14151W        W15016   0.402  16.578   8.018
14152W        W15017   0.287  15.121   9.017
14153W        W15018   1.835  17.086   9.074
14154W        W15019   0.087  14.940   8.094
14155W        W15020   2.751  16.146  10.021
14156W        W15021   2.628  15.532   7.593
14157W        W15022   3.145  17.204   9.241
14158W        W15023   1.806  17.688   9.072
14159W        W15024   1.218  17.792   7.983
14160W        W15025   2.500  14.695   7.413
14161W        W15026   0.300  17.955   9.154
14162W        W15027   2.497  15.713  10.789
14163W        W15028   0.480  15.243  10.788
14164W        W15029   0.211  15.843   8.121
14165W        W15030   0.902  15.832   7.846
14166W        W15031   2.665  16.159  10.663
14167W        W15032   1.008  16.440   9.372
14168W        W15033   2.482  14.726   8.492
14169W        W15034   1.613  18.157   8.995
14170W        W15035   2.827  17.619   9.932
14171W        W15036   2.411  17.768   9.043
14172W        W15037   2.430  16.748   8.637
14173W        W15038   1.892  14.973   7.708
14174W        W15039   3.573  14.601   8.430
14175W        W15040   1.261  16.236   7.593
14176W        W15041   3.427  15.573   8.583
14177W        W15042   2.119  16.743   7.460
14178W        W15043   3.055  16.943  10.208
14179W        W15044   2.709  17.644   7.675
14180W        W15045   1.324  15.319  10.581
14181W        W15046   1.144  15.903   9.822
14182W        W15047   3.236  17.398  10.099
14183W        W15048   2.336  15.348  10.476
14184W        W15049   0.180  15.819  10.253
14185W        W15050   1.940  16.296   9.979
14186W        W15051   0.297  17.054   8.636
14187W        W15052   0.444  16.351   9.526
14188W        W15053   2.761  16.637   9.876
14189W        W15054   2.533  18.017  10.687
14190W        W15055   2.429  15.756  10.240
14191W        W15056   2.706  17.810   8.645
14192W        W15057   1.708  17.530   9.968
14193W        W15058   1.193  17.885   9.237
14194W        W15059   2.998  17.056   9.656
14195W        W15060   2.048  17.128  10.793
14196W        W15061   0.653  17.081   9.132
14197W        W15062   2.999  16.840   8.777
14198W        W15063   2.640  17.906   9.528
14199W        W15064   0.618  17.635   9.398
14200W        W15065   1.639  15.687  10.608
14201W        W15066   2.090  17.853   8.119
14202W        W15067   1.398  17.108  10.757
14203W        W15068   1.524  17.346   8.134
14204W        W15069   0.745  16.086   7.393
14205W        W15070   0.084  18.172  14.292
14206W        W15071   0.460  17.065  13.815
14207W        W15072   3.165  16.795  11.585
14208W        W15073   3.295  17.880  13.612
14209W        W15074   1.213  17.871  11.138
14210W        W15075   1.296  16.023  12.121
14211W        W15076   0.811  15.871  12.285
14212W        W15077   1.802  16.686  11.719
14213W        W15078   1.477  17.778  14.074
14214W        W15079   0.126  15.339  14.037
14215W        W15080   0.888  14.619  13.839
14216W        W15081   2.582  15.007  12.726
14217W        W15082   2.231  15.878  11.296
14218W        W15083   2.801  15.312  14.387
14219W        W15084   0.167  15.104  13.512
14220W        W15085   0.266  17.723  14.533
14221W        W15086   1.788  17.113  11.265
14222W        W15087   0.220  15.896  12.958
14223W        W15088   1.113  15.787  14.195
14224W        W15089   3.572  15.646  12.694
14225W        W15090   3.336  16.689  13.553
14226W        W15091   1.644  16.022  12.580
14227W        W15092   2.190  17.361  12.949
14228W        W15093   0.690  16.795  13.181
14229W        W15094   0.049  16.323  12.752
14230W        W15095   1.085  16.295  13.944
14231W        W15096   3.356  16.078  14.198
14232W        W15097   0.972  17.522  12.643
14233W        W15098   2.093  17.211  13.777
14234W        W15099   1.313  15.851  13.002
14235W        W15100   1.605  16.635  12.645
14236W        W15101   2.602  17.408  14.493
14237W        W15102   1.681  16.728  14.503
14238W        W15103   1.662  16.444  13.981
14239W        W15104   0.071  15.835  14.503
14240W        W15105   2.903  17.370  14.102
14241W        W15106   0.484  14.952  12.100
14242W        W15107   1.011  17.210  13.099
14243W        W15108   3.474  16.993  12.389
14244W        W15109   2.887  15.393  12.956
14245W        W15110   3.172  15.346  11.051
14246W        W15111   3.637  16.147  13.357
14247W        W15112   1.604  17.854  13.110
14248W        W15113   3.378  17.320  11.548
14249W        W15114   0.507  18.106  11.302
14250W        W15115   0.900  18.152  11.978
14251W        W15116   0.697  14.906  13.404
14252W        W15117   3.320  15.924  13.679
14253W        W15118   2.725  16.346  12.138
14254W        W15119   2.691  16.034  11.165
14255W        W15120   1.899  17.178  13.305
14256W        W15121   1.705  15.508  12.504
14257W        W15122   2.305  17.595  13.498
14258W        W15123   3.176  16.386  11.920
14259W        W15124   2.078  15.044  11.936
14260W        W15125   0.735  17.738  11.619
14261W        W15126   0.106  15.237  12.218
14262W        W15127   2.892  15.844  12.692
14263W        W15128   0.350  17.461  12.607
14264W        W15129   1.691  17.811  11.477
14265W        W15130   3.083  15.837  10.941
14266W        W15131   0.106  17.595  13.105
14267W        W15132   0.897  17.167  13.585
14268W        W15133   1.270  16.527  12.204
14269W        W15134   1.292  14.932  13.297
14270W        W15135   3.521  14.694  12.594
14271W        W15136   0.740  16.566  11.062
14272W        W15137   0.395  15.599  11.241
14273W        W15138   0.457  17.555  12.035
14274W        W15139   1.588  17.038  12.283
14275W        W15140   2.920  17.897  13.997
14276W        W15141   1.846  15.539  11.681
14277W        W15142   3.229  17.937  12.453
14278W        W15143   2.906  15.790  14.051
14279W        W15144   3.619  17.446  12.185
14280W        W15145   2.246  16.738  13.669
14281W        W15146   0.012  16.289  11.875
14282W        W15147   1.123  16.704  13.448
14283W        W15148   2.327  15.968  11.826
14284W        W15149   2.204  16.458  11.930
14285W        W15150   0.547  15.878  13.404
14286W        W15151   0.532  15.754  14.326
14287W        W15152   0.422  14.671  12.485
14288W        W15153   2.190  15.018  13.046
14289W        W15154   1.838  15.203  14.209
14290W        W15155   2.193  15.352  11.387
14291W        W15156   3.376  17.745  14.141
14292W        W15157   2.343  14.826  14.180
14293W        W15158   3.362  17.127  14.302
14294W        W15159   2.792  15.294  13.898
14295W        W15160   2.592  15.232  12.168
14296W        W15161   2.985  16.366  14.572
14297W        W15162   0.725  17.942  12.558
14298W        W15163   1.383  15.659  11.544
14299W        W15164   0.952  14.943  14.208
14300W        W15165   3.004  15.427  11.889
14301W        W15166   3.371  15.909  11.834
14302W        W15167   1.114  18.126  14.305
14303W        W15168   1.040  14.662  11.540
14304W        W15169   3.361  15.196  12.575
14305W        W15170   3.511  17.445  11.020
14306W        W15171   0.418  16.648  12.722
14307W        W15172   2.335  15.235  10.952
14308W        W15173   3.469  17.567  12.672
14309W        W15174   3.508  14.761  13.422
14310W        W15175   1.953  15.973  13.976
14311W        W15176   2.046  17.312  11.679
14312W        W15177   2.446  16.606  14.419
14313W        W15178   2.120  14.583  12.728
14314W        W15179   0.732  15.486  12.791
14315W        W15180   0.286  16.686  13.565
14316W        W15181   2.145  17.879  12.271
14317W        W15182   3.339  15.476  13.143
14318W        W15183   1.976  17.823  13.910
14319W        W15184   3.319  16.882  11.115
14320W        W15185   1.754  16.365  12.176
14321W        W15186   3.606  14.876  13.917
14322W        W15187   1.755  16.711  13.511
14323W        W15188   1.972  15.597  12.956
14324W        W15189   2.824  15.895  11.794
14325W        W15190   3.111  15.628  11.436
14326W        W15191   2.920  17.668  11.825
14327W        W15192   2.754  17.271  12.621
14328W        W15193   2.650  16.350  11.599
14329W        W15194   2.083  16.560  12.585
14330W        W15195   2.964  16.348  12.652
14331W        W15196   0.339  15.363  13.076
14332W        W15197   3.117  16.415  13.903
14333W        W15198   3.468  18.033  13.049
14334W        W15199   1.398  17.477  12.451
14335W        W15200   2.405  18.010  13.775
14336W        W15201   2.399  15.340  13.539
14337W        W15202   1.606  18.048  13.600
14338W        W15203   3.303  15.002  12.066
14339W        W15204   3.094  16.321  13.367
14340W        W15205   0.077  15.642  13.405
14341W        W15206   2.937  15.437  12.423
14342W        W15207   3.348  15.588  14.200
14343W        W15208   2.233  17.287  12.418
14344W        W15209   1.489  17.878  12.031
14345W        W15210   0.604  15.058  11.289
14346W        W15211   1.708  14.712  13.099
14347W        W15212   0.736  17.832  10.947
14348W        W15213   1.110  16.298  11.698
14349W        W15214   1.764  16.927  14.011
14350W        W15215   1.594  15.285  12.001
14351W        W15216   2.950  14.882  12.429
14352W        W15217   2.670  18.164  12.757
14353W        W15218   2.082  17.812  13.097
14354W        W15219   1.478  16.849  13.058
14355W        W15220   3.248  17.572  13.184
14356W        W15221   0.942  15.075  11.953
14357W        W15222   1.464  17.372  12.913
14358W        W15223   0.947  15.303  10.978
14359W        W15224   1.748  15.912  13.372
14360W        W15225   2.596  14.778  13.242
14361W        W15226   0.016  16.621  13.127
14362W        W15227   1.720  16.439  11.285
14363W        W15228   0.988  14.754  11.055
14364W        W15229   1.726  15.835  12.106
14365W        W15230   2.696  14.811  13.805
14366W        W15231   1.284  16.823  13.914
14367W        W15232   2.088  16.605  14.131
14368W        W15233   2.705  16.635  14.024
14369W        W15234   1.989  14.775  14.529
14370W        W15235   1.211  15.391  12.922
14371W        W15236   0.637  15.347  12.320
14372W        W15237   0.423  18.059  11.996
14373W        W15238   1.755  17.389  14.121
14374W        W15239   0.790  16.874  11.480
14375W        W15240   2.470  16.259  12.701
14376W        W15241   2.750  16.058  13.100
14377W        W15242   1.955  16.732  13.034
14378W        W15243   2.425  17.106  11.166
14379W        W15244   2.097  15.127  12.494
14380W        W15245   3.576  15.405  11.762
14381W        W15246   0.070  17.994  13.793
14382W        W15247   0.487  17.220  13.325
14383W        W15248   0.054  18.066  11.557
14384W        W15249   1.953  15.336  13.363
14385W        W15250   1.316  17.359  11.212
14386W        W15251   3.221  17.741  11.398
14387W        W15252   2.196  16.394  11.412
14388W        W15253   1.039  15.585  11.929
14389W        W15254   1.871  15.495  10.981
14390W        W15255   2.455  17.060  14.159
14391W        W15256   2.808  14.966  11.776
14392W        W15257   0.138  14.814  11.224
14393W        W15258   1.424  17.133  13.514
14394W        W15259   1.223  17.049  12.606
14395W        W15260   0.965  17.001  11.004
14396W        W15261   0.206  17.242  11.772
14397W        W15262   0.710  16.312  14.214
14398W        W15263   1.414  14.872  14.400
14399W        W15264   2.123  15.014  13.756
14400W        W15265   1.318  14.782  12.037
14401W        W15266   2.377  14.859  11.542
14402W        W15267   0.322  14.791  13.119
14403W        W15268   0.370  15.754  12.489
14404W        W15269   3.059  14.862  12.895
14405W        W15270   0.481  15.360  11.709
14406W        W15271   3.052  15.048  13.325
14407W        W15272   3.448  16.251  11.010
14408W        W15273   0.740  15.009  12.829
14409W        W15274   1.854  15.581  13.769
14410W        W15275   0.002  15.271  11.247
14411W        W15276   0.788  16.660  13.808
14412W        W15277   2.146  16.058  12.987
14413W        W15278   2.013  18.137  11.283
14414W        W15279   0.159  16.644  10.980
14415W        W15280   0.894  17.055  14.106
14416W        W15281   0.415  16.222  13.737
14417W        W15282   1.406  16.327  13.531
14418W        W15283   3.174  14.686  13.793
14419W        W15284   3.572  16.296  13.784
14420W        W15285   3.560  16.496  11.470
14421W        W15286   2.423  16.828  11.569
14422W        W15287   2.897  18.128  11.264
14423W        W15288   2.074  16.118  14.406
14424W        W15289   0.404  17.085  14.446
14425W        W15290   3.610  15.007  14.398
14426W        W15291   3.328  15.935  13.019
14427W        W15292   1.636  18.065  14.496
14428W        W15293   1.491  14.694  11.223
14429W        W15294   3.030  17.293  11.166
14430W        W15295   0.799  15.386  14.052
14431W        W15296   1.233  17.380  13.914
14432W        W15297   3.359  15.371  13.712
14433W        W15298   2.570  18.030  11.680
14434W        W15299   2.809  16.649  13.047
14435W        W15300   1.059  15.065  13.714
14436W        W15301   1.528  16.134  14.471
14437W        W15302   1.031  17.313  11.665
14438W        W15303   2.786  16.811  11.929
14439W        W15304   0.554  15.437  13.653
14440W        W15305   1.883  17.499  12.117
14441W        W15306   3.633  16.059  12.298
14442W        W15307   1.855  14.692  14.017
14443W        W15308   2.635  17.397  13.096
14444W        W15309   2.938  17.741  12.804
14445W        W15310   2.157  17.543  11.232
14446W        W15311   0.167  17.435  14.074
14447W        W15312   0.910  15.427  13.312
14448W        W15313   0.880  14.775  12.422
14449W        W15314   2.501  15.617  13.114
14450W        W15315   1.299  16.788  11.314
14451W        W15316   3.297  16.730  12.813
14452W        W15317   0.624  17.488  14.236
14453W        W15318   3.011  18.170  12.033
14454W        W15319   1.110  15.190  12.478
14455W        W15320   0.879  16.683  12.568
14456W        W15321   1.192  18.094  13.318
14457W        W15322   3.259  18.190  14.350
14458W        W15323   2.418  16.378  13.283
14459W        W15324   0.267  16.176  11.198
14460W        W15325   3.401  17.834  11.895
14461W        W15326   3.238  15.158  11.514
14462W        W15327   1.377  14.677  13.917
14463W        W15328   3.083  17.479  12.375
14464W        W15329   3.112  16.035  12.280
14465W        W15330   1.229  15.708  12.496
14466W        W15331   1.474  15.970  13.820
14467W        W15332   2.585  17.123  13.683
14468W        W15333   1.235  15.577  13.795
14469W        W15334   1.214  18.043  12.411
14470W        W15335   0.531  18.002  14.045
14471W        W15336   0.643  17.363  11.175
14472W        W15337   3.160  17.121  11.985
14473W        W15338   0.764  15.913  13.871
14474W        W15339   3.537  15.843  11.352
14475W        W15340   1.282  16.900  11.823
14476W        W15341   2.381  16.282  13.904
14477W        W15342   2.272  15.910  13.448
14478W        W15343   0.832  16.282  13.477
14479W        W15344   3.042  18.170  13.306
14480W        W15345   2.833  14.804  14.300
14481W        W15346   0.497  14.954  13.887
14482W        W15347   0.836  15.977  12.940
14483W        W15348   1.205  15.791  11.062
14484W        W15349   0.008  17.550  13.607
14485W        W15350   1.593  16.259  13.050
14486W        W15351   1.416  15.284  11.155
14487W        W15352   0.551  16.100  11.936
14488W        W15353   0.322  17.952  13.373
14489W        W15354   3.117  16.178  11.481
14490W        W15355   3.212  15.094  14.167
14491W        W15356   2.648  17.303  12.130
14492W        W15357   0.246  16.227  14.307
14493W        W15358   3.212  14.691  11.603
14494W        W15359   2.732  17.166  11.614
14495W        W15360   1.634  16.224  11.699
14496W        W15361   2.821  15.028  11.222
14497W        W15362   2.886  15.635  13.408
14498W        W15363   0.595  16.228  12.615
14499W        W15364   0.889  17.167  12.264
14500W        W15365   2.652  15.787  12.229
14501W        W15366   1.675  15.166  12.925
14502W        W15367   3.637  17.077  13.436
14503W        W15368   3.555  15.064  12.997
14504W        W15369   0.094  17.894  12.373
14505W        W15370   0.603  17.081  11.909
14506W        W15371   0.518  14.698  14.462
14507W        W15372   1.637  17.551  14.564
14508W        W15373   3.392  16.519  12.354
14509W        W15374   2.746  16.696  11.234
14510W        W15375   2.041  18.217  13.446
14511W        W15376   2.898  16.939  14.483
14512W        W15377   1.713  14.649  11.763
14513W        W15378   2.426  15.518  12.622
14514W        W15379   0.112  17.105  12.954
14515W        W15380   1.365  15.067  11.595
14516W        W15381   1.169  16.551  14.444
14517W        W15382   2.163  15.532  12.158
14518W        W15383   2.368  16.942  13.280
14519W        W15384   0.522  17.547  13.715
14520W        W15385   1.113  17.530  14.438
14521W        W15386   0.964  15.327  11.452
14522W        W15387   2.481  15.469  11.777
14523W        W15388   2.439  17.577  14.014
14524W        W15389   1.124  16.169  12.613
14525W        W15390   0.779  17.867  13.478
14526W        W15391   3.524  17.984  11.079
14527W        W15392   0.387  16.656  14.075
14528W        W15393   2.382  16.918  12.763
14529W        W15394   0.818  16.567  12.005
14530W        W15395   1.189  17.574  13.400
14531W        W15396   1.567  14.993  12.441
14532W        W15397   0.178  16.977  11.371
14533W        W15398   1.697  15.928  11.241
14534W        W15399   0.343  16.477  12.260
14535W        W15400   1.633  15.119  13.724
14536W        W15401   3.305  14.828  11.151
14537W        W15402   3.398  16.574  14.250
14538W        W15403   2.052  17.831  14.402
14539W        W15404   3.610  16.925  13.924
14540W        W15405   3.018  17.723  14.535
14541W        W15406   0.757  18.179  13.013
14542W        W15407   3.616  16.801  11.887
14543W        W15408   2.146  16.068  12.400
14544W        W15409   1.913  14.680  12.290
14545W        W15410   0.972  17.664  12.127
14546W        W15411   1.471  15.405  13.352
14547W        W15412   1.171  14.774  12.821
14548W        W15413   0.234  17.596  11.369
14549W        W15414   2.050  16.960  12.087
14550W        W15415   0.925  17.755  13.966
14551W        W15416   0.402  16.578  11.662
14552W        W15417   0.287  15.121  12.661
14553W        W15418   1.835  17.086  12.718
14554W        W15419   0.087  14.940  11.738
14555W        W15420   2.751  16.146  13.665
14556W        W15421   2.628  15.532  11.237
14557W        W15422   3.145  17.204  12.885
14558W        W15423   1.806  17.688  12.716
14559W        W15424   1.218  17.792  11.627
14560W        W15425   2.500  14.695  11.057
14561W        W15426   0.300  17.955  12.798
14562W        W15427   2.497  15.713  14.433
14563W        W15428   0.480  15.243  14.432
14564W        W15429   0.211  15.843  11.765
14565W        W15430   0.902  15.832  11.490
14566W        W15431   2.665  16.159  14.307
14567W        W15432   1.008  16.440  13.016
14568W        W15433   2.482  14.726  12.136
14569W        W15434   1.613  18.157  12.639
14570W        W15435   2.827  17.619  13.576
14571W        W15436   2.411  17.768  12.687
14572W        W15437   2.430  16.748  12.281
14573W        W15438   1.892  14.973  11.352
14574W        W15439   3.573  14.601  12.074
14575W        W15440   1.261  16.236  11.237
14576W        W15441   3.427  15.573  12.227
14577W        W15442   2.119  16.743  11.104
14578W        W15443   3.055  16.943  13.852
14579W        W15444   2.709  17.644  11.319
14580W        W15445   1.324  15.319  14.225
14581W        W15446   1.144  15.903  13.466
14582W        W15447   3.236  17.398  13.743
14583W        W15448   2.336  15.348  14.120
14584W        W15449   0.180  15.819  13.897
14585W        W15450   1.940  16.296  13.623
14586W        W15451   0.297  17.054  12.280
14587W        W15452   0.444  16.351  13.170
14588W        W15453   2.761  16.637  13.520
14589W        W15454   2.533  18.017  14.331
14590W        W15455   2.429  15.756  13.884
14591W        W15456   2.706  17.810  12.289
14592W        W15457   1.708  17.530  13.612
14593W        W15458   1.193  17.885  12.881
14594W        W15459   2.998  17.056  13.300
14595W        W15460   2.048  17.128  14.437
14596W        W15461   0.653  17.081  12.776
14597W        W15462   2.999  16.840  12.421
14598W        W15463   2.640  17.906  13.172
14599W        W15464   0.618  17.635  13.042
14600W        W15465   1.639  15.687  14.252
14601W        W15466   2.090  17.853  11.763
14602W        W15467   1.398  17.108  14.401
14603W        W15468   1.524  17.346  11.778
14604W        W15469   0.745  16.086  11.037
14605W        W15470   0.460  17.065  17.459
14606W        W15471   3.165  16.795  15.229
14607W        W15472   3.295  17.880  17.256
14608W        W15473   1.213  17.871  14.782
14609W        W15474   1.296  16.023  15.765
14610W        W15475   0.811  15.871  15.929
14611W        W15476   1.802  16.686  15.363
14612W        W15477   1.477  17.778  17.718
14613W        W15478   0.126  15.339  17.681
14614W        W15479   0.888  14.619  17.483
14615W        W15480   2.582  15.007  16.370
14616W        W15481   2.231  15.878  14.940
14617W        W15482   2.801  15.312  18.031
14618W        W15483   0.167  15.104  17.156
14619W        W15484   0.266  17.723  18.177
14620W        W15485   1.788  17.113  14.909
14621W        W15486   0.220  15.896  16.602
14622W        W15487   1.113  15.787  17.839
14623W        W15488   3.572  15.646  16.338
14624W        W15489   3.336  16.689  17.197
14625W        W15490   1.644  16.022  16.224
14626W        W15491   2.190  17.361  16.593
14627W        W15492   0.690  16.795  16.825
14628W        W15493   0.049  16.323  16.396
14629W        W15494   1.085  16.295  17.588
14630W        W15495   3.356  16.078  17.842
14631W        W15496   0.972  17.522  16.287
14632W        W15497   2.093  17.211  17.421
14633W        W15498   1.313  15.851  16.646
14634W        W15499   1.605  16.635  16.289
14635W        W15500   2.602  17.408  18.137
14636W        W15501   1.681  16.728  18.147
14637W        W15502   1.662  16.444  17.625
14638W        W15503   0.071  15.835  18.147
14639W        W15504   2.903  17.370  17.746
14640W        W15505   0.484  14.952  15.744
14641W        W15506   1.011  17.210  16.743
14642W        W15507   3.474  16.993  16.033
14643W        W15508   2.887  15.393  16.600
14644W        W15509   3.172  15.346  14.695
14645W        W15510   3.637  16.147  17.001
14646W        W15511   1.604  17.854  16.754
14647W        W15512   3.378  17.320  15.192
14648W        W15513   0.507  18.106  14.946
14649W        W15514   0.900  18.152  15.622
14650W        W15515   0.697  14.906  17.048
14651W        W15516   3.320  15.924  17.323
14652W        W15517   2.725  16.346  15.782
14653W        W15518   2.691  16.034  14.809
14654W        W15519   1.899  17.178  16.949
14655W        W15520   1.705  15.508  16.148
14656W        W15521   2.305  17.595  17.142
14657W        W15522   3.176  16.386  15.564
14658W        W15523   2.078  15.044  15.580
14659W        W15524   0.735  17.738  15.263
14660W        W15525   0.106  15.237  15.862
14661W        W15526   2.892  15.844  16.336
14662W        W15527   0.350  17.461  16.251
14663W        W15528   1.691  17.811  15.121
14664W        W15529   3.083  15.837  14.585
14665W        W15530   0.106  17.595  16.749
14666W        W15531   0.897  17.167  17.229
14667W        W15532   1.270  16.527  15.848
14668W        W15533   1.292  14.932  16.941
14669W        W15534   3.521  14.694  16.238
14670W        W15535   0.740  16.566  14.706
14671W        W15536   0.395  15.599  14.885
14672W        W15537   0.457  17.555  15.679
14673W        W15538   1.588  17.038  15.927
14674W        W15539   2.920  17.897  17.641
14675W        W15540   1.846  15.539  15.325
14676W        W15541   3.229  17.937  16.097
14677W        W15542   2.906  15.790  17.695
14678W        W15543   3.619  17.446  15.829
14679W        W15544   2.246  16.738  17.313
14680W        W15545   0.012  16.289  15.519
14681W        W15546   1.123  16.704  17.092
14682W        W15547   2.327  15.968  15.470
14683W        W15548   2.204  16.458  15.574
14684W        W15549   0.547  15.878  17.048
14685W        W15550   0.532  15.754  17.970
14686W        W15551   0.422  14.671  16.129
14687W        W15552   2.190  15.018  16.690
14688W        W15553   1.838  15.203  17.853
14689W        W15554   2.193  15.352  15.031
14690W        W15555   3.376  17.745  17.785
14691W        W15556   2.343  14.826  17.824
14692W        W15557   3.362  17.127  17.946
14693W        W15558   2.792  15.294  17.542
14694W        W15559   2.592  15.232  15.812
14695W        W15560   2.985  16.366  18.216
14696W        W15561   0.725  17.942  16.202
14697W        W15562   1.383  15.659  15.188
14698W        W15563   0.952  14.943  17.852
14699W        W15564   3.004  15.427  15.533
14700W        W15565   3.371  15.909  15.478
14701W        W15566   1.114  18.126  17.949
14702W        W15567   1.040  14.662  15.184
14703W        W15568   3.361  15.196  16.219
14704W        W15569   3.511  17.445  14.664
14705W        W15570   0.418  16.648  16.366
14706W        W15571   2.335  15.235  14.596
14707W        W15572   3.469  17.567  16.316
14708W        W15573   3.508  14.761  17.066
14709W        W15574   1.953  15.973  17.620
14710W        W15575   2.046  17.312  15.323
14711W        W15576   2.446  16.606  18.063
14712W        W15577   2.120  14.583  16.372
14713W        W15578   0.732  15.486  16.435
14714W        W15579   0.286  16.686  17.209
14715W        W15580   2.145  17.879  15.915
14716W        W15581   3.339  15.476  16.787
14717W        W15582   1.976  17.823  17.554
14718W        W15583   3.319  16.882  14.759
14719W        W15584   1.754  16.365  15.820
14720W        W15585   3.606  14.876  17.561
14721W        W15586   1.755  16.711  17.155
14722W        W15587   1.972  15.597  16.600
14723W        W15588   2.824  15.895  15.438
14724W        W15589   3.111  15.628  15.080
14725W        W15590   2.920  17.668  15.469
14726W        W15591   2.754  17.271  16.265
14727W        W15592   2.650  16.350  15.243
14728W        W15593   2.083  16.560  16.229
14729W        W15594   2.964  16.348  16.296
14730W        W15595   0.339  15.363  16.720
14731W        W15596   3.117  16.415  17.547
14732W        W15597   3.468  18.033  16.693
14733W        W15598   1.398  17.477  16.095
14734W        W15599   2.405  18.010  17.419
14735W        W15600   2.399  15.340  17.183
14736W        W15601   1.606  18.048  17.244
14737W        W15602   3.303  15.002  15.710
14738W        W15603   3.094  16.321  17.011
14739W        W15604   0.077  15.642  17.049
14740W        W15605   2.937  15.437  16.067
14741W        W15606   3.348  15.588  17.844
14742W        W15607   2.233  17.287  16.062
14743W        W15608   1.489  17.878  15.675
14744W        W15609   0.604  15.058  14.933
14745W        W15610   1.708  14.712  16.743
14746W        W15611   0.736  17.832  14.591
14747W        W15612   1.110  16.298  15.342
14748W        W15613   1.764  16.927  17.655
14749W        W15614   1.594  15.285  15.645
14750W        W15615   2.950  14.882  16.073
14751W        W15616   2.670  18.164  16.401
14752W        W15617   2.082  17.812  16.741
14753W        W15618   1.478  16.849  16.702
14754W        W15619   3.248  17.572  16.828
14755W        W15620   0.942  15.075  15.597
14756W        W15621   1.464  17.372  16.557
14757W        W15622   0.947  15.303  14.622
14758W        W15623   1.748  15.912  17.016
14759W        W15624   2.596  14.778  16.886
14760W        W15625   0.016  16.621  16.771
14761W        W15626   1.720  16.439  14.929
14762W        W15627   0.988  14.754  14.699
14763W        W15628   1.726  15.835  15.750
14764W        W15629   2.696  14.811  17.449
14765W        W15630   1.284  16.823  17.558
14766W        W15631   2.088  16.605  17.775
14767W        W15632   2.705  16.635  17.668
14768W        W15633   1.989  14.775  18.173
14769W        W15634   1.211  15.391  16.566
14770W        W15635   0.637  15.347  15.964
14771W        W15636   0.423  18.059  15.640
14772W        W15637   1.755  17.389  17.765
14773W        W15638   0.790  16.874  15.124
14774W        W15639   2.470  16.259  16.345
14775W        W15640   2.750  16.058  16.744
14776W        W15641   1.955  16.732  16.678
14777W        W15642   2.425  17.106  14.810
14778W        W15643   2.097  15.127  16.138
14779W        W15644   3.576  15.405  15.406
14780W        W15645   0.070  17.994  17.437
14781W        W15646   0.487  17.220  16.969
14782W        W15647   0.054  18.066  15.201
14783W        W15648   1.953  15.336  17.007
14784W        W15649   1.316  17.359  14.856
14785W        W15650   3.221  17.741  15.042
14786W        W15651   2.196  16.394  15.056
14787W        W15652   1.039  15.585  15.573
14788W        W15653   1.871  15.495  14.625
14789W        W15654   2.455  17.060  17.803
14790W        W15655   2.808  14.966  15.420
14791W        W15656   0.138  14.814  14.868
14792W        W15657   1.424  17.133  17.158
14793W        W15658   1.223  17.049  16.250
14794W        W15659   0.965  17.001  14.648
14795W        W15660   0.206  17.242  15.416
14796W        W15661   0.710  16.312  17.858
14797W        W15662   1.414  14.872  18.044
14798W        W15663   2.123  15.014  17.400
14799W        W15664   1.318  14.782  15.681
14800W        W15665   2.377  14.859  15.186
14801W        W15666   0.322  14.791  16.763
14802W        W15667   0.370  15.754  16.133
14803W        W15668   3.059  14.862  16.539
14804W        W15669   0.481  15.360  15.353
14805W        W15670   3.052  15.048  16.969
14806W        W15671   3.448  16.251  14.654
14807W        W15672   0.740  15.009  16.473
14808W        W15673   1.854  15.581  17.413
14809W        W15674   0.002  15.271  14.891
14810W        W15675   0.788  16.660  17.452
14811W        W15676   2.146  16.058  16.631
14812W        W15677   2.013  18.137  14.927
14813W        W15678   0.159  16.644  14.624
14814W        W15679   0.894  17.055  17.750
14815W        W15680   0.415  16.222  17.381
14816W        W15681   1.406  16.327  17.175
14817W        W15682   3.174  14.686  17.437
14818W        W15683   3.572  16.296  17.428
14819W        W15684   3.560  16.496  15.114
14820W        W15685   2.423  16.828  15.213
14821W        W15686   2.897  18.128  14.908
14822W        W15687   2.074  16.118  18.050
14823W        W15688   0.404  17.085  18.090
14824W        W15689   3.610  15.007  18.042
14825W        W15690   3.328  15.935  16.663
14826W        W15691   1.636  18.065  18.140
14827W        W15692   1.491  14.694  14.867
14828W        W15693   3.030  17.293  14.810
14829W        W15694   0.799  15.386  17.696
14830W        W15695   1.233  17.380  17.558
14831W        W15696   3.359  15.371  17.356
14832W        W15697   2.570  18.030  15.324
14833W        W15698   2.809  16.649  16.691
14834W        W15699   1.059  15.065  17.358
14835W        W15700   1.528  16.134  18.115
14836W        W15701   1.031  17.313  15.309
14837W        W15702   2.786  16.811  15.573
14838W        W15703   0.554  15.437  17.297
14839W        W15704   1.883  17.499  15.761
14840W        W15705   3.633  16.059  15.942
14841W        W15706   1.855  14.692  17.661
14842W        W15707   2.635  17.397  16.740
14843W        W15708   2.938  17.741  16.448
14844W        W15709   2.157  17.543  14.876
14845W        W15710   0.167  17.435  17.718
14846W        W15711   0.910  15.427  16.956
14847W        W15712   0.880  14.775  16.066
14848W        W15713   2.501  15.617  16.758
14849W        W15714   1.299  16.788  14.958
14850W        W15715   3.297  16.730  16.457
14851W        W15716   0.624  17.488  17.880
14852W        W15717   3.011  18.170  15.677
14853W        W15718   1.110  15.190  16.122
14854W        W15719   0.879  16.683  16.212
14855W        W15720   1.192  18.094  16.962
14856W        W15721   3.259  18.190  17.994
14857W        W15722   2.418  16.378  16.927
14858W        W15723   0.267  16.176  14.842
14859W        W15724   3.401  17.834  15.539
14860W        W15725   3.238  15.158  15.158
14861W        W15726   1.377  14.677  17.561
14862W        W15727   3.083  17.479  16.019
14863W        W15728   3.112  16.035  15.924
14864W        W15729   1.229  15.708  16.140
14865W        W15730   1.474  15.970  17.464
14866W        W15731   2.585  17.123  17.327
14867W        W15732   1.235  15.577  17.439
14868W        W15733   1.214  18.043  16.055
14869W        W15734   0.531  18.002  17.689
14870W        W15735   0.643  17.363  14.819
14871W        W15736   3.160  17.121  15.629
14872W        W15737   0.764  15.913  17.515
14873W        W15738   3.537  15.843  14.996
14874W        W15739   1.282  16.900  15.467
14875W        W15740   2.381  16.282  17.548
14876W        W15741   2.272  15.910  17.092
14877W        W15742   0.832  16.282  17.121
14878W        W15743   3.042  18.170  16.950
14879W        W15744   2.833  14.804  17.944
14880W        W15745   0.497  14.954  17.531
14881W        W15746   0.836  15.977  16.584
14882W        W15747   1.205  15.791  14.706
14883W        W15748   0.008  17.550  17.251
14884W        W15749   1.593  16.259  16.694
14885W        W15750   1.416  15.284  14.799
14886W        W15751   0.551  16.100  15.580
14887W        W15752   0.322  17.952  17.017
14888W        W15753   3.117  16.178  15.125
14889W        W15754   3.212  15.094  17.811
14890W        W15755   2.648  17.303  15.774
14891W        W15756   0.246  16.227  17.951
14892W        W15757   3.212  14.691  15.247
14893W        W15758   2.732  17.166  15.258
14894W        W15759   1.634  16.224  15.343
14895W        W15760   2.821  15.028  14.866
14896W        W15761   2.886  15.635  17.052
14897W        W15762   0.595  16.228  16.259
14898W        W15763   0.889  17.167  15.908
14899W        W15764   2.652  15.787  15.873
14900W        W15765   1.675  15.166  16.569
14901W        W15766   3.637  17.077  17.080
14902W        W15767   3.555  15.064  16.641
14903W        W15768   0.094  17.894  16.017
14904W        W15769   0.603  17.081  15.553
14905W        W15770   0.518  14.698  18.106
14906W        W15771   1.637  17.551  18.208
14907W        W15772   3.392  16.519  15.998
14908W        W15773   2.746  16.696  14.878
14909W        W15774   2.041  18.217  17.090
14910W        W15775   2.898  16.939  18.127
14911W        W15776   1.713  14.649  15.407
14912W        W15777   2.426  15.518  16.266
14913W        W15778   0.112  17.105  16.598
14914W        W15779   1.365  15.067  15.239
14915W        W15780   1.169  16.551  18.088
14916W        W15781   2.163  15.532  15.802
14917W        W15782   2.368  16.942  16.924
14918W        W15783   0.522  17.547  17.359
14919W        W15784   1.113  17.530  18.082
14920W        W15785   0.964  15.327  15.096
14921W        W15786   2.481  15.469  15.421
14922W        W15787   2.439  17.577  17.658
14923W        W15788   1.124  16.169  16.257
14924W        W15789   0.779  17.867  17.122
14925W        W15790   3.524  17.984  14.723
14926W        W15791   0.387  16.656  17.719
14927W        W15792   2.382  16.918  16.407
14928W        W15793   0.818  16.567  15.649
14929W        W15794   1.189  17.574  17.044
14930W        W15795   1.567  14.993  16.085
14931W        W15796   0.178  16.977  15.015
14932W        W15797   1.697  15.928  14.885
14933W        W15798   0.343  16.477  15.904
14934W        W15799   1.633  15.119  17.368
14935W        W15800   3.305  14.828  14.795
14936W        W15801   3.398  16.574  17.894
14937W        W15802   2.052  17.831  18.046
14938W        W15803   3.610  16.925  17.568
14939W        W15804   3.018  17.723  18.179
14940W        W15805   0.757  18.179  16.657
14941W        W15806   3.616  16.801  15.531
14942W        W15807   2.146  16.068  16.044
14943W        W15808   1.913  14.680  15.934
14944W        W15809   0.972  17.664  15.771
14945W        W15810   1.471  15.405  16.996
14946W        W15811   1.171  14.774  16.465
14947W        W15812   0.234  17.596  15.013
14948W        W15813   2.050  16.960  15.731
14949W        W15814   0.925  17.755  17.610
14950W        W15815   0.402  16.578  15.306
14951W        W15816   0.287  15.121  16.305
14952W        W15817   1.835  17.086  16.362
14953W        W15818   0.087  14.940  15.382
14954W        W15819   2.751  16.146  17.309
14955W        W15820   2.628  15.532  14.881
14956W        W15821   3.145  17.204  16.529
14957W        W15822   1.806  17.688  16.360
14958W        W15823   1.218  17.792  15.271
14959W        W15824   2.500  14.695  14.701
14960W        W15825   0.300  17.955  16.442
14961W        W15826   2.497  15.713  18.077
14962W        W15827   0.480  15.243  18.076
14963W        W15828   0.211  15.843  15.409
14964W        W15829   0.902  15.832  15.134
14965W        W15830   2.665  16.159  17.951
14966W        W15831   1.008  16.440  16.660
14967W        W15832   2.482  14.726  15.780
14968W        W15833   1.613  18.157  16.283
14969W        W15834   2.827  17.619  17.220
14970W        W15835   2.411  17.768  16.331
14971W        W15836   2.430  16.748  15.925
14972W        W15837   1.892  14.973  14.996
14973W        W15838   3.573  14.601  15.718
14974W        W15839   1.261  16.236  14.881
14975W        W15840   3.427  15.573  15.871
14976W        W15841   2.119  16.743  14.748
14977W        W15842   3.055  16.943  17.496
14978W        W15843   2.709  17.644  14.963
14979W        W15844   1.324  15.319  17.869
14980W        W15845   1.144  15.903  17.110
14981W        W15846   3.236  17.398  17.387
14982W        W15847   2.336  15.348  17.764
14983W        W15848   0.180  15.819  17.541
14984W        W15849   1.940  16.296  17.267
14985W        W15850   0.297  17.054  15.924
14986W        W15851   0.444  16.351  16.814
14987W        W15852   2.761  16.637  17.164
14988W        W15853   2.533  18.017  17.975
14989W        W15854   2.429  15.756  17.528
14990W        W15855   2.706  17.810  15.933
14991W        W15856   1.708  17.530  17.256
14992W        W15857   1.193  17.885  16.525
14993W        W15858   2.998  17.056  16.944
14994W        W15859   2.048  17.128  18.081
14995W        W15860   0.653  17.081  16.420
14996W        W15861   2.999  16.840  16.065
14997W        W15862   2.640  17.906  16.816
14998W        W15863   0.618  17.635  16.686
14999W        W15864   1.639  15.687  17.896
15000W        W15865   2.090  17.853  15.407
15001W        W15866   1.398  17.108  18.045
15002W        W15867   1.524  17.346  15.422
15003W        W15868   0.745  16.086  14.681
15004W        W15869   0.084  18.172  21.580
15005W        W15870   0.460  17.065  21.103
15006W        W15871   3.165  16.795  18.873
15007W        W15872   3.295  17.880  20.900
15008W        W15873   1.213  17.871  18.426
15009W        W15874   1.296  16.023  19.409
15010W        W15875   0.811  15.871  19.573
15011W        W15876   1.802  16.686  19.007
15012W        W15877   1.477  17.778  21.362
15013W        W15878   0.126  15.339  21.325
15014W        W15879   0.888  14.619  21.127
15015W        W15880   2.582  15.007  20.014
15016W        W15881   2.231  15.878  18.584
15017W        W15882   2.801  15.312  21.675
15018W        W15883   0.167  15.104  20.800
15019W        W15884   0.266  17.723  21.821
15020W        W15885   1.788  17.113  18.553
15021W        W15886   0.220  15.896  20.246
15022W        W15887   1.113  15.787  21.483
15023W        W15888   3.572  15.646  19.982
15024W        W15889   3.336  16.689  20.841
15025W        W15890   1.644  16.022  19.868
15026W        W15891   2.190  17.361  20.237
15027W        W15892   0.690  16.795  20.469
15028W        W15893   0.049  16.323  20.040
15029W        W15894   1.085  16.295  21.232
15030W        W15895   3.356  16.078  21.486
15031W        W15896   0.972  17.522  19.931
15032W        W15897   2.093  17.211  21.065
15033W        W15898   1.313  15.851  20.290
15034W        W15899   1.605  16.635  19.933
15035W        W15900   2.602  17.408  21.781
15036W        W15901   1.681  16.728  21.791
15037W        W15902   1.662  16.444  21.269
15038W        W15903   0.071  15.835  21.791
15039W        W15904   2.903  17.370  21.390
15040W        W15905   0.484  14.952  19.388
15041W        W15906   1.011  17.210  20.387
15042W        W15907   3.474  16.993  19.677
15043W        W15908   2.887  15.393  20.244
15044W        W15909   3.172  15.346  18.339
15045W        W15910   3.637  16.147  20.645
15046W        W15911   1.604  17.854  20.398
15047W        W15912   3.378  17.320  18.836
15048W        W15913   0.507  18.106  18.590
15049W        W15914   0.900  18.152  19.266
15050W        W15915   0.697  14.906  20.692
15051W        W15916   3.320  15.924  20.967
15052W        W15917   2.725  16.346  19.426
15053W        W15918   2.691  16.034  18.453
15054W        W15919   1.899  17.178  20.593
15055W        W15920   1.705  15.508  19.792
15056W        W15921   2.305  17.595  20.786
15057W        W15922   3.176  16.386  19.208
15058W        W15923   2.078  15.044  19.224
15059W        W15924   0.735  17.738  18.907
15060W        W15925   0.106  15.237  19.506
15061W        W15926   2.892  15.844  19.980
15062W        W15927   0.350  17.461  19.895
15063W        W15928   1.691  17.811  18.765
15064W        W15929   3.083  15.837  18.229
15065W        W15930   0.106  17.595  20.393
15066W        W15931   0.897  17.167  20.873
15067W        W15932   1.270  16.527  19.492
15068W        W15933   1.292  14.932  20.585
15069W        W15934   3.521  14.694  19.882
15070W        W15935   0.740  16.566  18.350
15071W        W15936   0.395  15.599  18.529
15072W        W15937   0.457  17.555  19.323
15073W        W15938   1.588  17.038  19.571
15074W        W15939   2.920  17.897  21.285
15075W        W15940   1.846  15.539  18.969
15076W        W15941   3.229  17.937  19.741
15077W        W15942   2.906  15.790  21.339
15078W        W15943   3.619  17.446  19.473
15079W        W15944   2.246  16.738  20.957
15080W        W15945   0.012  16.289  19.163
15081W        W15946   1.123  16.704  20.736
15082W        W15947   2.327  15.968  19.114
15083W        W15948   2.204  16.458  19.218
15084W        W15949   0.547  15.878  20.692
15085W        W15950   0.532  15.754  21.614
15086W        W15951   0.422  14.671  19.773
15087W        W15952   2.190  15.018  20.334
15088W        W15953   1.838  15.203  21.497
15089W        W15954   2.193  15.352  18.675
15090W        W15955   3.376  17.745  21.429
15091W        W15956   2.343  14.826  21.468
15092W        W15957   3.362  17.127  21.590
15093W        W15958   2.792  15.294  21.186
15094W        W15959   2.592  15.232  19.456
15095W        W15960   2.985  16.366  21.860
15096W        W15961   0.725  17.942  19.846
15097W        W15962   1.383  15.659  18.832
15098W        W15963   0.952  14.943  21.496
15099W        W15964   3.004  15.427  19.177
15100W        W15965   3.371  15.909  19.122
15101W        W15966   1.114  18.126  21.593
15102W        W15967   1.040  14.662  18.828
15103W        W15968   3.361  15.196  19.863
15104W        W15969   3.511  17.445  18.308
15105W        W15970   0.418  16.648  20.010
15106W        W15971   2.335  15.235  18.240
15107W        W15972   3.469  17.567  19.960
15108W        W15973   3.508  14.761  20.710
15109W        W15974   1.953  15.973  21.264
15110W        W15975   2.046  17.312  18.967
15111W        W15976   2.446  16.606  21.707
15112W        W15977   2.120  14.583  20.016
15113W        W15978   0.732  15.486  20.079
15114W        W15979   0.286  16.686  20.853
15115W        W15980   2.145  17.879  19.559
15116W        W15981   3.339  15.476  20.431
15117W        W15982   1.976  17.823  21.198
15118W        W15983   3.319  16.882  18.403
15119W        W15984   1.754  16.365  19.464
15120W        W15985   3.606  14.876  21.205
15121W        W15986   1.755  16.711  20.799
15122W        W15987   1.972  15.597  20.244
15123W        W15988   2.824  15.895  19.082
15124W        W15989   3.111  15.628  18.724
15125W        W15990   2.920  17.668  19.113
15126W        W15991   2.754  17.271  19.909
15127W        W15992   2.650  16.350  18.887
15128W        W15993   2.083  16.560  19.873
15129W        W15994   2.964  16.348  19.940
15130W        W15995   0.339  15.363  20.364
15131W        W15996   3.117  16.415  21.191
15132W        W15997   3.468  18.033  20.337
15133W        W15998   1.398  17.477  19.739
15134W        W15999   2.405  18.010  21.063
15135W        W16000   2.399  15.340  20.827
15136W        W16001   1.606  18.048  20.888
15137W        W16002   3.303  15.002  19.354
15138W        W16003   3.094  16.321  20.655
15139W        W16004   0.077  15.642  20.693
15140W        W16005   2.937  15.437  19.711
15141W        W16006   3.348  15.588  21.488
15142W        W16007   2.233  17.287  19.706
15143W        W16008   1.489  17.878  19.319
15144W        W16009   0.604  15.058  18.577
15145W        W16010   1.708  14.712  20.387
15146W        W16011   0.736  17.832  18.235
15147W        W16012   1.110  16.298  18.986
15148W        W16013   1.764  16.927  21.299
15149W        W16014   1.594  15.285  19.289
15150W        W16015   2.950  14.882  19.717
15151W        W16016   2.670  18.164  20.045
15152W        W16017   2.082  17.812  20.385
15153W        W16018   1.478  16.849  20.346
15154W        W16019   3.248  17.572  20.472
15155W        W16020   0.942  15.075  19.241
15156W        W16021   1.464  17.372  20.201
15157W        W16022   0.947  15.303  18.266
15158W        W16023   1.748  15.912  20.660
15159W        W16024   2.596  14.778  20.530
15160W        W16025   0.016  16.621  20.415
15161W        W16026   1.720  16.439  18.573
15162W        W16027   0.988  14.754  18.343
15163W        W16028   1.726  15.835  19.394
15164W        W16029   2.696  14.811  21.093
15165W        W16030   1.284  16.823  21.202
15166W        W16031   2.088  16.605  21.419
15167W        W16032   2.705  16.635  21.312
15168W        W16033   1.989  14.775  21.817
15169W        W16034   1.211  15.391  20.210
15170W        W16035   0.637  15.347  19.608
15171W        W16036   0.423  18.059  19.284
15172W        W16037   1.755  17.389  21.409
15173W        W16038   0.790  16.874  18.768
15174W        W16039   2.470  16.259  19.989
15175W        W16040   2.750  16.058  20.388
15176W        W16041   1.955  16.732  20.322
15177W        W16042   2.425  17.106  18.454
15178W        W16043   2.097  15.127  19.782
15179W        W16044   3.576  15.405  19.050
15180W        W16045   0.070  17.994  21.081
15181W        W16046   0.487  17.220  20.613
15182W        W16047   0.054  18.066  18.845
15183W        W16048   1.953  15.336  20.651
15184W        W16049   1.316  17.359  18.500
15185W        W16050   3.221  17.741  18.686
15186W        W16051   2.196  16.394  18.700
15187W        W16052   1.039  15.585  19.217
15188W        W16053   1.871  15.495  18.269
15189W        W16054   2.455  17.060  21.447
15190W        W16055   2.808  14.966  19.064
15191W        W16056   0.138  14.814  18.512
15192W        W16057   1.424  17.133  20.802
15193W        W16058   1.223  17.049  19.894
15194W        W16059   0.965  17.001  18.292
15195W        W16060   0.206  17.242  19.060
15196W        W16061   0.710  16.312  21.502
15197W        W16062   1.414  14.872  21.688
15198W        W16063   2.123  15.014  21.044
15199W        W16064   1.318  14.782  19.325
15200W        W16065   2.377  14.859  18.830
15201W        W16066   0.322  14.791  20.407
15202W        W16067   0.370  15.754  19.777
15203W        W16068   3.059  14.862  20.183
15204W        W16069   0.481  15.360  18.997
15205W        W16070   3.052  15.048  20.613
15206W        W16071   3.448  16.251  18.298
15207W        W16072   0.740  15.009  20.117
15208W        W16073   1.854  15.581  21.057
15209W        W16074   0.002  15.271  18.535
15210W        W16075   0.788  16.660  21.096
15211W        W16076   2.146  16.058  20.275
15212W        W16077   2.013  18.137  18.571
15213W        W16078   0.159  16.644  18.268
15214W        W16079   0.894  17.055  21.394
15215W        W16080   0.415  16.222  21.025
15216W        W16081   1.406  16.327  20.819
15217W        W16082   3.174  14.686  21.081
15218W        W16083   3.572  16.296  21.072
15219W        W16084   3.560  16.496  18.758
15220W        W16085   2.423  16.828  18.857
15221W        W16086   2.897  18.128  18.552
15222W        W16087   2.074  16.118  21.694
15223W        W16088   0.404  17.085  21.734
15224W        W16089   3.610  15.007  21.686
15225W        W16090   3.328  15.935  20.307
15226W        W16091   1.636  18.065  21.784
15227W        W16092   1.491  14.694  18.511
15228W        W16093   3.030  17.293  18.454
15229W        W16094   0.799  15.386  21.340
15230W        W16095   1.233  17.380  21.202
15231W        W16096   3.359  15.371  21.000
15232W        W16097   2.570  18.030  18.968
15233W        W16098   2.809  16.649  20.335
15234W        W16099   1.059  15.065  21.002
15235W        W16100   1.528  16.134  21.759
15236W        W16101   1.031  17.313  18.953
15237W        W16102   2.786  16.811  19.217
15238W        W16103   0.554  15.437  20.941
15239W        W16104   1.883  17.499  19.405
15240W        W16105   3.633  16.059  19.586
15241W        W16106   1.855  14.692  21.305
15242W        W16107   2.635  17.397  20.384
15243W        W16108   2.938  17.741  20.092
15244W        W16109   2.157  17.543  18.520
15245W        W16110   0.167  17.435  21.362
15246W        W16111   0.910  15.427  20.600
15247W        W16112   0.880  14.775  19.710
15248W        W16113   2.501  15.617  20.402
15249W        W16114   1.299  16.788  18.602
15250W        W16115   3.297  16.730  20.101
15251W        W16116   0.624  17.488  21.524
15252W        W16117   3.011  18.170  19.321
15253W        W16118   1.110  15.190  19.766
15254W        W16119   0.879  16.683  19.856
15255W        W16120   1.192  18.094  20.606
15256W        W16121   3.259  18.190  21.638
15257W        W16122   2.418  16.378  20.571
15258W        W16123   0.267  16.176  18.486
15259W        W16124   3.401  17.834  19.183
15260W        W16125   3.238  15.158  18.802
15261W        W16126   1.377  14.677  21.205
15262W        W16127   3.083  17.479  19.663
15263W        W16128   3.112  16.035  19.568
15264W        W16129   1.229  15.708  19.784
15265W        W16130   1.474  15.970  21.108
15266W        W16131   2.585  17.123  20.971
15267W        W16132   1.235  15.577  21.083
15268W        W16133   1.214  18.043  19.699
15269W        W16134   0.531  18.002  21.333
15270W        W16135   0.643  17.363  18.463
15271W        W16136   3.160  17.121  19.273
15272W        W16137   0.764  15.913  21.159
15273W        W16138   3.537  15.843  18.640
15274W        W16139   1.282  16.900  19.111
15275W        W16140   2.381  16.282  21.192
15276W        W16141   2.272  15.910  20.736
15277W        W16142   0.832  16.282  20.765
15278W        W16143   3.042  18.170  20.594
15279W        W16144   2.833  14.804  21.588
15280W        W16145   0.497  14.954  21.175
15281W        W16146   0.836  15.977  20.228
15282W        W16147   1.205  15.791  18.350
15283W        W16148   0.008  17.550  20.895
15284W        W16149   1.593  16.259  20.338
15285W        W16150   1.416  15.284  18.443
15286W        W16151   0.551  16.100  19.224
15287W        W16152   0.322  17.952  20.661
15288W        W16153   3.117  16.178  18.769
15289W        W16154   3.212  15.094  21.455
15290W        W16155   2.648  17.303  19.418
15291W        W16156   0.246  16.227  21.595
15292W        W16157   3.212  14.691  18.891
15293W        W16158   2.732  17.166  18.902
15294W        W16159   1.634  16.224  18.987
15295W        W16160   2.821  15.028  18.510
15296W        W16161   2.886  15.635  20.696
15297W        W16162   0.595  16.228  19.903
15298W        W16163   0.889  17.167  19.552
15299W        W16164   2.652  15.787  19.517
15300W        W16165   1.675  15.166  20.213
15301W        W16166   3.637  17.077  20.724
15302W        W16167   3.555  15.064  20.285
15303W        W16168   0.094  17.894  19.661
15304W        W16169   0.603  17.081  19.197
15305W        W16170   0.518  14.698  21.750
15306W        W16171   1.637  17.551  21.852
15307W        W16172   3.392  16.519  19.642
15308W        W16173   2.746  16.696  18.522
15309W        W16174   2.041  18.217  20.734
15310W        W16175   2.898  16.939  21.771
15311W        W16176   1.713  14.649  19.051
15312W        W16177   2.426  15.518  19.910
15313W        W16178   0.112  17.105  20.242
15314W        W16179   1.365  15.067  18.883
15315W        W16180   1.169  16.551  21.732
15316W        W16181   2.163  15.532  19.446
15317W        W16182   2.368  16.942  20.568
15318W        W16183   0.522  17.547  21.003
15319W        W16184   1.113  17.530  21.726
15320W        W16185   0.964  15.327  18.740
15321W        W16186   2.481  15.469  19.065
15322W        W16187   2.439  17.577  21.302
15323W        W16188   1.124  16.169  19.901
15324W        W16189   0.779  17.867  20.766
15325W        W16190   3.524  17.984  18.367
15326W        W16191   0.387  16.656  21.363
15327W        W16192   2.382  16.918  20.051
15328W        W16193   0.818  16.567  19.293
15329W        W16194   1.189  17.574  20.688
15330W        W16195   1.567  14.993  19.729
15331W        W16196   0.178  16.977  18.659
15332W        W16197   1.697  15.928  18.529
15333W        W16198   0.343  16.477  19.548
15334W        W16199   1.633  15.119  21.012
15335W        W16200   3.305  14.828  18.439
15336W        W16201   3.398  16.574  21.538
15337W        W16202   2.052  17.831  21.690
15338W        W16203   3.610  16.925  21.212
15339W        W16204   3.018  17.723  21.823
15340W        W16205   0.757  18.179  20.301
15341W        W16206   3.616  16.801  19.175
15342W        W16207   2.146  16.068  19.688
15343W        W16208   1.913  14.680  19.578
15344W        W16209   0.972  17.664  19.415
15345W        W16210   1.471  15.405  20.640
15346W        W16211   1.171  14.774  20.109
15347W        W16212   0.234  17.596  18.657
15348W        W16213   2.050  16.960  19.375
15349W        W16214   0.925  17.755  21.254
15350W        W16215   0.402  16.578  18.950
15351W        W16216   0.287  15.121  19.949
15352W        W16217   1.835  17.086  20.006
15353W        W16218   0.087  14.940  19.026
15354W        W16219   2.751  16.146  20.953
15355W        W16220   2.628  15.532  18.525
15356W        W16221   3.145  17.204  20.173
15357W        W16222   1.806  17.688  20.004
15358W        W16223   1.218  17.792  18.915
15359W        W16224   2.500  14.695  18.345
15360W        W16225   0.300  17.955  20.086
15361W        W16226   2.497  15.713  21.721
15362W        W16227   0.480  15.243  21.720
15363W        W16228   0.211  15.843  19.053
15364W        W16229   0.902  15.832  18.778
15365W        W16230   2.665  16.159  21.595
15366W        W16231   1.008  16.440  20.304
15367W        W16232   2.482  14.726  19.424
15368W        W16233   1.613  18.157  19.927
15369W        W16234   2.827  17.619  20.864
15370W        W16235   2.411  17.768  19.975
15371W        W16236   2.430  16.748  19.569
15372W        W16237   1.892  14.973  18.640
15373W        W16238   3.573  14.601  19.362
15374W        W16239   1.261  16.236  18.525
15375W        W16240   3.427  15.573  19.515
15376W        W16241   2.119  16.743  18.392
15377W        W16242   3.055  16.943  21.140
15378W        W16243   2.709  17.644  18.607
15379W        W16244   1.324  15.319  21.513
15380W        W16245   1.144  15.903  20.754
15381W        W16246   3.236  17.398  21.031
15382W        W16247   2.336  15.348  21.408
15383W        W16248   0.180  15.819  21.185
15384W        W16249   1.940  16.296  20.911
15385W        W16250   0.297  17.054  19.568
15386W        W16251   0.444  16.351  20.458
15387W        W16252   2.761  16.637  20.808
15388W        W16253   2.533  18.017  21.619
15389W        W16254   2.429  15.756  21.172
15390W        W16255   2.706  17.810  19.577
15391W        W16256   1.708  17.530  20.900
15392W        W16257   1.193  17.885  20.169
15393W        W16258   2.998  17.056  20.588
15394W        W16259   2.048  17.128  21.725
15395W        W16260   0.653  17.081  20.064
15396W        W16261   2.999  16.840  19.709
15397W        W16262   2.640  17.906  20.460
15398W        W16263   0.618  17.635  20.330
15399W        W16264   1.639  15.687  21.540
15400W        W16265   2.090  17.853  19.051
15401W        W16266   1.398  17.108  21.689
15402W        W16267   1.524  17.346  19.066
15403W        W16268   0.745  16.086  18.325
15404W        W16269   0.084  18.172  25.225
15405W        W16270   0.460  17.065  24.748
15406W        W16271   3.165  16.795  22.518
15407W        W16272   3.295  17.880  24.545
15408W        W16273   1.213  17.871  22.071
15409W        W16274   1.296  16.023  23.054
15410W        W16275   0.811  15.871  23.218
15411W        W16276   1.802  16.686  22.652
15412W        W16277   1.477  17.778  25.007
15413W        W16278   0.126  15.339  24.970
15414W        W16279   0.888  14.619  24.772
15415W        W16280   2.582  15.007  23.659
15416W        W16281   2.231  15.878  22.229
15417W        W16282   2.801  15.312  25.320
15418W        W16283   0.167  15.104  24.445
15419W        W16284   0.266  17.723  25.466
15420W        W16285   1.788  17.113  22.198
15421W        W16286   0.220  15.896  23.891
15422W        W16287   1.113  15.787  25.128
15423W        W16288   3.572  15.646  23.627
15424W        W16289   3.336  16.689  24.486
15425W        W16290   1.644  16.022  23.513
15426W        W16291   2.190  17.361  23.882
15427W        W16292   0.690  16.795  24.114
15428W        W16293   0.049  16.323  23.685
15429W        W16294   1.085  16.295  24.877
15430W        W16295   3.356  16.078  25.131
15431W        W16296   0.972  17.522  23.576
15432W        W16297   2.093  17.211  24.710
15433W        W16298   1.313  15.851  23.935
15434W        W16299   1.605  16.635  23.578
15435W        W16300   2.602  17.408  25.426
15436W        W16301   1.681  16.728  25.436
15437W        W16302   1.662  16.444  24.914
15438W        W16303   0.071  15.835  25.436
15439W        W16304   2.903  17.370  25.035
15440W        W16305   0.484  14.952  23.033
15441W        W16306   1.011  17.210  24.032
15442W        W16307   3.474  16.993  23.322
15443W        W16308   2.887  15.393  23.889
15444W        W16309   3.172  15.346  21.984
15445W        W16310   3.637  16.147  24.290
15446W        W16311   1.604  17.854  24.043
15447W        W16312   3.378  17.320  22.481
15448W        W16313   0.507  18.106  22.235
15449W        W16314   0.900  18.152  22.911
15450W        W16315   0.697  14.906  24.337
15451W        W16316   3.320  15.924  24.612
15452W        W16317   2.725  16.346  23.071
15453W        W16318   2.691  16.034  22.098
15454W        W16319   1.899  17.178  24.238
15455W        W16320   1.705  15.508  23.437
15456W        W16321   2.305  17.595  24.431
15457W        W16322   3.176  16.386  22.853
15458W        W16323   2.078  15.044  22.869
15459W        W16324   0.735  17.738  22.552
15460W        W16325   0.106  15.237  23.151
15461W        W16326   2.892  15.844  23.625
15462W        W16327   0.350  17.461  23.540
15463W        W16328   1.691  17.811  22.410
15464W        W16329   3.083  15.837  21.874
15465W        W16330   0.106  17.595  24.038
15466W        W16331   0.897  17.167  24.518
15467W        W16332   1.270  16.527  23.137
15468W        W16333   1.292  14.932  24.230
15469W        W16334   3.521  14.694  23.527
15470W        W16335   0.740  16.566  21.995
15471W        W16336   0.395  15.599  22.174
15472W        W16337   0.457  17.555  22.968
15473W        W16338   1.588  17.038  23.216
15474W        W16339   2.920  17.897  24.930
15475W        W16340   1.846  15.539  22.614
15476W        W16341   3.229  17.937  23.386
15477W        W16342   2.906  15.790  24.984
15478W        W16343   3.619  17.446  23.118
15479W        W16344   2.246  16.738  24.602
15480W        W16345   0.012  16.289  22.808
15481W        W16346   1.123  16.704  24.381
15482W        W16347   2.327  15.968  22.759
15483W        W16348   2.204  16.458  22.863
15484W        W16349   0.547  15.878  24.337
15485W        W16350   0.532  15.754  25.259
15486W        W16351   0.422  14.671  23.418
15487W        W16352   2.190  15.018  23.979
15488W        W16353   1.838  15.203  25.142
15489W        W16354   2.193  15.352  22.320
15490W        W16355   3.376  17.745  25.074
15491W        W16356   2.343  14.826  25.113
15492W        W16357   3.362  17.127  25.235
15493W        W16358   2.792  15.294  24.831
15494W        W16359   2.592  15.232  23.101
15495W        W16360   2.985  16.366  25.505
15496W        W16361   0.725  17.942  23.491
15497W        W16362   1.383  15.659  22.477
15498W        W16363   0.952  14.943  25.141
15499W        W16364   3.004  15.427  22.822
15500W        W16365   3.371  15.909  22.767
15501W        W16366   1.114  18.126  25.238
15502W        W16367   1.040  14.662  22.473
15503W        W16368   3.361  15.196  23.508
15504W        W16369   3.511  17.445  21.953
15505W        W16370   0.418  16.648  23.655
15506W        W16371   2.335  15.235  21.885
15507W        W16372   3.469  17.567  23.605
15508W        W16373   3.508  14.761  24.355
15509W        W16374   1.953  15.973  24.909
15510W        W16375   2.046  17.312  22.612
15511W        W16376   2.446  16.606  25.352
15512W        W16377   2.120  14.583  23.661
15513W        W16378   0.732  15.486  23.724
15514W        W16379   0.286  16.686  24.498
15515W        W16380   2.145  17.879  23.204
15516W        W16381   3.339  15.476  24.076
15517W        W16382   1.976  17.823  24.843
15518W        W16383   3.319  16.882  22.048
15519W        W16384   1.754  16.365  23.109
15520W        W16385   3.606  14.876  24.850
15521W        W16386   1.755  16.711  24.444
15522W        W16387   1.972  15.597  23.889
15523W        W16388   2.824  15.895  22.727
15524W        W16389   3.111  15.628  22.369
15525W        W16390   2.920  17.668  22.758
15526W        W16391   2.754  17.271  23.554
15527W        W16392   2.650  16.350  22.532
15528W        W16393   2.083  16.560  23.518
15529W        W16394   2.964  16.348  23.585
15530W        W16395   0.339  15.363  24.009
15531W        W16396   3.117  16.415  24.836
15532W        W16397   3.468  18.033  23.982
15533W        W16398   1.398  17.477  23.384
15534W        W16399   2.405  18.010  24.708
15535W        W16400   2.399  15.340  24.472
15536W        W16401   1.606  18.048  24.533
15537W        W16402   3.303  15.002  22.999
15538W        W16403   3.094  16.321  24.300
15539W        W16404   0.077  15.642  24.338
15540W        W16405   2.937  15.437  23.356
15541W        W16406   3.348  15.588  25.133
15542W        W16407   2.233  17.287  23.351
15543W        W16408   1.489  17.878  22.964
15544W        W16409   0.604  15.058  22.222
15545W        W16410   1.708  14.712  24.032
15546W        W16411   0.736  17.832  21.880
15547W        W16412   1.110  16.298  22.631
15548W        W16413   1.764  16.927  24.944
15549W        W16414   1.594  15.285  22.934
15550W        W16415   2.950  14.882  23.362
15551W        W16416   2.670  18.164  23.690
15552W        W16417   2.082  17.812  24.030
15553W        W16418   1.478  16.849  23.991
15554W        W16419   3.248  17.572  24.117
15555W        W16420   0.942  15.075  22.886
15556W        W16421   1.464  17.372  23.846
15557W        W16422   0.947  15.303  21.911
15558W        W16423   1.748  15.912  24.305
15559W        W16424   2.596  14.778  24.175
15560W        W16425   0.016  16.621  24.060
15561W        W16426   1.720  16.439  22.218
15562W        W16427   0.988  14.754  21.988
15563W        W16428   1.726  15.835  23.039
15564W        W16429   2.696  14.811  24.738
15565W        W16430   1.284  16.823  24.847
15566W        W16431   2.088  16.605  25.064
15567W        W16432   2.705  16.635  24.957
15568W        W16433   1.989  14.775  25.462
15569W        W16434   1.211  15.391  23.855
15570W        W16435   0.637  15.347  23.253
15571W        W16436   0.423  18.059  22.929
15572W        W16437   1.755  17.389  25.054
15573W        W16438   0.790  16.874  22.413
15574W        W16439   2.470  16.259  23.634
15575W        W16440   2.750  16.058  24.033
15576W        W16441   1.955  16.732  23.967
15577W        W16442   2.425  17.106  22.099
15578W        W16443   2.097  15.127  23.427
15579W        W16444   3.576  15.405  22.695
15580W        W16445   0.070  17.994  24.726
15581W        W16446   0.487  17.220  24.258
15582W        W16447   0.054  18.066  22.490
15583W        W16448   1.953  15.336  24.296
15584W        W16449   1.316  17.359  22.145
15585W        W16450   3.221  17.741  22.331
15586W        W16451   2.196  16.394  22.345
15587W        W16452   1.039  15.585  22.862
15588W        W16453   1.871  15.495  21.914
15589W        W16454   2.455  17.060  25.092
15590W        W16455   2.808  14.966  22.709
15591W        W16456   0.138  14.814  22.157
15592W        W16457   1.424  17.133  24.447
15593W        W16458   1.223  17.049  23.539
15594W        W16459   0.965  17.001  21.937
15595W        W16460   0.206  17.242  22.705
15596W        W16461   0.710  16.312  25.147
15597W        W16462   1.414  14.872  25.333
15598W        W16463   2.123  15.014  24.689
15599W        W16464   1.318  14.782  22.970
15600W        W16465   2.377  14.859  22.475
15601W        W16466   0.322  14.791  24.052
15602W        W16467   0.370  15.754  23.422
15603W        W16468   3.059  14.862  23.828
15604W        W16469   0.481  15.360  22.642
15605W        W16470   3.052  15.048  24.258
15606W        W16471   3.448  16.251  21.943
15607W        W16472   0.740  15.009  23.762
15608W        W16473   1.854  15.581  24.702
15609W        W16474   0.002  15.271  22.180
15610W        W16475   0.788  16.660  24.741
15611W        W16476   2.146  16.058  23.920
15612W        W16477   2.013  18.137  22.216
15613W        W16478   0.159  16.644  21.913
15614W        W16479   0.894  17.055  25.039
15615W        W16480   0.415  16.222  24.670
15616W        W16481   1.406  16.327  24.464
15617W        W16482   3.174  14.686  24.726
15618W        W16483   3.572  16.296  24.717
15619W        W16484   3.560  16.496  22.403
15620W        W16485   2.423  16.828  22.502
15621W        W16486   2.897  18.128  22.197
15622W        W16487   2.074  16.118  25.339
15623W        W16488   0.404  17.085  25.379
15624W        W16489   3.610  15.007  25.331
15625W        W16490   3.328  15.935  23.952
15626W        W16491   1.636  18.065  25.429
15627W        W16492   1.491  14.694  22.156
15628W        W16493   3.030  17.293  22.099
15629W        W16494   0.799  15.386  24.985
15630W        W16495   1.233  17.380  24.847
15631W        W16496   3.359  15.371  24.645
15632W        W16497   2.570  18.030  22.613
15633W        W16498   2.809  16.649  23.980
15634W        W16499   1.059  15.065  24.647
15635W        W16500   1.528  16.134  25.404
15636W        W16501   1.031  17.313  22.598
15637W        W16502   2.786  16.811  22.862
15638W        W16503   0.554  15.437  24.586
15639W        W16504   1.883  17.499  23.050
15640W        W16505   3.633  16.059  23.231
15641W        W16506   1.855  14.692  24.950
15642W        W16507   2.635  17.397  24.029
15643W        W16508   2.938  17.741  23.737
15644W        W16509   2.157  17.543  22.165
15645W        W16510   0.167  17.435  25.007
15646W        W16511   0.910  15.427  24.245
15647W        W16512   0.880  14.775  23.355
15648W        W16513   2.501  15.617  24.047
15649W        W16514   1.299  16.788  22.247
15650W        W16515   3.297  16.730  23.746
15651W        W16516   0.624  17.488  25.169
15652W        W16517   3.011  18.170  22.966
15653W        W16518   1.110  15.190  23.411
15654W        W16519   0.879  16.683  23.501
15655W        W16520   1.192  18.094  24.251
15656W        W16521   3.259  18.190  25.283
15657W        W16522   2.418  16.378  24.216
15658W        W16523   0.267  16.176  22.131
15659W        W16524   3.401  17.834  22.828
15660W        W16525   3.238  15.158  22.447
15661W        W16526   1.377  14.677  24.850
15662W        W16527   3.083  17.479  23.308
15663W        W16528   3.112  16.035  23.213
15664W        W16529   1.229  15.708  23.429
15665W        W16530   1.474  15.970  24.753
15666W        W16531   2.585  17.123  24.616
15667W        W16532   1.235  15.577  24.728
15668W        W16533   1.214  18.043  23.344
15669W        W16534   0.531  18.002  24.978
15670W        W16535   0.643  17.363  22.108
15671W        W16536   3.160  17.121  22.918
15672W        W16537   0.764  15.913  24.804
15673W        W16538   3.537  15.843  22.285
15674W        W16539   1.282  16.900  22.756
15675W        W16540   2.381  16.282  24.837
15676W        W16541   2.272  15.910  24.381
15677W        W16542   0.832  16.282  24.410
15678W        W16543   3.042  18.170  24.239
15679W        W16544   2.833  14.804  25.233
15680W        W16545   0.497  14.954  24.820
15681W        W16546   0.836  15.977  23.873
15682W        W16547   1.205  15.791  21.995
15683W        W16548   0.008  17.550  24.540
15684W        W16549   1.593  16.259  23.983
15685W        W16550   1.416  15.284  22.088
15686W        W16551   0.551  16.100  22.869
15687W        W16552   0.322  17.952  24.306
15688W        W16553   3.117  16.178  22.414
15689W        W16554   3.212  15.094  25.100
15690W        W16555   2.648  17.303  23.063
15691W        W16556   0.246  16.227  25.240
15692W        W16557   3.212  14.691  22.536
15693W        W16558   2.732  17.166  22.547
15694W        W16559   1.634  16.224  22.632
15695W        W16560   2.821  15.028  22.155
15696W        W16561   2.886  15.635  24.341
15697W        W16562   0.595  16.228  23.548
15698W        W16563   0.889  17.167  23.197
15699W        W16564   2.652  15.787  23.162
15700W        W16565   1.675  15.166  23.858
15701W        W16566   3.637  17.077  24.369
15702W        W16567   3.555  15.064  23.930
15703W        W16568   0.094  17.894  23.306
15704W        W16569   0.603  17.081  22.842
15705W        W16570   0.518  14.698  25.395
15706W        W16571   1.637  17.551  25.497
15707W        W16572   3.392  16.519  23.287
15708W        W16573   2.746  16.696  22.167
15709W        W16574   2.041  18.217  24.379
15710W        W16575   2.898  16.939  25.416
15711W        W16576   1.713  14.649  22.696
15712W        W16577   2.426  15.518  23.555
15713W        W16578   0.112  17.105  23.887
15714W        W16579   1.365  15.067  22.528
15715W        W16580   1.169  16.551  25.377
15716W        W16581   2.163  15.532  23.091
15717W        W16582   2.368  16.942  24.213
15718W        W16583   0.522  17.547  24.648
15719W        W16584   1.113  17.530  25.371
15720W        W16585   0.964  15.327  22.385
15721W        W16586   2.481  15.469  22.710
15722W        W16587   2.439  17.577  24.947
15723W        W16588   1.124  16.169  23.546
15724W        W16589   0.779  17.867  24.411
15725W        W16590   3.524  17.984  22.012
15726W        W16591   0.387  16.656  25.008
15727W        W16592   2.382  16.918  23.696
15728W        W16593   0.818  16.567  22.938
15729W        W16594   1.189  17.574  24.333
15730W        W16595   1.567  14.993  23.374
15731W        W16596   0.178  16.977  22.304
15732W        W16597   1.697  15.928  22.174
15733W        W16598   0.343  16.477  23.193
15734W        W16599   1.633  15.119  24.657
15735W        W16600   3.305  14.828  22.084
15736W        W16601   3.398  16.574  25.183
15737W        W16602   2.052  17.831  25.335
15738W        W16603   3.610  16.925  24.857
15739W        W16604   3.018  17.723  25.468
15740W        W16605   0.757  18.179  23.946
15741W        W16606   3.616  16.801  22.820
15742W        W16607   2.146  16.068  23.333
15743W        W16608   1.913  14.680  23.223
15744W        W16609   0.972  17.664  23.060
15745W        W16610   1.471  15.405  24.285
15746W        W16611   1.171  14.774  23.754
15747W        W16612   0.234  17.596  22.302
15748W        W16613   2.050  16.960  23.020
15749W        W16614   0.925  17.755  24.899
15750W        W16615   0.402  16.578  22.595
15751W        W16616   0.287  15.121  23.594
15752W        W16617   1.835  17.086  23.651
15753W        W16618   0.087  14.940  22.671
15754W        W16619   2.751  16.146  24.598
15755W        W16620   2.628  15.532  22.170
15756W        W16621   3.145  17.204  23.818
15757W        W16622   1.806  17.688  23.649
15758W        W16623   1.218  17.792  22.560
15759W        W16624   2.500  14.695  21.990
15760W        W16625   0.300  17.955  23.731
15761W        W16626   2.497  15.713  25.366
15762W        W16627   0.480  15.243  25.365
15763W        W16628   0.211  15.843  22.698
15764W        W16629   0.902  15.832  22.423
15765W        W16630   2.665  16.159  25.240
15766W        W16631   1.008  16.440  23.949
15767W        W16632   2.482  14.726  23.069
15768W        W16633   1.613  18.157  23.572
15769W        W16634   2.827  17.619  24.509
15770W        W16635   2.411  17.768  23.620
15771W        W16636   2.430  16.748  23.214
15772W        W16637   1.892  14.973  22.285
15773W        W16638   3.573  14.601  23.007
15774W        W16639   1.261  16.236  22.170
15775W        W16640   3.427  15.573  23.160
15776W        W16641   2.119  16.743  22.037
15777W        W16642   3.055  16.943  24.785
15778W        W16643   2.709  17.644  22.252
15779W        W16644   1.324  15.319  25.158
15780W        W16645   1.144  15.903  24.399
15781W        W16646   3.236  17.398  24.676
15782W        W16647   2.336  15.348  25.053
15783W        W16648   0.180  15.819  24.830
15784W        W16649   1.940  16.296  24.556
15785W        W16650   0.297  17.054  23.213
15786W        W16651   0.444  16.351  24.103
15787W        W16652   2.761  16.637  24.453
15788W        W16653   2.533  18.017  25.264
15789W        W16654   2.429  15.756  24.817
15790W        W16655   2.706  17.810  23.222
15791W        W16656   1.708  17.530  24.545
15792W        W16657   1.193  17.885  23.814
15793W        W16658   2.998  17.056  24.233
15794W        W16659   2.048  17.128  25.370
15795W        W16660   0.653  17.081  23.709
15796W        W16661   2.999  16.840  23.354
15797W        W16662   2.640  17.906  24.105
15798W        W16663   0.618  17.635  23.975
15799W        W16664   1.639  15.687  25.185
15800W        W16665   2.090  17.853  22.696
15801W        W16666   1.398  17.108  25.334
15802W        W16667   1.524  17.346  22.711
15803W        W16668   0.745  16.086  21.970
15804W        W16669   0.084  18.172  28.869
15805W        W16670   0.460  17.065  28.392
15806W        W16671   3.165  16.795  26.162
15807W        W16672   3.295  17.880  28.189
15808W        W16673   1.213  17.871  25.715
15809W        W16674   1.296  16.023  26.698
15810W        W16675   0.811  15.871  26.862
15811W        W16676   1.802  16.686  26.296
15812W        W16677   1.477  17.778  28.651
15813W        W16678   0.126  15.339  28.614
15814W        W16679   0.888  14.619  28.416
15815W        W16680   2.582  15.007  27.303
15816W        W16681   2.231  15.878  25.873
15817W        W16682   2.801  15.312  28.964
15818W        W16683   0.167  15.104  28.089
15819W        W16684   0.266  17.723  29.110
15820W        W16685   1.788  17.113  25.842
15821W        W16686   0.220  15.896  27.535
15822W        W16687   1.113  15.787  28.772
15823W        W16688   3.572  15.646  27.271
15824W        W16689   3.336  16.689  28.130
15825W        W16690   1.644  16.022  27.157
15826W        W16691   2.190  17.361  27.526
15827W        W16692   0.690  16.795  27.758
15828W        W16693   0.049  16.323  27.329
15829W        W16694   1.085  16.295  28.521
15830W        W16695   3.356  16.078  28.775
15831W        W16696   0.972  17.522  27.220
15832W        W16697   2.093  17.211  28.354
15833W        W16698   1.313  15.851  27.579
15834W        W16699   1.605  16.635  27.222
15835W        W16700   2.602  17.408  29.070
15836W        W16701   1.681  16.728  29.080
15837W        W16702   1.662  16.444  28.558
15838W        W16703   0.071  15.835  29.080
15839W        W16704   2.903  17.370  28.679
15840W        W16705   0.484  14.952  26.677
15841W        W16706   1.011  17.210  27.676
15842W        W16707   3.474  16.993  26.966
15843W        W16708   2.887  15.393  27.533
15844W        W16709   3.172  15.346  25.628
15845W        W16710   3.637  16.147  27.934
15846W        W16711   1.604  17.854  27.687
15847W        W16712   3.378  17.320  26.125
15848W        W16713   0.507  18.106  25.879
15849W        W16714   0.900  18.152  26.555
15850W        W16715   0.697  14.906  27.981
15851W        W16716   3.320  15.924  28.256
15852W        W16717   2.725  16.346  26.715
15853W        W16718   2.691  16.034  25.742
15854W        W16719   1.899  17.178  27.882
15855W        W16720   1.705  15.508  27.081
15856W        W16721   2.305  17.595  28.075
15857W        W16722   3.176  16.386  26.497
15858W        W16723   2.078  15.044  26.513
15859W        W16724   0.735  17.738  26.196
15860W        W16725   0.106  15.237  26.795
15861W        W16726   2.892  15.844  27.269
15862W        W16727   0.350  17.461  27.184
15863W        W16728   1.691  17.811  26.054
15864W        W16729   3.083  15.837  25.518
15865W        W16730   0.106  17.595  27.682
15866W        W16731   0.897  17.167  28.162
15867W        W16732   1.270  16.527  26.781
15868W        W16733   1.292  14.932  27.874
15869W        W16734   3.521  14.694  27.171
15870W        W16735   0.740  16.566  25.639
15871W        W16736   0.395  15.599  25.818
15872W        W16737   0.457  17.555  26.612
15873W        W16738   1.588  17.038  26.860
15874W        W16739   2.920  17.897  28.574
15875W        W16740   1.846  15.539  26.258
15876W        W16741   3.229  17.937  27.030
15877W        W16742   2.906  15.790  28.628
15878W        W16743   3.619  17.446  26.762
15879W        W16744   2.246  16.738  28.246
15880W        W16745   0.012  16.289  26.452
15881W        W16746   1.123  16.704  28.025
15882W        W16747   2.327  15.968  26.403
15883W        W16748   2.204  16.458  26.507
15884W        W16749   0.547  15.878  27.981
15885W        W16750   0.532  15.754  28.903
15886W        W16751   0.422  14.671  27.062
15887W        W16752   2.190  15.018  27.623
15888W        W16753   1.838  15.203  28.786
15889W        W16754   2.193  15.352  25.964
15890W        W16755   3.376  17.745  28.718
15891W        W16756   2.343  14.826  28.757
15892W        W16757   3.362  17.127  28.879
15893W        W16758   2.792  15.294  28.475
15894W        W16759   2.592  15.232  26.745
15895W        W16760   2.985  16.366  29.149
15896W        W16761   0.725  17.942  27.135
15897W        W16762   1.383  15.659  26.121
15898W        W16763   0.952  14.943  28.785
15899W        W16764   3.004  15.427  26.466
15900W        W16765   3.371  15.909  26.411
15901W        W16766   1.114  18.126  28.882
15902W        W16767   1.040  14.662  26.117
15903W        W16768   3.361  15.196  27.152
15904W        W16769   3.511  17.445  25.597
15905W        W16770   0.418  16.648  27.299
15906W        W16771   2.335  15.235  25.529
15907W        W16772   3.469  17.567  27.249
15908W        W16773   3.508  14.761  27.999
15909W        W16774   1.953  15.973  28.553
15910W        W16775   2.046  17.312  26.256
15911W        W16776   2.446  16.606  28.996
15912W        W16777   2.120  14.583  27.305
15913W        W16778   0.732  15.486  27.368
15914W        W16779   0.286  16.686  28.142
15915W        W16780   2.145  17.879  26.848
15916W        W16781   3.339  15.476  27.720
15917W        W16782   1.976  17.823  28.487
15918W        W16783   3.319  16.882  25.692
15919W        W16784   1.754  16.365  26.753
15920W        W16785   3.606  14.876  28.494
15921W        W16786   1.755  16.711  28.088
15922W        W16787   1.972  15.597  27.533
15923W        W16788   2.824  15.895  26.371
15924W        W16789   3.111  15.628  26.013
15925W        W16790   2.920  17.668  26.402
15926W        W16791   2.754  17.271  27.198
15927W        W16792   2.650  16.350  26.176
15928W        W16793   2.083  16.560  27.162
15929W        W16794   2.964  16.348  27.229
15930W        W16795   0.339  15.363  27.653
15931W        W16796   3.117  16.415  28.480
15932W        W16797   3.468  18.033  27.626
15933W        W16798   1.398  17.477  27.028
15934W        W16799   2.405  18.010  28.352
15935W        W16800   2.399  15.340  28.116
15936W        W16801   1.606  18.048  28.177
15937W        W16802   3.303  15.002  26.643
15938W        W16803   3.094  16.321  27.944
15939W        W16804   0.077  15.642  27.982
15940W        W16805   2.937  15.437  27.000
15941W        W16806   3.348  15.588  28.777
15942W        W16807   2.233  17.287  26.995
15943W        W16808   1.489  17.878  26.608
15944W        W16809   0.604  15.058  25.866
15945W        W16810   1.708  14.712  27.676
15946W        W16811   0.736  17.832  25.524
15947W        W16812   1.110  16.298  26.275
15948W        W16813   1.764  16.927  28.588
15949W        W16814   1.594  15.285  26.578
15950W        W16815   2.950  14.882  27.006
15951W        W16816   2.670  18.164  27.334
15952W        W16817   2.082  17.812  27.674
15953W        W16818   1.478  16.849  27.635
15954W        W16819   3.248  17.572  27.761
15955W        W16820   0.942  15.075  26.530
15956W        W16821   1.464  17.372  27.490
15957W        W16822   0.947  15.303  25.555
15958W        W16823   1.748  15.912  27.949
15959W        W16824   2.596  14.778  27.819
15960W        W16825   0.016  16.621  27.704
15961W        W16826   1.720  16.439  25.862
15962W        W16827   0.988  14.754  25.632
15963W        W16828   1.726  15.835  26.683
15964W        W16829   2.696  14.811  28.382
15965W        W16830   1.284  16.823  28.491
15966W        W16831   2.088  16.605  28.708
15967W        W16832   2.705  16.635  28.601
15968W        W16833   1.989  14.775  29.106
15969W        W16834   1.211  15.391  27.499
15970W        W16835   0.637  15.347  26.897
15971W        W16836   0.423  18.059  26.573
15972W        W16837   1.755  17.389  28.698
15973W        W16838   0.790  16.874  26.057
15974W        W16839   2.470  16.259  27.278
15975W        W16840   2.750  16.058  27.677
15976W        W16841   1.955  16.732  27.611
15977W        W16842   2.425  17.106  25.743
15978W        W16843   2.097  15.127  27.071
15979W        W16844   3.576  15.405  26.339
15980W        W16845   0.070  17.994  28.370
15981W        W16846   0.487  17.220  27.902
15982W        W16847   0.054  18.066  26.134
15983W        W16848   1.953  15.336  27.940
15984W        W16849   1.316  17.359  25.789
15985W        W16850   3.221  17.741  25.975
15986W        W16851   2.196  16.394  25.989
15987W        W16852   1.039  15.585  26.506
15988W        W16853   1.871  15.495  25.558
15989W        W16854   2.455  17.060  28.736
15990W        W16855   2.808  14.966  26.353
15991W        W16856   0.138  14.814  25.801
15992W        W16857   1.424  17.133  28.091
15993W        W16858   1.223  17.049  27.183
15994W        W16859   0.965  17.001  25.581
15995W        W16860   0.206  17.242  26.349
15996W        W16861   0.710  16.312  28.791
15997W        W16862   1.414  14.872  28.977
15998W        W16863   2.123  15.014  28.333
15999W        W16864   1.318  14.782  26.614
16000W        W16865   2.377  14.859  26.119
16001W        W16866   0.322  14.791  27.696
16002W        W16867   0.370  15.754  27.066
16003W        W16868   3.059  14.862  27.472
16004W        W16869   0.481  15.360  26.286
16005W        W16870   3.052  15.048  27.902
16006W        W16871   3.448  16.251  25.587
16007W        W16872   0.740  15.009  27.406
16008W        W16873   1.854  15.581  28.346
16009W        W16874   0.002  15.271  25.824
16010W        W16875   0.788  16.660  28.385
16011W        W16876   2.146  16.058  27.564
16012W        W16877   2.013  18.137  25.860
16013W        W16878   0.159  16.644  25.557
16014W        W16879   0.894  17.055  28.683
16015W        W16880   0.415  16.222  28.314
16016W        W16881   1.406  16.327  28.108
16017W        W16882   3.174  14.686  28.370
16018W        W16883   3.572  16.296  28.361
16019W        W16884   3.560  16.496  26.047
16020W        W16885   2.423  16.828  26.146
16021W        W16886   2.897  18.128  25.841
16022W        W16887   2.074  16.118  28.983
16023W        W16888   0.404  17.085  29.023
16024W        W16889   3.610  15.007  28.975
16025W        W16890   3.328  15.935  27.596
16026W        W16891   1.636  18.065  29.073
16027W        W16892   1.491  14.694  25.800
16028W        W16893   3.030  17.293  25.743
16029W        W16894   0.799  15.386  28.629
16030W        W16895   1.233  17.380  28.491
16031W        W16896   3.359  15.371  28.289
16032W        W16897   2.570  18.030  26.257
16033W        W16898   2.809  16.649  27.624
16034W        W16899   1.059  15.065  28.291
16035W        W16900   1.528  16.134  29.048
16036W        W16901   1.031  17.313  26.242
16037W        W16902   2.786  16.811  26.506
16038W        W16903   0.554  15.437  28.230
16039W        W16904   1.883  17.499  26.694
16040W        W16905   3.633  16.059  26.875
16041W        W16906   1.855  14.692  28.594
16042W        W16907   2.635  17.397  27.673
16043W        W16908   2.938  17.741  27.381
16044W        W16909   2.157  17.543  25.809
16045W        W16910   0.167  17.435  28.651
16046W        W16911   0.910  15.427  27.889
16047W        W16912   0.880  14.775  26.999
16048W        W16913   2.501  15.617  27.691
16049W        W16914   1.299  16.788  25.891
16050W        W16915   3.297  16.730  27.390
16051W        W16916   0.624  17.488  28.813
16052W        W16917   3.011  18.170  26.610
16053W        W16918   1.110  15.190  27.055
16054W        W16919   0.879  16.683  27.145
16055W        W16920   1.192  18.094  27.895
16056W        W16921   3.259  18.190  28.927
16057W        W16922   2.418  16.378  27.860
16058W        W16923   0.267  16.176  25.775
16059W        W16924   3.401  17.834  26.472
16060W        W16925   3.238  15.158  26.091
16061W        W16926   1.377  14.677  28.494
16062W        W16927   3.083  17.479  26.952
16063W        W16928   3.112  16.035  26.857
16064W        W16929   1.229  15.708  27.073
16065W        W16930   1.474  15.970  28.397
16066W        W16931   2.585  17.123  28.260
16067W        W16932   1.235  15.577  28.372
16068W        W16933   1.214  18.043  26.988
16069W        W16934   0.531  18.002  28.622
16070W        W16935   0.643  17.363  25.752
16071W        W16936   3.160  17.121  26.562
16072W        W16937   0.764  15.913  28.448
16073W        W16938   3.537  15.843  25.929
16074W        W16939   1.282  16.900  26.400
16075W        W16940   2.381  16.282  28.481
16076W        W16941   2.272  15.910  28.025
16077W        W16942   0.832  16.282  28.054
16078W        W16943   3.042  18.170  27.883
16079W        W16944   2.833  14.804  28.877
16080W        W16945   0.497  14.954  28.464
16081W        W16946   0.836  15.977  27.517
16082W        W16947   1.205  15.791  25.639
16083W        W16948   0.008  17.550  28.184
16084W        W16949   1.593  16.259  27.627
16085W        W16950   1.416  15.284  25.732
16086W        W16951   0.551  16.100  26.513
16087W        W16952   0.322  17.952  27.950
16088W        W16953   3.117  16.178  26.058
16089W        W16954   3.212  15.094  28.744
16090W        W16955   2.648  17.303  26.707
16091W        W16956   0.246  16.227  28.884
16092W        W16957   3.212  14.691  26.180
16093W        W16958   2.732  17.166  26.191
16094W        W16959   1.634  16.224  26.276
16095W        W16960   2.821  15.028  25.799
16096W        W16961   2.886  15.635  27.985
16097W        W16962   0.595  16.228  27.192
16098W        W16963   0.889  17.167  26.841
16099W        W16964   2.652  15.787  26.806
16100W        W16965   1.675  15.166  27.502
16101W        W16966   3.637  17.077  28.013
16102W        W16967   3.555  15.064  27.574
16103W        W16968   0.094  17.894  26.950
16104W        W16969   0.603  17.081  26.486
16105W        W16970   0.518  14.698  29.039
16106W        W16971   1.637  17.551  29.141
16107W        W16972   3.392  16.519  26.931
16108W        W16973   2.746  16.696  25.811
16109W        W16974   2.041  18.217  28.023
16110W        W16975   2.898  16.939  29.060
16111W        W16976   1.713  14.649  26.340
16112W        W16977   2.426  15.518  27.199
16113W        W16978   0.112  17.105  27.531
16114W        W16979   1.365  15.067  26.172
16115W        W16980   1.169  16.551  29.021
16116W        W16981   2.163  15.532  26.735
16117W        W16982   2.368  16.942  27.857
16118W        W16983   0.522  17.547  28.292
16119W        W16984   1.113  17.530  29.015
16120W        W16985   0.964  15.327  26.029
16121W        W16986   2.481  15.469  26.354
16122W        W16987   2.439  17.577  28.591
16123W        W16988   1.124  16.169  27.190
16124W        W16989   0.779  17.867  28.055
16125W        W16990   3.524  17.984  25.656
16126W        W16991   0.387  16.656  28.652
16127W        W16992   2.382  16.918  27.340
16128W        W16993   0.818  16.567  26.582
16129W        W16994   1.189  17.574  27.977
16130W        W16995   1.567  14.993  27.018
16131W        W16996   0.178  16.977  25.948
16132W        W16997   1.697  15.928  25.818
16133W        W16998   0.343  16.477  26.837
16134W        W16999   1.633  15.119  28.301
16135W        W17000   3.305  14.828  25.728
16136W        W17001   3.398  16.574  28.827
16137W        W17002   2.052  17.831  28.979
16138W        W17003   3.610  16.925  28.501
16139W        W17004   3.018  17.723  29.112
16140W        W17005   0.757  18.179  27.590
16141W        W17006   3.616  16.801  26.464
16142W        W17007   2.146  16.068  26.977
16143W        W17008   1.913  14.680  26.867
16144W        W17009   0.972  17.664  26.704
16145W        W17010   1.471  15.405  27.929
16146W        W17011   1.171  14.774  27.398
16147W        W17012   0.234  17.596  25.946
16148W        W17013   2.050  16.960  26.664
16149W        W17014   0.925  17.755  28.543
16150W        W17015   0.402  16.578  26.239
16151W        W17016   0.287  15.121  27.238
16152W        W17017   1.835  17.086  27.295
16153W        W17018   0.087  14.940  26.315
16154W        W17019   2.751  16.146  28.242
16155W        W17020   2.628  15.532  25.814
16156W        W17021   3.145  17.204  27.462
16157W        W17022   1.806  17.688  27.293
16158W        W17023   1.218  17.792  26.204
16159W        W17024   2.500  14.695  25.634
16160W        W17025   0.300  17.955  27.375
16161W        W17026   2.497  15.713  29.010
16162W        W17027   0.480  15.243  29.009
16163W        W17028   0.211  15.843  26.342
16164W        W17029   0.902  15.832  26.067
16165W        W17030   2.665  16.159  28.884
16166W        W17031   1.008  16.440  27.593
16167W        W17032   2.482  14.726  26.713
16168W        W17033   1.613  18.157  27.216
16169W        W17034   2.827  17.619  28.153
16170W        W17035   2.411  17.768  27.264
16171W        W17036   2.430  16.748  26.858
16172W        W17037   1.892  14.973  25.929
16173W        W17038   3.573  14.601  26.651
16174W        W17039   1.261  16.236  25.814
16175W        W17040   3.427  15.573  26.804
16176W        W17041   2.119  16.743  25.681
16177W        W17042   3.055  16.943  28.429
16178W        W17043   2.709  17.644  25.896
16179W        W17044   1.324  15.319  28.802
16180W        W17045   1.144  15.903  28.043
16181W        W17046   3.236  17.398  28.320
16182W        W17047   2.336  15.348  28.697
16183W        W17048   0.180  15.819  28.474
16184W        W17049   1.940  16.296  28.200
16185W        W17050   0.297  17.054  26.857
16186W        W17051   0.444  16.351  27.747
16187W        W17052   2.761  16.637  28.097
16188W        W17053   2.533  18.017  28.908
16189W        W17054   2.429  15.756  28.461
16190W        W17055   2.706  17.810  26.866
16191W        W17056   1.708  17.530  28.189
16192W        W17057   1.193  17.885  27.458
16193W        W17058   2.998  17.056  27.877
16194W        W17059   2.048  17.128  29.014
16195W        W17060   0.653  17.081  27.353
16196W        W17061   2.999  16.840  26.998
16197W        W17062   2.640  17.906  27.749
16198W        W17063   0.618  17.635  27.619
16199W        W17064   1.639  15.687  28.829
16200W        W17065   2.090  17.853  26.340
16201W        W17066   1.398  17.108  28.978
16202W        W17067   1.524  17.346  26.355
16203W        W17068   0.745  16.086  25.614
16204W        W17069   0.084  21.816   3.359
16205W        W17070   0.460  20.709   2.882
16206W        W17071   3.165  20.439   0.652
16207W        W17072   3.295  21.524   2.679
16208W        W17073   1.213  21.515   0.205
16209W        W17074   1.296  19.667   1.188
16210W        W17075   0.811  19.515   1.352
16211W        W17076   1.802  20.330   0.786
16212W        W17077   1.477  21.422   3.141
16213W        W17078   0.126  18.983   3.104
16214W        W17079   0.888  18.263   2.906
16215W        W17080   2.582  18.651   1.793
16216W        W17081   2.231  19.522   0.363
16217W        W17082   2.801  18.956   3.454
16218W        W17083   0.167  18.748   2.579
16219W        W17084   0.266  21.367   3.600
16220W        W17085   1.788  20.757   0.332
16221W        W17086   0.220  19.540   2.025
16222W        W17087   1.113  19.431   3.262
16223W        W17088   3.572  19.290   1.761
16224W        W17089   3.336  20.333   2.620
16225W        W17090   1.644  19.666   1.647
16226W        W17091   2.190  21.005   2.016
16227W        W17092   0.690  20.439   2.248
16228W        W17093   0.049  19.967   1.819
16229W        W17094   1.085  19.939   3.011
16230W        W17095   3.356  19.722   3.265
16231W        W17096   0.972  21.166   1.710
16232W        W17097   2.093  20.855   2.844
16233W        W17098   1.313  19.495   2.069
16234W        W17099   1.605  20.279   1.712
16235W        W17100   2.602  21.052   3.560
16236W        W17101   1.681  20.372   3.570
16237W        W17102   1.662  20.088   3.048
16238W        W17103   0.071  19.479   3.570
16239W        W17104   2.903  21.014   3.169
16240W        W17105   0.484  18.596   1.167
16241W        W17106   1.011  20.854   2.166
16242W        W17107   3.474  20.637   1.456
16243W        W17108   2.887  19.037   2.023
16244W        W17109   3.172  18.990   0.118
16245W        W17110   3.637  19.791   2.424
16246W        W17111   1.604  21.498   2.177
16247W        W17112   3.378  20.964   0.615
16248W        W17113   0.507  21.750   0.369
16249W        W17114   0.900  21.796   1.045
16250W        W17115   0.697  18.550   2.471
16251W        W17116   3.320  19.568   2.746
16252W        W17117   2.725  19.990   1.205
16253W        W17118   2.691  19.678   0.232
16254W        W17119   1.899  20.822   2.372
16255W        W17120   1.705  19.152   1.571
16256W        W17121   2.305  21.239   2.565
16257W        W17122   3.176  20.030   0.987
16258W        W17123   2.078  18.688   1.003
16259W        W17124   0.735  21.382   0.686
16260W        W17125   0.106  18.881   1.285
16261W        W17126   2.892  19.488   1.759
16262W        W17127   0.350  21.105   1.674
16263W        W17128   1.691  21.455   0.544
16264W        W17129   3.083  19.481   0.008
16265W        W17130   0.106  21.239   2.172
16266W        W17131   0.897  20.811   2.652
16267W        W17132   1.270  20.171   1.271
16268W        W17133   1.292  18.576   2.364
16269W        W17134   3.521  18.338   1.661
16270W        W17135   0.740  20.210   0.129
16271W        W17136   0.395  19.243   0.308
16272W        W17137   0.457  21.199   1.102
16273W        W17138   1.588  20.682   1.350
16274W        W17139   2.920  21.541   3.064
16275W        W17140   1.846  19.183   0.748
16276W        W17141   3.229  21.581   1.520
16277W        W17142   2.906  19.434   3.118
16278W        W17143   3.619  21.090   1.252
16279W        W17144   2.246  20.382   2.736
16280W        W17145   0.012  19.933   0.942
16281W        W17146   1.123  20.348   2.515
16282W        W17147   2.327  19.612   0.893
16283W        W17148   2.204  20.102   0.997
16284W        W17149   0.547  19.522   2.471
16285W        W17150   0.532  19.398   3.393
16286W        W17151   0.422  18.315   1.552
16287W        W17152   2.190  18.662   2.113
16288W        W17153   1.838  18.847   3.276
16289W        W17154   2.193  18.996   0.454
16290W        W17155   3.376  21.389   3.208
16291W        W17156   2.343  18.470   3.247
16292W        W17157   3.362  20.771   3.369
16293W        W17158   2.792  18.938   2.965
16294W        W17159   2.592  18.876   1.235
16295W        W17160   2.985  20.010   3.639
16296W        W17161   0.725  21.586   1.625
16297W        W17162   1.383  19.303   0.611
16298W        W17163   0.952  18.587   3.275
16299W        W17164   3.004  19.071   0.956
16300W        W17165   3.371  19.553   0.901
16301W        W17166   1.114  21.770   3.372
16302W        W17167   1.040  18.306   0.607
16303W        W17168   3.361  18.840   1.642
16304W        W17169   3.511  21.089   0.087
16305W        W17170   0.418  20.292   1.789
16306W        W17171   2.335  18.879   0.019
16307W        W17172   3.469  21.211   1.739
16308W        W17173   3.508  18.405   2.489
16309W        W17174   1.953  19.617   3.043
16310W        W17175   2.046  20.956   0.746
16311W        W17176   2.446  20.250   3.486
16312W        W17177   2.120  18.227   1.795
16313W        W17178   0.732  19.130   1.858
16314W        W17179   0.286  20.330   2.632
16315W        W17180   2.145  21.523   1.338
16316W        W17181   3.339  19.120   2.210
16317W        W17182   1.976  21.467   2.977
16318W        W17183   3.319  20.526   0.182
16319W        W17184   1.754  20.009   1.243
16320W        W17185   3.606  18.520   2.984
16321W        W17186   1.755  20.355   2.578
16322W        W17187   1.972  19.241   2.023
16323W        W17188   2.824  19.539   0.861
16324W        W17189   3.111  19.272   0.503
16325W        W17190   2.920  21.312   0.892
16326W        W17191   2.754  20.915   1.688
16327W        W17192   2.650  19.994   0.666
16328W        W17193   2.083  20.204   1.652
16329W        W17194   2.964  19.992   1.719
16330W        W17195   0.339  19.007   2.143
16331W        W17196   3.117  20.059   2.970
16332W        W17197   3.468  21.677   2.116
16333W        W17198   1.398  21.121   1.518
16334W        W17199   2.405  21.654   2.842
16335W        W17200   2.399  18.984   2.606
16336W        W17201   1.606  21.692   2.667
16337W        W17202   3.303  18.646   1.133
16338W        W17203   3.094  19.965   2.434
16339W        W17204   0.077  19.286   2.472
16340W        W17205   2.937  19.081   1.490
16341W        W17206   3.348  19.232   3.267
16342W        W17207   2.233  20.931   1.485
16343W        W17208   1.489  21.522   1.098
16344W        W17209   0.604  18.702   0.356
16345W        W17210   1.708  18.356   2.166
16346W        W17211   0.736  21.476   0.014
16347W        W17212   1.110  19.942   0.765
16348W        W17213   1.764  20.571   3.078
16349W        W17214   1.594  18.929   1.068
16350W        W17215   2.950  18.526   1.496
16351W        W17216   2.670  21.808   1.824
16352W        W17217   2.082  21.456   2.164
16353W        W17218   1.478  20.493   2.125
16354W        W17219   3.248  21.216   2.251
16355W        W17220   0.942  18.719   1.020
16356W        W17221   1.464  21.016   1.980
16357W        W17222   0.947  18.947   0.045
16358W        W17223   1.748  19.556   2.439
16359W        W17224   2.596  18.422   2.309
16360W        W17225   0.016  20.265   2.194
16361W        W17226   1.720  20.083   0.352
16362W        W17227   0.988  18.398   0.122
16363W        W17228   1.726  19.479   1.173
16364W        W17229   2.696  18.455   2.872
16365W        W17230   1.284  20.467   2.981
16366W        W17231   2.088  20.249   3.198
16367W        W17232   2.705  20.279   3.091
16368W        W17233   1.989  18.419   3.596
16369W        W17234   1.211  19.035   1.989
16370W        W17235   0.637  18.991   1.387
16371W        W17236   0.423  21.703   1.063
16372W        W17237   1.755  21.033   3.188
16373W        W17238   0.790  20.518   0.547
16374W        W17239   2.470  19.903   1.768
16375W        W17240   2.750  19.702   2.167
16376W        W17241   1.955  20.376   2.101
16377W        W17242   2.425  20.750   0.233
16378W        W17243   2.097  18.771   1.561
16379W        W17244   3.576  19.049   0.829
16380W        W17245   0.070  21.638   2.860
16381W        W17246   0.487  20.864   2.392
16382W        W17247   0.054  21.710   0.624
16383W        W17248   1.953  18.980   2.430
16384W        W17249   1.316  21.003   0.279
16385W        W17250   3.221  21.385   0.465
16386W        W17251   2.196  20.038   0.479
16387W        W17252   1.039  19.229   0.996
16388W        W17253   1.871  19.139   0.048
16389W        W17254   2.455  20.704   3.226
16390W        W17255   2.808  18.610   0.843
16391W        W17256   0.138  18.458   0.291
16392W        W17257   1.424  20.777   2.581
16393W        W17258   1.223  20.693   1.673
16394W        W17259   0.965  20.645   0.071
16395W        W17260   0.206  20.886   0.839
16396W        W17261   0.710  19.956   3.281
16397W        W17262   1.414  18.516   3.467
16398W        W17263   2.123  18.658   2.823
16399W        W17264   1.318  18.426   1.104
16400W        W17265   2.377  18.503   0.609
16401W        W17266   0.322  18.435   2.186
16402W        W17267   0.370  19.398   1.556
16403W        W17268   3.059  18.506   1.962
16404W        W17269   0.481  19.004   0.776
16405W        W17270   3.052  18.692   2.392
16406W        W17271   3.448  19.895   0.077
16407W        W17272   0.740  18.653   1.896
16408W        W17273   1.854  19.225   2.836
16409W        W17274   0.002  18.915   0.314
16410W        W17275   0.788  20.304   2.875
16411W        W17276   2.146  19.702   2.054
16412W        W17277   2.013  21.781   0.350
16413W        W17278   0.159  20.288   0.047
16414W        W17279   0.894  20.699   3.173
16415W        W17280   0.415  19.866   2.804
16416W        W17281   1.406  19.971   2.598
16417W        W17282   3.174  18.330   2.860
16418W        W17283   3.572  19.940   2.851
16419W        W17284   3.560  20.140   0.537
16420W        W17285   2.423  20.472   0.636
16421W        W17286   2.897  21.772   0.331
16422W        W17287   2.074  19.762   3.473
16423W        W17288   0.404  20.729   3.513
16424W        W17289   3.610  18.651   3.465
16425W        W17290   3.328  19.579   2.086
16426W        W17291   1.636  21.709   3.563
16427W        W17292   1.491  18.338   0.290
16428W        W17293   3.030  20.937   0.233
16429W        W17294   0.799  19.030   3.119
16430W        W17295   1.233  21.024   2.981
16431W        W17296   3.359  19.015   2.779
16432W        W17297   2.570  21.674   0.747
16433W        W17298   2.809  20.293   2.114
16434W        W17299   1.059  18.709   2.781
16435W        W17300   1.528  19.778   3.538
16436W        W17301   1.031  20.957   0.732
16437W        W17302   2.786  20.455   0.996
16438W        W17303   0.554  19.081   2.720
16439W        W17304   1.883  21.143   1.184
16440W        W17305   3.633  19.703   1.365
16441W        W17306   1.855  18.336   3.084
16442W        W17307   2.635  21.041   2.163
16443W        W17308   2.938  21.385   1.871
16444W        W17309   2.157  21.187   0.299
16445W        W17310   0.167  21.079   3.141
16446W        W17311   0.910  19.071   2.379
16447W        W17312   0.880  18.419   1.489
16448W        W17313   2.501  19.261   2.181
16449W        W17314   1.299  20.432   0.381
16450W        W17315   3.297  20.374   1.880
16451W        W17316   0.624  21.132   3.303
16452W        W17317   3.011  21.814   1.100
16453W        W17318   1.110  18.834   1.545
16454W        W17319   0.879  20.327   1.635
16455W        W17320   1.192  21.738   2.385
16456W        W17321   3.259  21.834   3.417
16457W        W17322   2.418  20.022   2.350
16458W        W17323   0.267  19.820   0.265
16459W        W17324   3.401  21.478   0.962
16460W        W17325   3.238  18.802   0.581
16461W        W17326   1.377  18.321   2.984
16462W        W17327   3.083  21.123   1.442
16463W        W17328   3.112  19.679   1.347
16464W        W17329   1.229  19.352   1.563
16465W        W17330   1.474  19.614   2.887
16466W        W17331   2.585  20.767   2.750
16467W        W17332   1.235  19.221   2.862
16468W        W17333   1.214  21.687   1.478
16469W        W17334   0.531  21.646   3.112
16470W        W17335   0.643  21.007   0.242
16471W        W17336   3.160  20.765   1.052
16472W        W17337   0.764  19.557   2.938
16473W        W17338   3.537  19.487   0.419
16474W        W17339   1.282  20.544   0.890
16475W        W17340   2.381  19.926   2.971
16476W        W17341   2.272  19.554   2.515
16477W        W17342   0.832  19.926   2.544
16478W        W17343   3.042  21.814   2.373
16479W        W17344   2.833  18.448   3.367
16480W        W17345   0.497  18.598   2.954
16481W        W17346   0.836  19.621   2.007
16482W        W17347   1.205  19.435   0.129
16483W        W17348   0.008  21.194   2.674
16484W        W17349   1.593  19.903   2.117
16485W        W17350   1.416  18.928   0.222
16486W        W17351   0.551  19.744   1.003
16487W        W17352   0.322  21.596   2.440
16488W        W17353   3.117  19.822   0.548
16489W        W17354   3.212  18.738   3.234
16490W        W17355   2.648  20.947   1.197
16491W        W17356   0.246  19.871   3.374
16492W        W17357   3.212  18.335   0.670
16493W        W17358   2.732  20.810   0.681
16494W        W17359   1.634  19.868   0.766
16495W        W17360   2.821  18.672   0.289
16496W        W17361   2.886  19.279   2.475
16497W        W17362   0.595  19.872   1.682
16498W        W17363   0.889  20.811   1.331
16499W        W17364   2.652  19.431   1.296
16500W        W17365   1.675  18.810   1.992
16501W        W17366   3.637  20.721   2.503
16502W        W17367   3.555  18.708   2.064
16503W        W17368   0.094  21.538   1.440
16504W        W17369   0.603  20.725   0.976
16505W        W17370   0.518  18.342   3.529
16506W        W17371   1.637  21.195   3.631
16507W        W17372   3.392  20.163   1.421
16508W        W17373   2.746  20.340   0.301
16509W        W17374   2.041  21.861   2.513
16510W        W17375   2.898  20.583   3.550
16511W        W17376   1.713  18.293   0.830
16512W        W17377   2.426  19.162   1.689
16513W        W17378   0.112  20.749   2.021
16514W        W17379   1.365  18.711   0.662
16515W        W17380   1.169  20.195   3.511
16516W        W17381   2.163  19.176   1.225
16517W        W17382   2.368  20.586   2.347
16518W        W17383   0.522  21.191   2.782
16519W        W17384   1.113  21.174   3.505
16520W        W17385   0.964  18.971   0.519
16521W        W17386   2.481  19.113   0.844
16522W        W17387   2.439  21.221   3.081
16523W        W17388   1.124  19.813   1.680
16524W        W17389   0.779  21.511   2.545
16525W        W17390   3.524  21.628   0.146
16526W        W17391   0.387  20.300   3.142
16527W        W17392   2.382  20.562   1.830
16528W        W17393   0.818  20.211   1.072
16529W        W17394   1.189  21.218   2.467
16530W        W17395   1.567  18.637   1.508
16531W        W17396   0.178  20.621   0.438
16532W        W17397   1.697  19.572   0.308
16533W        W17398   0.343  20.121   1.327
16534W        W17399   1.633  18.763   2.791
16535W        W17400   3.305  18.472   0.218
16536W        W17401   3.398  20.218   3.317
16537W        W17402   2.052  21.475   3.469
16538W        W17403   3.610  20.569   2.991
16539W        W17404   3.018  21.367   3.602
16540W        W17405   0.757  21.823   2.080
16541W        W17406   3.616  20.445   0.954
16542W        W17407   2.146  19.712   1.467
16543W        W17408   1.913  18.324   1.357
16544W        W17409   0.972  21.308   1.194
16545W        W17410   1.471  19.049   2.419
16546W        W17411   1.171  18.418   1.888
16547W        W17412   0.234  21.240   0.436
16548W        W17413   2.050  20.604   1.154
16549W        W17414   0.925  21.399   3.033
16550W        W17415   0.402  20.222   0.729
16551W        W17416   0.287  18.765   1.728
16552W        W17417   1.835  20.730   1.785
16553W        W17418   0.087  18.584   0.805
16554W        W17419   2.751  19.790   2.732
16555W        W17420   2.628  19.176   0.304
16556W        W17421   3.145  20.848   1.952
16557W        W17422   1.806  21.332   1.783
16558W        W17423   1.218  21.436   0.694
16559W        W17424   2.500  18.339   0.124
16560W        W17425   0.300  21.599   1.865
16561W        W17426   2.497  19.357   3.500
16562W        W17427   0.480  18.887   3.499
16563W        W17428   0.211  19.487   0.832
16564W        W17429   0.902  19.476   0.557
16565W        W17430   2.665  19.803   3.374
16566W        W17431   1.008  20.084   2.083
16567W        W17432   2.482  18.370   1.203
16568W        W17433   1.613  21.801   1.706
16569W        W17434   2.827  21.263   2.643
16570W        W17435   2.411  21.412   1.754
16571W        W17436   2.430  20.392   1.348
16572W        W17437   1.892  18.617   0.419
16573W        W17438   3.573  18.245   1.141
16574W        W17439   1.261  19.880   0.304
16575W        W17440   3.427  19.217   1.294
16576W        W17441   2.119  20.387   0.171
16577W        W17442   3.055  20.587   2.919
16578W        W17443   2.709  21.288   0.386
16579W        W17444   1.324  18.963   3.292
16580W        W17445   1.144  19.547   2.533
16581W        W17446   3.236  21.042   2.810
16582W        W17447   2.336  18.992   3.187
16583W        W17448   0.180  19.463   2.964
16584W        W17449   1.940  19.940   2.690
16585W        W17450   0.297  20.698   1.347
16586W        W17451   0.444  19.995   2.237
16587W        W17452   2.761  20.281   2.587
16588W        W17453   2.533  21.661   3.398
16589W        W17454   2.429  19.400   2.951
16590W        W17455   2.706  21.454   1.356
16591W        W17456   1.708  21.174   2.679
16592W        W17457   1.193  21.529   1.948
16593W        W17458   2.998  20.700   2.367
16594W        W17459   2.048  20.772   3.504
16595W        W17460   0.653  20.725   1.843
16596W        W17461   2.999  20.484   1.488
16597W        W17462   2.640  21.550   2.239
16598W        W17463   0.618  21.279   2.109
16599W        W17464   1.639  19.331   3.319
16600W        W17465   2.090  21.497   0.830
16601W        W17466   1.398  20.752   3.468
16602W        W17467   1.524  20.990   0.845
16603W        W17468   0.745  19.730   0.104
16604W        W17469   0.084  21.816   7.003
16605W        W17470   0.460  20.709   6.526
16606W        W17471   3.165  20.439   4.296
16607W        W17472   3.295  21.524   6.323
16608W        W17473   1.213  21.515   3.849
16609W        W17474   1.296  19.667   4.832
16610W        W17475   0.811  19.515   4.996
16611W        W17476   1.802  20.330   4.430
16612W        W17477   1.477  21.422   6.785
16613W        W17478   0.126  18.983   6.748
16614W        W17479   0.888  18.263   6.550
16615W        W17480   2.582  18.651   5.437
16616W        W17481   2.231  19.522   4.007
16617W        W17482   2.801  18.956   7.098
16618W        W17483   0.167  18.748   6.223
16619W        W17484   0.266  21.367   7.244
16620W        W17485   1.788  20.757   3.976
16621W        W17486   0.220  19.540   5.669
16622W        W17487   1.113  19.431   6.906
16623W        W17488   3.572  19.290   5.405
16624W        W17489   3.336  20.333   6.264
16625W        W17490   1.644  19.666   5.291
16626W        W17491   2.190  21.005   5.660
16627W        W17492   0.690  20.439   5.892
16628W        W17493   0.049  19.967   5.463
16629W        W17494   1.085  19.939   6.655
16630W        W17495   3.356  19.722   6.909
16631W        W17496   0.972  21.166   5.354
16632W        W17497   2.093  20.855   6.488
16633W        W17498   1.313  19.495   5.713
16634W        W17499   1.605  20.279   5.356
16635W        W17500   2.602  21.052   7.204
16636W        W17501   1.681  20.372   7.214
16637W        W17502   1.662  20.088   6.692
16638W        W17503   0.071  19.479   7.214
16639W        W17504   2.903  21.014   6.813
16640W        W17505   0.484  18.596   4.811
16641W        W17506   1.011  20.854   5.810
16642W        W17507   3.474  20.637   5.100
16643W        W17508   2.887  19.037   5.667
16644W        W17509   3.172  18.990   3.762
16645W        W17510   3.637  19.791   6.068
16646W        W17511   1.604  21.498   5.821
16647W        W17512   3.378  20.964   4.259
16648W        W17513   0.507  21.750   4.013
16649W        W17514   0.900  21.796   4.689
16650W        W17515   0.697  18.550   6.115
16651W        W17516   3.320  19.568   6.390
16652W        W17517   2.725  19.990   4.849
16653W        W17518   2.691  19.678   3.876
16654W        W17519   1.899  20.822   6.016
16655W        W17520   1.705  19.152   5.215
16656W        W17521   2.305  21.239   6.209
16657W        W17522   3.176  20.030   4.631
16658W        W17523   2.078  18.688   4.647
16659W        W17524   0.735  21.382   4.330
16660W        W17525   0.106  18.881   4.929
16661W        W17526   2.892  19.488   5.403
16662W        W17527   0.350  21.105   5.318
16663W        W17528   1.691  21.455   4.188
16664W        W17529   3.083  19.481   3.652
16665W        W17530   0.106  21.239   5.816
16666W        W17531   0.897  20.811   6.296
16667W        W17532   1.270  20.171   4.915
16668W        W17533   1.292  18.576   6.008
16669W        W17534   3.521  18.338   5.305
16670W        W17535   0.740  20.210   3.773
16671W        W17536   0.395  19.243   3.952
16672W        W17537   0.457  21.199   4.746
16673W        W17538   1.588  20.682   4.994
16674W        W17539   2.920  21.541   6.708
16675W        W17540   1.846  19.183   4.392
16676W        W17541   3.229  21.581   5.164
16677W        W17542   2.906  19.434   6.762
16678W        W17543   3.619  21.090   4.896
16679W        W17544   2.246  20.382   6.380
16680W        W17545   0.012  19.933   4.586
16681W        W17546   1.123  20.348   6.159
16682W        W17547   2.327  19.612   4.537
16683W        W17548   2.204  20.102   4.641
16684W        W17549   0.547  19.522   6.115
16685W        W17550   0.532  19.398   7.037
16686W        W17551   0.422  18.315   5.196
16687W        W17552   2.190  18.662   5.757
16688W        W17553   1.838  18.847   6.920
16689W        W17554   2.193  18.996   4.098
16690W        W17555   3.376  21.389   6.852
16691W        W17556   2.343  18.470   6.891
16692W        W17557   3.362  20.771   7.013
16693W        W17558   2.792  18.938   6.609
16694W        W17559   2.592  18.876   4.879
16695W        W17560   2.985  20.010   7.283
16696W        W17561   0.725  21.586   5.269
16697W        W17562   1.383  19.303   4.255
16698W        W17563   0.952  18.587   6.919
16699W        W17564   3.004  19.071   4.600
16700W        W17565   3.371  19.553   4.545
16701W        W17566   1.114  21.770   7.016
16702W        W17567   1.040  18.306   4.251
16703W        W17568   3.361  18.840   5.286
16704W        W17569   3.511  21.089   3.731
16705W        W17570   0.418  20.292   5.433
16706W        W17571   2.335  18.879   3.663
16707W        W17572   3.469  21.211   5.383
16708W        W17573   3.508  18.405   6.133
16709W        W17574   1.953  19.617   6.687
16710W        W17575   2.046  20.956   4.390
16711W        W17576   2.446  20.250   7.130
16712W        W17577   2.120  18.227   5.439
16713W        W17578   0.732  19.130   5.502
16714W        W17579   0.286  20.330   6.276
16715W        W17580   2.145  21.523   4.982
16716W        W17581   3.339  19.120   5.854
16717W        W17582   1.976  21.467   6.621
16718W        W17583   3.319  20.526   3.826
16719W        W17584   1.754  20.009   4.887
16720W        W17585   3.606  18.520   6.628
16721W        W17586   1.755  20.355   6.222
16722W        W17587   1.972  19.241   5.667
16723W        W17588   2.824  19.539   4.505
16724W        W17589   3.111  19.272   4.147
16725W        W17590   2.920  21.312   4.536
16726W        W17591   2.754  20.915   5.332
16727W        W17592   2.650  19.994   4.310
16728W        W17593   2.083  20.204   5.296
16729W        W17594   2.964  19.992   5.363
16730W        W17595   0.339  19.007   5.787
16731W        W17596   3.117  20.059   6.614
16732W        W17597   3.468  21.677   5.760
16733W        W17598   1.398  21.121   5.162
16734W        W17599   2.405  21.654   6.486
16735W        W17600   2.399  18.984   6.250
16736W        W17601   1.606  21.692   6.311
16737W        W17602   3.303  18.646   4.777
16738W        W17603   3.094  19.965   6.078
16739W        W17604   0.077  19.286   6.116
16740W        W17605   2.937  19.081   5.134
16741W        W17606   3.348  19.232   6.911
16742W        W17607   2.233  20.931   5.129
16743W        W17608   1.489  21.522   4.742
16744W        W17609   0.604  18.702   4.000
16745W        W17610   1.708  18.356   5.810
16746W        W17611   0.736  21.476   3.658
16747W        W17612   1.110  19.942   4.409
16748W        W17613   1.764  20.571   6.722
16749W        W17614   1.594  18.929   4.712
16750W        W17615   2.950  18.526   5.140
16751W        W17616   2.670  21.808   5.468
16752W        W17617   2.082  21.456   5.808
16753W        W17618   1.478  20.493   5.769
16754W        W17619   3.248  21.216   5.895
16755W        W17620   0.942  18.719   4.664
16756W        W17621   1.464  21.016   5.624
16757W        W17622   0.947  18.947   3.689
16758W        W17623   1.748  19.556   6.083
16759W        W17624   2.596  18.422   5.953
16760W        W17625   0.016  20.265   5.838
16761W        W17626   1.720  20.083   3.996
16762W        W17627   0.988  18.398   3.766
16763W        W17628   1.726  19.479   4.817
16764W        W17629   2.696  18.455   6.516
16765W        W17630   1.284  20.467   6.625
16766W        W17631   2.088  20.249   6.842
16767W        W17632   2.705  20.279   6.735
16768W        W17633   1.989  18.419   7.240
16769W        W17634   1.211  19.035   5.633
16770W        W17635   0.637  18.991   5.031
16771W        W17636   0.423  21.703   4.707
16772W        W17637   1.755  21.033   6.832
16773W        W17638   0.790  20.518   4.191
16774W        W17639   2.470  19.903   5.412
16775W        W17640   2.750  19.702   5.811
16776W        W17641   1.955  20.376   5.745
16777W        W17642   2.425  20.750   3.877
16778W        W17643   2.097  18.771   5.205
16779W        W17644   3.576  19.049   4.473
16780W        W17645   0.070  21.638   6.504
16781W        W17646   0.487  20.864   6.036
16782W        W17647   0.054  21.710   4.268
16783W        W17648   1.953  18.980   6.074
16784W        W17649   1.316  21.003   3.923
16785W        W17650   3.221  21.385   4.109
16786W        W17651   2.196  20.038   4.123
16787W        W17652   1.039  19.229   4.640
16788W        W17653   1.871  19.139   3.692
16789W        W17654   2.455  20.704   6.870
16790W        W17655   2.808  18.610   4.487
16791W        W17656   0.138  18.458   3.935
16792W        W17657   1.424  20.777   6.225
16793W        W17658   1.223  20.693   5.317
16794W        W17659   0.965  20.645   3.715
16795W        W17660   0.206  20.886   4.483
16796W        W17661   0.710  19.956   6.925
16797W        W17662   1.414  18.516   7.111
16798W        W17663   2.123  18.658   6.467
16799W        W17664   1.318  18.426   4.748
16800W        W17665   2.377  18.503   4.253
16801W        W17666   0.322  18.435   5.830
16802W        W17667   0.370  19.398   5.200
16803W        W17668   3.059  18.506   5.606
16804W        W17669   0.481  19.004   4.420
16805W        W17670   3.052  18.692   6.036
16806W        W17671   3.448  19.895   3.721
16807W        W17672   0.740  18.653   5.540
16808W        W17673   1.854  19.225   6.480
16809W        W17674   0.002  18.915   3.958
16810W        W17675   0.788  20.304   6.519
16811W        W17676   2.146  19.702   5.698
16812W        W17677   2.013  21.781   3.994
16813W        W17678   0.159  20.288   3.691
16814W        W17679   0.894  20.699   6.817
16815W        W17680   0.415  19.866   6.448
16816W        W17681   1.406  19.971   6.242
16817W        W17682   3.174  18.330   6.504
16818W        W17683   3.572  19.940   6.495
16819W        W17684   3.560  20.140   4.181
16820W        W17685   2.423  20.472   4.280
16821W        W17686   2.897  21.772   3.975
16822W        W17687   2.074  19.762   7.117
16823W        W17688   0.404  20.729   7.157
16824W        W17689   3.610  18.651   7.109
16825W        W17690   3.328  19.579   5.730
16826W        W17691   1.636  21.709   7.207
16827W        W17692   1.491  18.338   3.934
16828W        W17693   3.030  20.937   3.877
16829W        W17694   0.799  19.030   6.763
16830W        W17695   1.233  21.024   6.625
16831W        W17696   3.359  19.015   6.423
16832W        W17697   2.570  21.674   4.391
16833W        W17698   2.809  20.293   5.758
16834W        W17699   1.059  18.709   6.425
16835W        W17700   1.528  19.778   7.182
16836W        W17701   1.031  20.957   4.376
16837W        W17702   2.786  20.455   4.640
16838W        W17703   0.554  19.081   6.364
16839W        W17704   1.883  21.143   4.828
16840W        W17705   3.633  19.703   5.009
16841W        W17706   1.855  18.336   6.728
16842W        W17707   2.635  21.041   5.807
16843W        W17708   2.938  21.385   5.515
16844W        W17709   2.157  21.187   3.943
16845W        W17710   0.167  21.079   6.785
16846W        W17711   0.910  19.071   6.023
16847W        W17712   0.880  18.419   5.133
16848W        W17713   2.501  19.261   5.825
16849W        W17714   1.299  20.432   4.025
16850W        W17715   3.297  20.374   5.524
16851W        W17716   0.624  21.132   6.947
16852W        W17717   3.011  21.814   4.744
16853W        W17718   1.110  18.834   5.189
16854W        W17719   0.879  20.327   5.279
16855W        W17720   1.192  21.738   6.029
16856W        W17721   3.259  21.834   7.061
16857W        W17722   2.418  20.022   5.994
16858W        W17723   0.267  19.820   3.909
16859W        W17724   3.401  21.478   4.606
16860W        W17725   3.238  18.802   4.225
16861W        W17726   1.377  18.321   6.628
16862W        W17727   3.083  21.123   5.086
16863W        W17728   3.112  19.679   4.991
16864W        W17729   1.229  19.352   5.207
16865W        W17730   1.474  19.614   6.531
16866W        W17731   2.585  20.767   6.394
16867W        W17732   1.235  19.221   6.506
16868W        W17733   1.214  21.687   5.122
16869W        W17734   0.531  21.646   6.756
16870W        W17735   0.643  21.007   3.886
16871W        W17736   3.160  20.765   4.696
16872W        W17737   0.764  19.557   6.582
16873W        W17738   3.537  19.487   4.063
16874W        W17739   1.282  20.544   4.534
16875W        W17740   2.381  19.926   6.615
16876W        W17741   2.272  19.554   6.159
16877W        W17742   0.832  19.926   6.188
16878W        W17743   3.042  21.814   6.017
16879W        W17744   2.833  18.448   7.011
16880W        W17745   0.497  18.598   6.598
16881W        W17746   0.836  19.621   5.651
16882W        W17747   1.205  19.435   3.773
16883W        W17748   0.008  21.194   6.318
16884W        W17749   1.593  19.903   5.761
16885W        W17750   1.416  18.928   3.866
16886W        W17751   0.551  19.744   4.647
16887W        W17752   0.322  21.596   6.084
16888W        W17753   3.117  19.822   4.192
16889W        W17754   3.212  18.738   6.878
16890W        W17755   2.648  20.947   4.841
16891W        W17756   0.246  19.871   7.018
16892W        W17757   3.212  18.335   4.314
16893W        W17758   2.732  20.810   4.325
16894W        W17759   1.634  19.868   4.410
16895W        W17760   2.821  18.672   3.933
16896W        W17761   2.886  19.279   6.119
16897W        W17762   0.595  19.872   5.326
16898W        W17763   0.889  20.811   4.975
16899W        W17764   2.652  19.431   4.940
16900W        W17765   1.675  18.810   5.636
16901W        W17766   3.637  20.721   6.147
16902W        W17767   3.555  18.708   5.708
16903W        W17768   0.094  21.538   5.084
16904W        W17769   0.603  20.725   4.620
16905W        W17770   0.518  18.342   7.173
16906W        W17771   1.637  21.195   7.275
16907W        W17772   3.392  20.163   5.065
16908W        W17773   2.746  20.340   3.945
16909W        W17774   2.041  21.861   6.157
16910W        W17775   2.898  20.583   7.194
16911W        W17776   1.713  18.293   4.474
16912W        W17777   2.426  19.162   5.333
16913W        W17778   0.112  20.749   5.665
16914W        W17779   1.365  18.711   4.306
16915W        W17780   1.169  20.195   7.155
16916W        W17781   2.163  19.176   4.869
16917W        W17782   2.368  20.586   5.991
16918W        W17783   0.522  21.191   6.426
16919W        W17784   1.113  21.174   7.149
16920W        W17785   0.964  18.971   4.163
16921W        W17786   2.481  19.113   4.488
16922W        W17787   2.439  21.221   6.725
16923W        W17788   1.124  19.813   5.324
16924W        W17789   0.779  21.511   6.189
16925W        W17790   3.524  21.628   3.790
16926W        W17791   0.387  20.300   6.786
16927W        W17792   2.382  20.562   5.474
16928W        W17793   0.818  20.211   4.716
16929W        W17794   1.189  21.218   6.111
16930W        W17795   1.567  18.637   5.152
16931W        W17796   0.178  20.621   4.082
16932W        W17797   1.697  19.572   3.952
16933W        W17798   0.343  20.121   4.971
16934W        W17799   1.633  18.763   6.435
16935W        W17800   3.305  18.472   3.862
16936W        W17801   3.398  20.218   6.961
16937W        W17802   2.052  21.475   7.113
16938W        W17803   3.610  20.569   6.635
16939W        W17804   3.018  21.367   7.246
16940W        W17805   0.757  21.823   5.724
16941W        W17806   3.616  20.445   4.598
16942W        W17807   2.146  19.712   5.111
16943W        W17808   1.913  18.324   5.001
16944W        W17809   0.972  21.308   4.838
16945W        W17810   1.471  19.049   6.063
16946W        W17811   1.171  18.418   5.532
16947W        W17812   0.234  21.240   4.080
16948W        W17813   2.050  20.604   4.798
16949W        W17814   0.925  21.399   6.677
16950W        W17815   0.402  20.222   4.373
16951W        W17816   0.287  18.765   5.372
16952W        W17817   1.835  20.730   5.429
16953W        W17818   0.087  18.584   4.449
16954W        W17819   2.751  19.790   6.376
16955W        W17820   2.628  19.176   3.948
16956W        W17821   3.145  20.848   5.596
16957W        W17822   1.806  21.332   5.427
16958W        W17823   1.218  21.436   4.338
16959W        W17824   2.500  18.339   3.768
16960W        W17825   0.300  21.599   5.509
16961W        W17826   2.497  19.357   7.144
16962W        W17827   0.480  18.887   7.143
16963W        W17828   0.211  19.487   4.476
16964W        W17829   0.902  19.476   4.201
16965W        W17830   2.665  19.803   7.018
16966W        W17831   1.008  20.084   5.727
16967W        W17832   2.482  18.370   4.847
16968W        W17833   1.613  21.801   5.350
16969W        W17834   2.827  21.263   6.287
16970W        W17835   2.411  21.412   5.398
16971W        W17836   2.430  20.392   4.992
16972W        W17837   1.892  18.617   4.063
16973W        W17838   3.573  18.245   4.785
16974W        W17839   1.261  19.880   3.948
16975W        W17840   3.427  19.217   4.938
16976W        W17841   2.119  20.387   3.815
16977W        W17842   3.055  20.587   6.563
16978W        W17843   2.709  21.288   4.030
16979W        W17844   1.324  18.963   6.936
16980W        W17845   1.144  19.547   6.177
16981W        W17846   3.236  21.042   6.454
16982W        W17847   2.336  18.992   6.831
16983W        W17848   0.180  19.463   6.608
16984W        W17849   1.940  19.940   6.334
16985W        W17850   0.297  20.698   4.991
16986W        W17851   0.444  19.995   5.881
16987W        W17852   2.761  20.281   6.231
16988W        W17853   2.533  21.661   7.042
16989W        W17854   2.429  19.400   6.595
16990W        W17855   2.706  21.454   5.000
16991W        W17856   1.708  21.174   6.323
16992W        W17857   1.193  21.529   5.592
16993W        W17858   2.998  20.700   6.011
16994W        W17859   2.048  20.772   7.148
16995W        W17860   0.653  20.725   5.487
16996W        W17861   2.999  20.484   5.132
16997W        W17862   2.640  21.550   5.883
16998W        W17863   0.618  21.279   5.753
16999W        W17864   1.639  19.331   6.963
17000W        W17865   2.090  21.497   4.474
17001W        W17866   1.398  20.752   7.112
17002W        W17867   1.524  20.990   4.489
17003W        W17868   0.745  19.730   3.748
17004W        W17869   0.084  21.816  10.648
17005W        W17870   0.460  20.709  10.171
17006W        W17871   3.165  20.439   7.941
17007W        W17872   3.295  21.524   9.968
17008W        W17873   1.213  21.515   7.494
17009W        W17874   1.296  19.667   8.477
17010W        W17875   0.811  19.515   8.641
17011W        W17876   1.802  20.330   8.075
17012W        W17877   1.477  21.422  10.430
17013W        W17878   0.126  18.983  10.393
17014W        W17879   0.888  18.263  10.195
17015W        W17880   2.582  18.651   9.082
17016W        W17881   2.231  19.522   7.652
17017W        W17882   2.801  18.956  10.743
17018W        W17883   0.167  18.748   9.868
17019W        W17884   0.266  21.367  10.889
17020W        W17885   1.788  20.757   7.621
17021W        W17886   0.220  19.540   9.314
17022W        W17887   1.113  19.431  10.551
17023W        W17888   3.572  19.290   9.050
17024W        W17889   3.336  20.333   9.909
17025W        W17890   1.644  19.666   8.936
17026W        W17891   2.190  21.005   9.305
17027W        W17892   0.690  20.439   9.537
17028W        W17893   0.049  19.967   9.108
17029W        W17894   1.085  19.939  10.300
17030W        W17895   3.356  19.722  10.554
17031W        W17896   0.972  21.166   8.999
17032W        W17897   2.093  20.855  10.133
17033W        W17898   1.313  19.495   9.358
17034W        W17899   1.605  20.279   9.001
17035W        W17900   2.602  21.052  10.849
17036W        W17901   1.681  20.372  10.859
17037W        W17902   1.662  20.088  10.337
17038W        W17903   0.071  19.479  10.859
17039W        W17904   2.903  21.014  10.458
17040W        W17905   0.484  18.596   8.456
17041W        W17906   1.011  20.854   9.455
17042W        W17907   3.474  20.637   8.745
17043W        W17908   2.887  19.037   9.312
17044W        W17909   3.172  18.990   7.407
17045W        W17910   3.637  19.791   9.713
17046W        W17911   1.604  21.498   9.466
17047W        W17912   3.378  20.964   7.904
17048W        W17913   0.507  21.750   7.658
17049W        W17914   0.900  21.796   8.334
17050W        W17915   0.697  18.550   9.760
17051W        W17916   3.320  19.568  10.035
17052W        W17917   2.725  19.990   8.494
17053W        W17918   2.691  19.678   7.521
17054W        W17919   1.899  20.822   9.661
17055W        W17920   1.705  19.152   8.860
17056W        W17921   2.305  21.239   9.854
17057W        W17922   3.176  20.030   8.276
17058W        W17923   2.078  18.688   8.292
17059W        W17924   0.735  21.382   7.975
17060W        W17925   0.106  18.881   8.574
17061W        W17926   2.892  19.488   9.048
17062W        W17927   0.350  21.105   8.963
17063W        W17928   1.691  21.455   7.833
17064W        W17929   3.083  19.481   7.297
17065W        W17930   0.106  21.239   9.461
17066W        W17931   0.897  20.811   9.941
17067W        W17932   1.270  20.171   8.560
17068W        W17933   1.292  18.576   9.653
17069W        W17934   3.521  18.338   8.950
17070W        W17935   0.740  20.210   7.418
17071W        W17936   0.395  19.243   7.597
17072W        W17937   0.457  21.199   8.391
17073W        W17938   1.588  20.682   8.639
17074W        W17939   2.920  21.541  10.353
17075W        W17940   1.846  19.183   8.037
17076W        W17941   3.229  21.581   8.809
17077W        W17942   2.906  19.434  10.407
17078W        W17943   3.619  21.090   8.541
17079W        W17944   2.246  20.382  10.025
17080W        W17945   0.012  19.933   8.231
17081W        W17946   1.123  20.348   9.804
17082W        W17947   2.327  19.612   8.182
17083W        W17948   2.204  20.102   8.286
17084W        W17949   0.547  19.522   9.760
17085W        W17950   0.532  19.398  10.682
17086W        W17951   0.422  18.315   8.841
17087W        W17952   2.190  18.662   9.402
17088W        W17953   1.838  18.847  10.565
17089W        W17954   2.193  18.996   7.743
17090W        W17955   3.376  21.389  10.497
17091W        W17956   2.343  18.470  10.536
17092W        W17957   3.362  20.771  10.658
17093W        W17958   2.792  18.938  10.254
17094W        W17959   2.592  18.876   8.524
17095W        W17960   2.985  20.010  10.928
17096W        W17961   0.725  21.586   8.914
17097W        W17962   1.383  19.303   7.900
17098W        W17963   0.952  18.587  10.564
17099W        W17964   3.004  19.071   8.245
17100W        W17965   3.371  19.553   8.190
17101W        W17966   1.114  21.770  10.661
17102W        W17967   1.040  18.306   7.896
17103W        W17968   3.361  18.840   8.931
17104W        W17969   3.511  21.089   7.376
17105W        W17970   0.418  20.292   9.078
17106W        W17971   2.335  18.879   7.308
17107W        W17972   3.469  21.211   9.028
17108W        W17973   3.508  18.405   9.778
17109W        W17974   1.953  19.617  10.332
17110W        W17975   2.046  20.956   8.035
17111W        W17976   2.446  20.250  10.775
17112W        W17977   2.120  18.227   9.084
17113W        W17978   0.732  19.130   9.147
17114W        W17979   0.286  20.330   9.921
17115W        W17980   2.145  21.523   8.627
17116W        W17981   3.339  19.120   9.499
17117W        W17982   1.976  21.467  10.266
17118W        W17983   3.319  20.526   7.471
17119W        W17984   1.754  20.009   8.532
17120W        W17985   3.606  18.520  10.273
17121W        W17986   1.755  20.355   9.867
17122W        W17987   1.972  19.241   9.312
17123W        W17988   2.824  19.539   8.150
17124W        W17989   3.111  19.272   7.792
17125W        W17990   2.920  21.312   8.181
17126W        W17991   2.754  20.915   8.977
17127W        W17992   2.650  19.994   7.955
17128W        W17993   2.083  20.204   8.941
17129W        W17994   2.964  19.992   9.008
17130W        W17995   0.339  19.007   9.432
17131W        W17996   3.117  20.059  10.259
17132W        W17997   3.468  21.677   9.405
17133W        W17998   1.398  21.121   8.807
17134W        W17999   2.405  21.654  10.131
17135W        W18000   2.399  18.984   9.895
17136W        W18001   1.606  21.692   9.956
17137W        W18002   3.303  18.646   8.422
17138W        W18003   3.094  19.965   9.723
17139W        W18004   0.077  19.286   9.761
17140W        W18005   2.937  19.081   8.779
17141W        W18006   3.348  19.232  10.556
17142W        W18007   2.233  20.931   8.774
17143W        W18008   1.489  21.522   8.387
17144W        W18009   0.604  18.702   7.645
17145W        W18010   1.708  18.356   9.455
17146W        W18011   0.736  21.476   7.303
17147W        W18012   1.110  19.942   8.054
17148W        W18013   1.764  20.571  10.367
17149W        W18014   1.594  18.929   8.357
17150W        W18015   2.950  18.526   8.785
17151W        W18016   2.670  21.808   9.113
17152W        W18017   2.082  21.456   9.453
17153W        W18018   1.478  20.493   9.414
17154W        W18019   3.248  21.216   9.540
17155W        W18020   0.942  18.719   8.309
17156W        W18021   1.464  21.016   9.269
17157W        W18022   0.947  18.947   7.334
17158W        W18023   1.748  19.556   9.728
17159W        W18024   2.596  18.422   9.598
17160W        W18025   0.016  20.265   9.483
17161W        W18026   1.720  20.083   7.641
17162W        W18027   0.988  18.398   7.411
17163W        W18028   1.726  19.479   8.462
17164W        W18029   2.696  18.455  10.161
17165W        W18030   1.284  20.467  10.270
17166W        W18031   2.088  20.249  10.487
17167W        W18032   2.705  20.279  10.380
17168W        W18033   1.989  18.419  10.885
17169W        W18034   1.211  19.035   9.278
17170W        W18035   0.637  18.991   8.676
17171W        W18036   0.423  21.703   8.352
17172W        W18037   1.755  21.033  10.477
17173W        W18038   0.790  20.518   7.836
17174W        W18039   2.470  19.903   9.057
17175W        W18040   2.750  19.702   9.456
17176W        W18041   1.955  20.376   9.390
17177W        W18042   2.425  20.750   7.522
17178W        W18043   2.097  18.771   8.850
17179W        W18044   3.576  19.049   8.118
17180W        W18045   0.070  21.638  10.149
17181W        W18046   0.487  20.864   9.681
17182W        W18047   0.054  21.710   7.913
17183W        W18048   1.953  18.980   9.719
17184W        W18049   1.316  21.003   7.568
17185W        W18050   3.221  21.385   7.754
17186W        W18051   2.196  20.038   7.768
17187W        W18052   1.039  19.229   8.285
17188W        W18053   1.871  19.139   7.337
17189W        W18054   2.455  20.704  10.515
17190W        W18055   2.808  18.610   8.132
17191W        W18056   0.138  18.458   7.580
17192W        W18057   1.424  20.777   9.870
17193W        W18058   1.223  20.693   8.962
17194W        W18059   0.965  20.645   7.360
17195W        W18060   0.206  20.886   8.128
17196W        W18061   0.710  19.956  10.570
17197W        W18062   1.414  18.516  10.756
17198W        W18063   2.123  18.658  10.112
17199W        W18064   1.318  18.426   8.393
17200W        W18065   2.377  18.503   7.898
17201W        W18066   0.322  18.435   9.475
17202W        W18067   0.370  19.398   8.845
17203W        W18068   3.059  18.506   9.251
17204W        W18069   0.481  19.004   8.065
17205W        W18070   3.052  18.692   9.681
17206W        W18071   3.448  19.895   7.366
17207W        W18072   0.740  18.653   9.185
17208W        W18073   1.854  19.225  10.125
17209W        W18074   0.002  18.915   7.603
17210W        W18075   0.788  20.304  10.164
17211W        W18076   2.146  19.702   9.343
17212W        W18077   2.013  21.781   7.639
17213W        W18078   0.159  20.288   7.336
17214W        W18079   0.894  20.699  10.462
17215W        W18080   0.415  19.866  10.093
17216W        W18081   1.406  19.971   9.887
17217W        W18082   3.174  18.330  10.149
17218W        W18083   3.572  19.940  10.140
17219W        W18084   3.560  20.140   7.826
17220W        W18085   2.423  20.472   7.925
17221W        W18086   2.897  21.772   7.620
17222W        W18087   2.074  19.762  10.762
17223W        W18088   0.404  20.729  10.802
17224W        W18089   3.610  18.651  10.754
17225W        W18090   3.328  19.579   9.375
17226W        W18091   1.636  21.709  10.852
17227W        W18092   1.491  18.338   7.579
17228W        W18093   3.030  20.937   7.522
17229W        W18094   0.799  19.030  10.408
17230W        W18095   1.233  21.024  10.270
17231W        W18096   3.359  19.015  10.068
17232W        W18097   2.570  21.674   8.036
17233W        W18098   2.809  20.293   9.403
17234W        W18099   1.059  18.709  10.070
17235W        W18100   1.528  19.778  10.827
17236W        W18101   1.031  20.957   8.021
17237W        W18102   2.786  20.455   8.285
17238W        W18103   0.554  19.081  10.009
17239W        W18104   1.883  21.143   8.473
17240W        W18105   3.633  19.703   8.654
17241W        W18106   1.855  18.336  10.373
17242W        W18107   2.635  21.041   9.452
17243W        W18108   2.938  21.385   9.160
17244W        W18109   2.157  21.187   7.588
17245W        W18110   0.167  21.079  10.430
17246W        W18111   0.910  19.071   9.668
17247W        W18112   0.880  18.419   8.778
17248W        W18113   2.501  19.261   9.470
17249W        W18114   1.299  20.432   7.670
17250W        W18115   3.297  20.374   9.169
17251W        W18116   0.624  21.132  10.592
17252W        W18117   3.011  21.814   8.389
17253W        W18118   1.110  18.834   8.834
17254W        W18119   0.879  20.327   8.924
17255W        W18120   1.192  21.738   9.674
17256W        W18121   3.259  21.834  10.706
17257W        W18122   2.418  20.022   9.639
17258W        W18123   0.267  19.820   7.554
17259W        W18124   3.401  21.478   8.251
17260W        W18125   3.238  18.802   7.870
17261W        W18126   1.377  18.321  10.273
17262W        W18127   3.083  21.123   8.731
17263W        W18128   3.112  19.679   8.636
17264W        W18129   1.229  19.352   8.852
17265W        W18130   1.474  19.614  10.176
17266W        W18131   2.585  20.767  10.039
17267W        W18132   1.235  19.221  10.151
17268W        W18133   1.214  21.687   8.767
17269W        W18134   0.531  21.646  10.401
17270W        W18135   0.643  21.007   7.531
17271W        W18136   3.160  20.765   8.341
17272W        W18137   0.764  19.557  10.227
17273W        W18138   3.537  19.487   7.708
17274W        W18139   1.282  20.544   8.179
17275W        W18140   2.381  19.926  10.260
17276W        W18141   2.272  19.554   9.804
17277W        W18142   0.832  19.926   9.833
17278W        W18143   3.042  21.814   9.662
17279W        W18144   2.833  18.448  10.656
17280W        W18145   0.497  18.598  10.243
17281W        W18146   0.836  19.621   9.296
17282W        W18147   1.205  19.435   7.418
17283W        W18148   0.008  21.194   9.963
17284W        W18149   1.593  19.903   9.406
17285W        W18150   1.416  18.928   7.511
17286W        W18151   0.551  19.744   8.292
17287W        W18152   0.322  21.596   9.729
17288W        W18153   3.117  19.822   7.837
17289W        W18154   3.212  18.738  10.523
17290W        W18155   2.648  20.947   8.486
17291W        W18156   0.246  19.871  10.663
17292W        W18157   3.212  18.335   7.959
17293W        W18158   2.732  20.810   7.970
17294W        W18159   1.634  19.868   8.055
17295W        W18160   2.821  18.672   7.578
17296W        W18161   2.886  19.279   9.764
17297W        W18162   0.595  19.872   8.971
17298W        W18163   0.889  20.811   8.620
17299W        W18164   2.652  19.431   8.585
17300W        W18165   1.675  18.810   9.281
17301W        W18166   3.637  20.721   9.792
17302W        W18167   3.555  18.708   9.353
17303W        W18168   0.094  21.538   8.729
17304W        W18169   0.603  20.725   8.265
17305W        W18170   0.518  18.342  10.818
17306W        W18171   1.637  21.195  10.920
17307W        W18172   3.392  20.163   8.710
17308W        W18173   2.746  20.340   7.590
17309W        W18174   2.041  21.861   9.802
17310W        W18175   2.898  20.583  10.839
17311W        W18176   1.713  18.293   8.119
17312W        W18177   2.426  19.162   8.978
17313W        W18178   0.112  20.749   9.310
17314W        W18179   1.365  18.711   7.951
17315W        W18180   1.169  20.195  10.800
17316W        W18181   2.163  19.176   8.514
17317W        W18182   2.368  20.586   9.636
17318W        W18183   0.522  21.191  10.071
17319W        W18184   1.113  21.174  10.794
17320W        W18185   0.964  18.971   7.808
17321W        W18186   2.481  19.113   8.133
17322W        W18187   2.439  21.221  10.370
17323W        W18188   1.124  19.813   8.969
17324W        W18189   0.779  21.511   9.834
17325W        W18190   3.524  21.628   7.435
17326W        W18191   0.387  20.300  10.431
17327W        W18192   2.382  20.562   9.119
17328W        W18193   0.818  20.211   8.361
17329W        W18194   1.189  21.218   9.756
17330W        W18195   1.567  18.637   8.797
17331W        W18196   0.178  20.621   7.727
17332W        W18197   1.697  19.572   7.597
17333W        W18198   0.343  20.121   8.616
17334W        W18199   1.633  18.763  10.080
17335W        W18200   3.305  18.472   7.507
17336W        W18201   3.398  20.218  10.606
17337W        W18202   2.052  21.475  10.758
17338W        W18203   3.610  20.569  10.280
17339W        W18204   3.018  21.367  10.891
17340W        W18205   0.757  21.823   9.369
17341W        W18206   3.616  20.445   8.243
17342W        W18207   2.146  19.712   8.756
17343W        W18208   1.913  18.324   8.646
17344W        W18209   0.972  21.308   8.483
17345W        W18210   1.471  19.049   9.708
17346W        W18211   1.171  18.418   9.177
17347W        W18212   0.234  21.240   7.725
17348W        W18213   2.050  20.604   8.443
17349W        W18214   0.925  21.399  10.322
17350W        W18215   0.402  20.222   8.018
17351W        W18216   0.287  18.765   9.017
17352W        W18217   1.835  20.730   9.074
17353W        W18218   0.087  18.584   8.094
17354W        W18219   2.751  19.790  10.021
17355W        W18220   2.628  19.176   7.593
17356W        W18221   3.145  20.848   9.241
17357W        W18222   1.806  21.332   9.072
17358W        W18223   1.218  21.436   7.983
17359W        W18224   2.500  18.339   7.413
17360W        W18225   0.300  21.599   9.154
17361W        W18226   2.497  19.357  10.789
17362W        W18227   0.480  18.887  10.788
17363W        W18228   0.211  19.487   8.121
17364W        W18229   0.902  19.476   7.846
17365W        W18230   2.665  19.803  10.663
17366W        W18231   1.008  20.084   9.372
17367W        W18232   2.482  18.370   8.492
17368W        W18233   1.613  21.801   8.995
17369W        W18234   2.827  21.263   9.932
17370W        W18235   2.411  21.412   9.043
17371W        W18236   2.430  20.392   8.637
17372W        W18237   1.892  18.617   7.708
17373W        W18238   3.573  18.245   8.430
17374W        W18239   1.261  19.880   7.593
17375W        W18240   3.427  19.217   8.583
17376W        W18241   2.119  20.387   7.460
17377W        W18242   3.055  20.587  10.208
17378W        W18243   2.709  21.288   7.675
17379W        W18244   1.324  18.963  10.581
17380W        W18245   1.144  19.547   9.822
17381W        W18246   3.236  21.042  10.099
17382W        W18247   2.336  18.992  10.476
17383W        W18248   0.180  19.463  10.253
17384W        W18249   1.940  19.940   9.979
17385W        W18250   0.297  20.698   8.636
17386W        W18251   0.444  19.995   9.526
17387W        W18252   2.761  20.281   9.876
17388W        W18253   2.533  21.661  10.687
17389W        W18254   2.429  19.400  10.240
17390W        W18255   2.706  21.454   8.645
17391W        W18256   1.708  21.174   9.968
17392W        W18257   1.193  21.529   9.237
17393W        W18258   2.998  20.700   9.656
17394W        W18259   2.048  20.772  10.793
17395W        W18260   0.653  20.725   9.132
17396W        W18261   2.999  20.484   8.777
17397W        W18262   2.640  21.550   9.528
17398W        W18263   0.618  21.279   9.398
17399W        W18264   1.639  19.331  10.608
17400W        W18265   2.090  21.497   8.119
17401W        W18266   1.398  20.752  10.757
17402W        W18267   1.524  20.990   8.134
17403W        W18268   0.745  19.730   7.393
17404W        W18269   0.084  21.816  14.292
17405W        W18270   0.460  20.709  13.815
17406W        W18271   3.165  20.439  11.585
17407W        W18272   3.295  21.524  13.612
17408W        W18273   1.213  21.515  11.138
17409W        W18274   1.296  19.667  12.121
17410W        W18275   0.811  19.515  12.285
17411W        W18276   1.802  20.330  11.719
17412W        W18277   1.477  21.422  14.074
17413W        W18278   0.126  18.983  14.037
17414W        W18279   0.888  18.263  13.839
17415W        W18280   2.582  18.651  12.726
17416W        W18281   2.231  19.522  11.296
17417W        W18282   2.801  18.956  14.387
17418W        W18283   0.167  18.748  13.512
17419W        W18284   0.266  21.367  14.533
17420W        W18285   1.788  20.757  11.265
17421W        W18286   0.220  19.540  12.958
17422W        W18287   1.113  19.431  14.195
17423W        W18288   3.572  19.290  12.694
17424W        W18289   3.336  20.333  13.553
17425W        W18290   1.644  19.666  12.580
17426W        W18291   2.190  21.005  12.949
17427W        W18292   0.690  20.439  13.181
17428W        W18293   0.049  19.967  12.752
17429W        W18294   1.085  19.939  13.944
17430W        W18295   3.356  19.722  14.198
17431W        W18296   0.972  21.166  12.643
17432W        W18297   2.093  20.855  13.777
17433W        W18298   1.313  19.495  13.002
17434W        W18299   1.605  20.279  12.645
17435W        W18300   2.602  21.052  14.493
17436W        W18301   1.681  20.372  14.503
17437W        W18302   1.662  20.088  13.981
17438W        W18303   0.071  19.479  14.503
17439W        W18304   2.903  21.014  14.102
17440W        W18305   0.484  18.596  12.100
17441W        W18306   1.011  20.854  13.099
17442W        W18307   3.474  20.637  12.389
17443W        W18308   2.887  19.037  12.956
17444W        W18309   3.172  18.990  11.051
17445W        W18310   3.637  19.791  13.357
17446W        W18311   1.604  21.498  13.110
17447W        W18312   3.378  20.964  11.548
17448W        W18313   0.507  21.750  11.302
17449W        W18314   0.900  21.796  11.978
17450W        W18315   0.697  18.550  13.404
17451W        W18316   3.320  19.568  13.679
17452W        W18317   2.725  19.990  12.138
17453W        W18318   2.691  19.678  11.165
17454W        W18319   1.899  20.822  13.305
17455W        W18320   1.705  19.152  12.504
17456W        W18321   2.305  21.239  13.498
17457W        W18322   3.176  20.030  11.920
17458W        W18323   2.078  18.688  11.936
17459W        W18324   0.735  21.382  11.619
17460W        W18325   0.106  18.881  12.218
17461W        W18326   2.892  19.488  12.692
17462W        W18327   0.350  21.105  12.607
17463W        W18328   1.691  21.455  11.477
17464W        W18329   3.083  19.481  10.941
17465W        W18330   0.106  21.239  13.105
17466W        W18331   0.897  20.811  13.585
17467W        W18332   1.270  20.171  12.204
17468W        W18333   1.292  18.576  13.297
17469W        W18334   3.521  18.338  12.594
17470W        W18335   0.740  20.210  11.062
17471W        W18336   0.395  19.243  11.241
17472W        W18337   0.457  21.199  12.035
17473W        W18338   1.588  20.682  12.283
17474W        W18339   2.920  21.541  13.997
17475W        W18340   1.846  19.183  11.681
17476W        W18341   3.229  21.581  12.453
17477W        W18342   2.906  19.434  14.051
17478W        W18343   3.619  21.090  12.185
17479W        W18344   2.246  20.382  13.669
17480W        W18345   0.012  19.933  11.875
17481W        W18346   1.123  20.348  13.448
17482W        W18347   2.327  19.612  11.826
17483W        W18348   2.204  20.102  11.930
17484W        W18349   0.547  19.522  13.404
17485W        W18350   0.532  19.398  14.326
17486W        W18351   0.422  18.315  12.485
17487W        W18352   2.190  18.662  13.046
17488W        W18353   1.838  18.847  14.209
17489W        W18354   2.193  18.996  11.387
17490W        W18355   3.376  21.389  14.141
17491W        W18356   2.343  18.470  14.180
17492W        W18357   3.362  20.771  14.302
17493W        W18358   2.792  18.938  13.898
17494W        W18359   2.592  18.876  12.168
17495W        W18360   2.985  20.010  14.572
17496W        W18361   0.725  21.586  12.558
17497W        W18362   1.383  19.303  11.544
17498W        W18363   0.952  18.587  14.208
17499W        W18364   3.004  19.071  11.889
17500W        W18365   3.371  19.553  11.834
17501W        W18366   1.114  21.770  14.305
17502W        W18367   1.040  18.306  11.540
17503W        W18368   3.361  18.840  12.575
17504W        W18369   3.511  21.089  11.020
17505W        W18370   0.418  20.292  12.722
17506W        W18371   2.335  18.879  10.952
17507W        W18372   3.469  21.211  12.672
17508W        W18373   3.508  18.405  13.422
17509W        W18374   1.953  19.617  13.976
17510W        W18375   2.046  20.956  11.679
17511W        W18376   2.446  20.250  14.419
17512W        W18377   2.120  18.227  12.728
17513W        W18378   0.732  19.130  12.791
17514W        W18379   0.286  20.330  13.565
17515W        W18380   2.145  21.523  12.271
17516W        W18381   3.339  19.120  13.143
17517W        W18382   1.976  21.467  13.910
17518W        W18383   3.319  20.526  11.115
17519W        W18384   1.754  20.009  12.176
17520W        W18385   3.606  18.520  13.917
17521W        W18386   1.755  20.355  13.511
17522W        W18387   1.972  19.241  12.956
17523W        W18388   2.824  19.539  11.794
17524W        W18389   3.111  19.272  11.436
17525W        W18390   2.920  21.312  11.825
17526W        W18391   2.754  20.915  12.621
17527W        W18392   2.650  19.994  11.599
17528W        W18393   2.083  20.204  12.585
17529W        W18394   2.964  19.992  12.652
17530W        W18395   0.339  19.007  13.076
17531W        W18396   3.117  20.059  13.903
17532W        W18397   3.468  21.677  13.049
17533W        W18398   1.398  21.121  12.451
17534W        W18399   2.405  21.654  13.775
17535W        W18400   2.399  18.984  13.539
17536W        W18401   1.606  21.692  13.600
17537W        W18402   3.303  18.646  12.066
17538W        W18403   3.094  19.965  13.367
17539W        W18404   0.077  19.286  13.405
17540W        W18405   2.937  19.081  12.423
17541W        W18406   3.348  19.232  14.200
17542W        W18407   2.233  20.931  12.418
17543W        W18408   1.489  21.522  12.031
17544W        W18409   0.604  18.702  11.289
17545W        W18410   1.708  18.356  13.099
17546W        W18411   0.736  21.476  10.947
17547W        W18412   1.110  19.942  11.698
17548W        W18413   1.764  20.571  14.011
17549W        W18414   1.594  18.929  12.001
17550W        W18415   2.950  18.526  12.429
17551W        W18416   2.670  21.808  12.757
17552W        W18417   2.082  21.456  13.097
17553W        W18418   1.478  20.493  13.058
17554W        W18419   3.248  21.216  13.184
17555W        W18420   0.942  18.719  11.953
17556W        W18421   1.464  21.016  12.913
17557W        W18422   0.947  18.947  10.978
17558W        W18423   1.748  19.556  13.372
17559W        W18424   2.596  18.422  13.242
17560W        W18425   0.016  20.265  13.127
17561W        W18426   1.720  20.083  11.285
17562W        W18427   0.988  18.398  11.055
17563W        W18428   1.726  19.479  12.106
17564W        W18429   2.696  18.455  13.805
17565W        W18430   1.284  20.467  13.914
17566W        W18431   2.088  20.249  14.131
17567W        W18432   2.705  20.279  14.024
17568W        W18433   1.989  18.419  14.529
17569W        W18434   1.211  19.035  12.922
17570W        W18435   0.637  18.991  12.320
17571W        W18436   0.423  21.703  11.996
17572W        W18437   1.755  21.033  14.121
17573W        W18438   0.790  20.518  11.480
17574W        W18439   2.470  19.903  12.701
17575W        W18440   2.750  19.702  13.100
17576W        W18441   1.955  20.376  13.034
17577W        W18442   2.425  20.750  11.166
17578W        W18443   2.097  18.771  12.494
17579W        W18444   3.576  19.049  11.762
17580W        W18445   0.070  21.638  13.793
17581W        W18446   0.487  20.864  13.325
17582W        W18447   0.054  21.710  11.557
17583W        W18448   1.953  18.980  13.363
17584W        W18449   1.316  21.003  11.212
17585W        W18450   3.221  21.385  11.398
17586W        W18451   2.196  20.038  11.412
17587W        W18452   1.039  19.229  11.929
17588W        W18453   1.871  19.139  10.981
17589W        W18454   2.455  20.704  14.159
17590W        W18455   2.808  18.610  11.776
17591W        W18456   0.138  18.458  11.224
17592W        W18457   1.424  20.777  13.514
17593W        W18458   1.223  20.693  12.606
17594W        W18459   0.965  20.645  11.004
17595W        W18460   0.206  20.886  11.772
17596W        W18461   0.710  19.956  14.214
17597W        W18462   1.414  18.516  14.400
17598W        W18463   2.123  18.658  13.756
17599W        W18464   1.318  18.426  12.037
17600W        W18465   2.377  18.503  11.542
17601W        W18466   0.322  18.435  13.119
17602W        W18467   0.370  19.398  12.489
17603W        W18468   3.059  18.506  12.895
17604W        W18469   0.481  19.004  11.709
17605W        W18470   3.052  18.692  13.325
17606W        W18471   3.448  19.895  11.010
17607W        W18472   0.740  18.653  12.829
17608W        W18473   1.854  19.225  13.769
17609W        W18474   0.002  18.915  11.247
17610W        W18475   0.788  20.304  13.808
17611W        W18476   2.146  19.702  12.987
17612W        W18477   2.013  21.781  11.283
17613W        W18478   0.159  20.288  10.980
17614W        W18479   0.894  20.699  14.106
17615W        W18480   0.415  19.866  13.737
17616W        W18481   1.406  19.971  13.531
17617W        W18482   3.174  18.330  13.793
17618W        W18483   3.572  19.940  13.784
17619W        W18484   3.560  20.140  11.470
17620W        W18485   2.423  20.472  11.569
17621W        W18486   2.897  21.772  11.264
17622W        W18487   2.074  19.762  14.406
17623W        W18488   0.404  20.729  14.446
17624W        W18489   3.610  18.651  14.398
17625W        W18490   3.328  19.579  13.019
17626W        W18491   1.636  21.709  14.496
17627W        W18492   1.491  18.338  11.223
17628W        W18493   3.030  20.937  11.166
17629W        W18494   0.799  19.030  14.052
17630W        W18495   1.233  21.024  13.914
17631W        W18496   3.359  19.015  13.712
17632W        W18497   2.570  21.674  11.680
17633W        W18498   2.809  20.293  13.047
17634W        W18499   1.059  18.709  13.714
17635W        W18500   1.528  19.778  14.471
17636W        W18501   1.031  20.957  11.665
17637W        W18502   2.786  20.455  11.929
17638W        W18503   0.554  19.081  13.653
17639W        W18504   1.883  21.143  12.117
17640W        W18505   3.633  19.703  12.298
17641W        W18506   1.855  18.336  14.017
17642W        W18507   2.635  21.041  13.096
17643W        W18508   2.938  21.385  12.804
17644W        W18509   2.157  21.187  11.232
17645W        W18510   0.167  21.079  14.074
17646W        W18511   0.910  19.071  13.312
17647W        W18512   0.880  18.419  12.422
17648W        W18513   2.501  19.261  13.114
17649W        W18514   1.299  20.432  11.314
17650W        W18515   3.297  20.374  12.813
17651W        W18516   0.624  21.132  14.236
17652W        W18517   3.011  21.814  12.033
17653W        W18518   1.110  18.834  12.478
17654W        W18519   0.879  20.327  12.568
17655W        W18520   1.192  21.738  13.318
17656W        W18521   3.259  21.834  14.350
17657W        W18522   2.418  20.022  13.283
17658W        W18523   0.267  19.820  11.198
17659W        W18524   3.401  21.478  11.895
17660W        W18525   3.238  18.802  11.514
17661W        W18526   1.377  18.321  13.917
17662W        W18527   3.083  21.123  12.375
17663W        W18528   3.112  19.679  12.280
17664W        W18529   1.229  19.352  12.496
17665W        W18530   1.474  19.614  13.820
17666W        W18531   2.585  20.767  13.683
17667W        W18532   1.235  19.221  13.795
17668W        W18533   1.214  21.687  12.411
17669W        W18534   0.531  21.646  14.045
17670W        W18535   0.643  21.007  11.175
17671W        W18536   3.160  20.765  11.985
17672W        W18537   0.764  19.557  13.871
17673W        W18538   3.537  19.487  11.352
17674W        W18539   1.282  20.544  11.823
17675W        W18540   2.381  19.926  13.904
17676W        W18541   2.272  19.554  13.448
17677W        W18542   0.832  19.926  13.477
17678W        W18543   3.042  21.814  13.306
17679W        W18544   2.833  18.448  14.300
17680W        W18545   0.497  18.598  13.887
17681W        W18546   0.836  19.621  12.940
17682W        W18547   1.205  19.435  11.062
17683W        W18548   0.008  21.194  13.607
17684W        W18549   1.593  19.903  13.050
17685W        W18550   1.416  18.928  11.155
17686W        W18551   0.551  19.744  11.936
17687W        W18552   0.322  21.596  13.373
17688W        W18553   3.117  19.822  11.481
17689W        W18554   3.212  18.738  14.167
17690W        W18555   2.648  20.947  12.130
17691W        W18556   0.246  19.871  14.307
17692W        W18557   3.212  18.335  11.603
17693W        W18558   2.732  20.810  11.614
17694W        W18559   1.634  19.868  11.699
17695W        W18560   2.821  18.672  11.222
17696W        W18561   2.886  19.279  13.408
17697W        W18562   0.595  19.872  12.615
17698W        W18563   0.889  20.811  12.264
17699W        W18564   2.652  19.431  12.229
17700W        W18565   1.675  18.810  12.925
17701W        W18566   3.637  20.721  13.436
17702W        W18567   3.555  18.708  12.997
17703W        W18568   0.094  21.538  12.373
17704W        W18569   0.603  20.725  11.909
17705W        W18570   0.518  18.342  14.462
17706W        W18571   1.637  21.195  14.564
17707W        W18572   3.392  20.163  12.354
17708W        W18573   2.746  20.340  11.234
17709W        W18574   2.041  21.861  13.446
17710W        W18575   2.898  20.583  14.483
17711W        W18576   1.713  18.293  11.763
17712W        W18577   2.426  19.162  12.622
17713W        W18578   0.112  20.749  12.954
17714W        W18579   1.365  18.711  11.595
17715W        W18580   1.169  20.195  14.444
17716W        W18581   2.163  19.176  12.158
17717W        W18582   2.368  20.586  13.280
17718W        W18583   0.522  21.191  13.715
17719W        W18584   1.113  21.174  14.438
17720W        W18585   0.964  18.971  11.452
17721W        W18586   2.481  19.113  11.777
17722W        W18587   2.439  21.221  14.014
17723W        W18588   1.124  19.813  12.613
17724W        W18589   0.779  21.511  13.478
17725W        W18590   3.524  21.628  11.079
17726W        W18591   0.387  20.300  14.075
17727W        W18592   2.382  20.562  12.763
17728W        W18593   0.818  20.211  12.005
17729W        W18594   1.189  21.218  13.400
17730W        W18595   1.567  18.637  12.441
17731W        W18596   0.178  20.621  11.371
17732W        W18597   1.697  19.572  11.241
17733W        W18598   0.343  20.121  12.260
17734W        W18599   1.633  18.763  13.724
17735W        W18600   3.305  18.472  11.151
17736W        W18601   3.398  20.218  14.250
17737W        W18602   2.052  21.475  14.402
17738W        W18603   3.610  20.569  13.924
17739W        W18604   3.018  21.367  14.535
17740W        W18605   0.757  21.823  13.013
17741W        W18606   3.616  20.445  11.887
17742W        W18607   2.146  19.712  12.400
17743W        W18608   1.913  18.324  12.290
17744W        W18609   0.972  21.308  12.127
17745W        W18610   1.471  19.049  13.352
17746W        W18611   1.171  18.418  12.821
17747W        W18612   0.234  21.240  11.369
17748W        W18613   2.050  20.604  12.087
17749W        W18614   0.925  21.399  13.966
17750W        W18615   0.402  20.222  11.662
17751W        W18616   0.287  18.765  12.661
17752W        W18617   1.835  20.730  12.718
17753W        W18618   0.087  18.584  11.738
17754W        W18619   2.751  19.790  13.665
17755W        W18620   2.628  19.176  11.237
17756W        W18621   3.145  20.848  12.885
17757W        W18622   1.806  21.332  12.716
17758W        W18623   1.218  21.436  11.627
17759W        W18624   2.500  18.339  11.057
17760W        W18625   0.300  21.599  12.798
17761W        W18626   2.497  19.357  14.433
17762W        W18627   0.480  18.887  14.432
17763W        W18628   0.211  19.487  11.765
17764W        W18629   0.902  19.476  11.490
17765W        W18630   2.665  19.803  14.307
17766W        W18631   1.008  20.084  13.016
17767W        W18632   2.482  18.370  12.136
17768W        W18633   1.613  21.801  12.639
17769W        W18634   2.827  21.263  13.576
17770W        W18635   2.411  21.412  12.687
17771W        W18636   2.430  20.392  12.281
17772W        W18637   1.892  18.617  11.352
17773W        W18638   3.573  18.245  12.074
17774W        W18639   1.261  19.880  11.237
17775W        W18640   3.427  19.217  12.227
17776W        W18641   2.119  20.387  11.104
17777W        W18642   3.055  20.587  13.852
17778W        W18643   2.709  21.288  11.319
17779W        W18644   1.324  18.963  14.225
17780W        W18645   1.144  19.547  13.466
17781W        W18646   3.236  21.042  13.743
17782W        W18647   2.336  18.992  14.120
17783W        W18648   0.180  19.463  13.897
17784W        W18649   1.940  19.940  13.623
17785W        W18650   0.297  20.698  12.280
17786W        W18651   0.444  19.995  13.170
17787W        W18652   2.761  20.281  13.520
17788W        W18653   2.533  21.661  14.331
17789W        W18654   2.429  19.400  13.884
17790W        W18655   2.706  21.454  12.289
17791W        W18656   1.708  21.174  13.612
17792W        W18657   1.193  21.529  12.881
17793W        W18658   2.998  20.700  13.300
17794W        W18659   2.048  20.772  14.437
17795W        W18660   0.653  20.725  12.776
17796W        W18661   2.999  20.484  12.421
17797W        W18662   2.640  21.550  13.172
17798W        W18663   0.618  21.279  13.042
17799W        W18664   1.639  19.331  14.252
17800W        W18665   2.090  21.497  11.763
17801W        W18666   1.398  20.752  14.401
17802W        W18667   1.524  20.990  11.778
17803W        W18668   0.745  19.730  11.037
17804W        W18669   0.084  21.816  17.936
17805W        W18670   0.460  20.709  17.459
17806W        W18671   3.165  20.439  15.229
17807W        W18672   3.295  21.524  17.256
17808W        W18673   1.213  21.515  14.782
17809W        W18674   1.296  19.667  15.765
17810W        W18675   0.811  19.515  15.929
17811W        W18676   1.802  20.330  15.363
17812W        W18677   1.477  21.422  17.718
17813W        W18678   0.126  18.983  17.681
17814W        W18679   0.888  18.263  17.483
17815W        W18680   2.582  18.651  16.370
17816W        W18681   2.231  19.522  14.940
17817W        W18682   2.801  18.956  18.031
17818W        W18683   0.167  18.748  17.156
17819W        W18684   0.266  21.367  18.177
17820W        W18685   1.788  20.757  14.909
17821W        W18686   0.220  19.540  16.602
17822W        W18687   1.113  19.431  17.839
17823W        W18688   3.572  19.290  16.338
17824W        W18689   3.336  20.333  17.197
17825W        W18690   1.644  19.666  16.224
17826W        W18691   2.190  21.005  16.593
17827W        W18692   0.690  20.439  16.825
17828W        W18693   0.049  19.967  16.396
17829W        W18694   1.085  19.939  17.588
17830W        W18695   3.356  19.722  17.842
17831W        W18696   0.972  21.166  16.287
17832W        W18697   2.093  20.855  17.421
17833W        W18698   1.313  19.495  16.646
17834W        W18699   1.605  20.279  16.289
17835W        W18700   2.602  21.052  18.137
17836W        W18701   1.681  20.372  18.147
17837W        W18702   1.662  20.088  17.625
17838W        W18703   0.071  19.479  18.147
17839W        W18704   2.903  21.014  17.746
17840W        W18705   0.484  18.596  15.744
17841W        W18706   1.011  20.854  16.743
17842W        W18707   3.474  20.637  16.033
17843W        W18708   2.887  19.037  16.600
17844W        W18709   3.172  18.990  14.695
17845W        W18710   3.637  19.791  17.001
17846W        W18711   1.604  21.498  16.754
17847W        W18712   3.378  20.964  15.192
17848W        W18713   0.507  21.750  14.946
17849W        W18714   0.900  21.796  15.622
17850W        W18715   0.697  18.550  17.048
17851W        W18716   3.320  19.568  17.323
17852W        W18717   2.725  19.990  15.782
17853W        W18718   2.691  19.678  14.809
17854W        W18719   1.899  20.822  16.949
17855W        W18720   1.705  19.152  16.148
17856W        W18721   2.305  21.239  17.142
17857W        W18722   3.176  20.030  15.564
17858W        W18723   2.078  18.688  15.580
17859W        W18724   0.735  21.382  15.263
17860W        W18725   0.106  18.881  15.862
17861W        W18726   2.892  19.488  16.336
17862W        W18727   0.350  21.105  16.251
17863W        W18728   1.691  21.455  15.121
17864W        W18729   3.083  19.481  14.585
17865W        W18730   0.106  21.239  16.749
17866W        W18731   0.897  20.811  17.229
17867W        W18732   1.270  20.171  15.848
17868W        W18733   1.292  18.576  16.941
17869W        W18734   3.521  18.338  16.238
17870W        W18735   0.740  20.210  14.706
17871W        W18736   0.395  19.243  14.885
17872W        W18737   0.457  21.199  15.679
17873W        W18738   1.588  20.682  15.927
17874W        W18739   2.920  21.541  17.641
17875W        W18740   1.846  19.183  15.325
17876W        W18741   3.229  21.581  16.097
17877W        W18742   2.906  19.434  17.695
17878W        W18743   3.619  21.090  15.829
17879W        W18744   2.246  20.382  17.313
17880W        W18745   0.012  19.933  15.519
17881W        W18746   1.123  20.348  17.092
17882W        W18747   2.327  19.612  15.470
17883W        W18748   2.204  20.102  15.574
17884W        W18749   0.547  19.522  17.048
17885W        W18750   0.532  19.398  17.970
17886W        W18751   0.422  18.315  16.129
17887W        W18752   2.190  18.662  16.690
17888W        W18753   1.838  18.847  17.853
17889W        W18754   2.193  18.996  15.031
17890W        W18755   3.376  21.389  17.785
17891W        W18756   2.343  18.470  17.824
17892W        W18757   3.362  20.771  17.946
17893W        W18758   2.792  18.938  17.542
17894W        W18759   2.592  18.876  15.812
17895W        W18760   2.985  20.010  18.216
17896W        W18761   0.725  21.586  16.202
17897W        W18762   1.383  19.303  15.188
17898W        W18763   0.952  18.587  17.852
17899W        W18764   3.004  19.071  15.533
17900W        W18765   3.371  19.553  15.478
17901W        W18766   1.114  21.770  17.949
17902W        W18767   1.040  18.306  15.184
17903W        W18768   3.361  18.840  16.219
17904W        W18769   3.511  21.089  14.664
17905W        W18770   0.418  20.292  16.366
17906W        W18771   2.335  18.879  14.596
17907W        W18772   3.469  21.211  16.316
17908W        W18773   3.508  18.405  17.066
17909W        W18774   1.953  19.617  17.620
17910W        W18775   2.046  20.956  15.323
17911W        W18776   2.446  20.250  18.063
17912W        W18777   2.120  18.227  16.372
17913W        W18778   0.732  19.130  16.435
17914W        W18779   0.286  20.330  17.209
17915W        W18780   2.145  21.523  15.915
17916W        W18781   3.339  19.120  16.787
17917W        W18782   1.976  21.467  17.554
17918W        W18783   3.319  20.526  14.759
17919W        W18784   1.754  20.009  15.820
17920W        W18785   3.606  18.520  17.561
17921W        W18786   1.755  20.355  17.155
17922W        W18787   1.972  19.241  16.600
17923W        W18788   2.824  19.539  15.438
17924W        W18789   3.111  19.272  15.080
17925W        W18790   2.920  21.312  15.469
17926W        W18791   2.754  20.915  16.265
17927W        W18792   2.650  19.994  15.243
17928W        W18793   2.083  20.204  16.229
17929W        W18794   2.964  19.992  16.296
17930W        W18795   0.339  19.007  16.720
17931W        W18796   3.117  20.059  17.547
17932W        W18797   3.468  21.677  16.693
17933W        W18798   1.398  21.121  16.095
17934W        W18799   2.405  21.654  17.419
17935W        W18800   2.399  18.984  17.183
17936W        W18801   1.606  21.692  17.244
17937W        W18802   3.303  18.646  15.710
17938W        W18803   3.094  19.965  17.011
17939W        W18804   0.077  19.286  17.049
17940W        W18805   2.937  19.081  16.067
17941W        W18806   3.348  19.232  17.844
17942W        W18807   2.233  20.931  16.062
17943W        W18808   1.489  21.522  15.675
17944W        W18809   0.604  18.702  14.933
17945W        W18810   1.708  18.356  16.743
17946W        W18811   0.736  21.476  14.591
17947W        W18812   1.110  19.942  15.342
17948W        W18813   1.764  20.571  17.655
17949W        W18814   1.594  18.929  15.645
17950W        W18815   2.950  18.526  16.073
17951W        W18816   2.670  21.808  16.401
17952W        W18817   2.082  21.456  16.741
17953W        W18818   1.478  20.493  16.702
17954W        W18819   3.248  21.216  16.828
17955W        W18820   0.942  18.719  15.597
17956W        W18821   1.464  21.016  16.557
17957W        W18822   0.947  18.947  14.622
17958W        W18823   1.748  19.556  17.016
17959W        W18824   2.596  18.422  16.886
17960W        W18825   0.016  20.265  16.771
17961W        W18826   1.720  20.083  14.929
17962W        W18827   0.988  18.398  14.699
17963W        W18828   1.726  19.479  15.750
17964W        W18829   2.696  18.455  17.449
17965W        W18830   1.284  20.467  17.558
17966W        W18831   2.088  20.249  17.775
17967W        W18832   2.705  20.279  17.668
17968W        W18833   1.989  18.419  18.173
17969W        W18834   1.211  19.035  16.566
17970W        W18835   0.637  18.991  15.964
17971W        W18836   0.423  21.703  15.640
17972W        W18837   1.755  21.033  17.765
17973W        W18838   0.790  20.518  15.124
17974W        W18839   2.470  19.903  16.345
17975W        W18840   2.750  19.702  16.744
17976W        W18841   1.955  20.376  16.678
17977W        W18842   2.425  20.750  14.810
17978W        W18843   2.097  18.771  16.138
17979W        W18844   3.576  19.049  15.406
17980W        W18845   0.070  21.638  17.437
17981W        W18846   0.487  20.864  16.969
17982W        W18847   0.054  21.710  15.201
17983W        W18848   1.953  18.980  17.007
17984W        W18849   1.316  21.003  14.856
17985W        W18850   3.221  21.385  15.042
17986W        W18851   2.196  20.038  15.056
17987W        W18852   1.039  19.229  15.573
17988W        W18853   1.871  19.139  14.625
17989W        W18854   2.455  20.704  17.803
17990W        W18855   2.808  18.610  15.420
17991W        W18856   0.138  18.458  14.868
17992W        W18857   1.424  20.777  17.158
17993W        W18858   1.223  20.693  16.250
17994W        W18859   0.965  20.645  14.648
17995W        W18860   0.206  20.886  15.416
17996W        W18861   0.710  19.956  17.858
17997W        W18862   1.414  18.516  18.044
17998W        W18863   2.123  18.658  17.400
17999W        W18864   1.318  18.426  15.681
18000W        W18865   2.377  18.503  15.186
18001W        W18866   0.322  18.435  16.763
18002W        W18867   0.370  19.398  16.133
18003W        W18868   3.059  18.506  16.539
18004W        W18869   0.481  19.004  15.353
18005W        W18870   3.052  18.692  16.969
18006W        W18871   3.448  19.895  14.654
18007W        W18872   0.740  18.653  16.473
18008W        W18873   1.854  19.225  17.413
18009W        W18874   0.002  18.915  14.891
18010W        W18875   0.788  20.304  17.452
18011W        W18876   2.146  19.702  16.631
18012W        W18877   2.013  21.781  14.927
18013W        W18878   0.159  20.288  14.624
18014W        W18879   0.894  20.699  17.750
18015W        W18880   0.415  19.866  17.381
18016W        W18881   1.406  19.971  17.175
18017W        W18882   3.174  18.330  17.437
18018W        W18883   3.572  19.940  17.428
18019W        W18884   3.560  20.140  15.114
18020W        W18885   2.423  20.472  15.213
18021W        W18886   2.897  21.772  14.908
18022W        W18887   2.074  19.762  18.050
18023W        W18888   0.404  20.729  18.090
18024W        W18889   3.610  18.651  18.042
18025W        W18890   3.328  19.579  16.663
18026W        W18891   1.636  21.709  18.140
18027W        W18892   1.491  18.338  14.867
18028W        W18893   3.030  20.937  14.810
18029W        W18894   0.799  19.030  17.696
18030W        W18895   1.233  21.024  17.558
18031W        W18896   3.359  19.015  17.356
18032W        W18897   2.570  21.674  15.324
18033W        W18898   2.809  20.293  16.691
18034W        W18899   1.059  18.709  17.358
18035W        W18900   1.528  19.778  18.115
18036W        W18901   1.031  20.957  15.309
18037W        W18902   2.786  20.455  15.573
18038W        W18903   0.554  19.081  17.297
18039W        W18904   1.883  21.143  15.761
18040W        W18905   3.633  19.703  15.942
18041W        W18906   1.855  18.336  17.661
18042W        W18907   2.635  21.041  16.740
18043W        W18908   2.938  21.385  16.448
18044W        W18909   2.157  21.187  14.876
18045W        W18910   0.167  21.079  17.718
18046W        W18911   0.910  19.071  16.956
18047W        W18912   0.880  18.419  16.066
18048W        W18913   2.501  19.261  16.758
18049W        W18914   1.299  20.432  14.958
18050W        W18915   3.297  20.374  16.457
18051W        W18916   0.624  21.132  17.880
18052W        W18917   3.011  21.814  15.677
18053W        W18918   1.110  18.834  16.122
18054W        W18919   0.879  20.327  16.212
18055W        W18920   1.192  21.738  16.962
18056W        W18921   3.259  21.834  17.994
18057W        W18922   2.418  20.022  16.927
18058W        W18923   0.267  19.820  14.842
18059W        W18924   3.401  21.478  15.539
18060W        W18925   3.238  18.802  15.158
18061W        W18926   1.377  18.321  17.561
18062W        W18927   3.083  21.123  16.019
18063W        W18928   3.112  19.679  15.924
18064W        W18929   1.229  19.352  16.140
18065W        W18930   1.474  19.614  17.464
18066W        W18931   2.585  20.767  17.327
18067W        W18932   1.235  19.221  17.439
18068W        W18933   1.214  21.687  16.055
18069W        W18934   0.531  21.646  17.689
18070W        W18935   0.643  21.007  14.819
18071W        W18936   3.160  20.765  15.629
18072W        W18937   0.764  19.557  17.515
18073W        W18938   3.537  19.487  14.996
18074W        W18939   1.282  20.544  15.467
18075W        W18940   2.381  19.926  17.548
18076W        W18941   2.272  19.554  17.092
18077W        W18942   0.832  19.926  17.121
18078W        W18943   3.042  21.814  16.950
18079W        W18944   2.833  18.448  17.944
18080W        W18945   0.497  18.598  17.531
18081W        W18946   0.836  19.621  16.584
18082W        W18947   1.205  19.435  14.706
18083W        W18948   0.008  21.194  17.251
18084W        W18949   1.593  19.903  16.694
18085W        W18950   1.416  18.928  14.799
18086W        W18951   0.551  19.744  15.580
18087W        W18952   0.322  21.596  17.017
18088W        W18953   3.117  19.822  15.125
18089W        W18954   3.212  18.738  17.811
18090W        W18955   2.648  20.947  15.774
18091W        W18956   0.246  19.871  17.951
18092W        W18957   3.212  18.335  15.247
18093W        W18958   2.732  20.810  15.258
18094W        W18959   1.634  19.868  15.343
18095W        W18960   2.821  18.672  14.866
18096W        W18961   2.886  19.279  17.052
18097W        W18962   0.595  19.872  16.259
18098W        W18963   0.889  20.811  15.908
18099W        W18964   2.652  19.431  15.873
18100W        W18965   1.675  18.810  16.569
18101W        W18966   3.637  20.721  17.080
18102W        W18967   3.555  18.708  16.641
18103W        W18968   0.094  21.538  16.017
18104W        W18969   0.603  20.725  15.553
18105W        W18970   0.518  18.342  18.106
18106W        W18971   1.637  21.195  18.208
18107W        W18972   3.392  20.163  15.998
18108W        W18973   2.746  20.340  14.878
18109W        W18974   2.041  21.861  17.090
18110W        W18975   2.898  20.583  18.127
18111W        W18976   1.713  18.293  15.407
18112W        W18977   2.426  19.162  16.266
18113W        W18978   0.112  20.749  16.598
18114W        W18979   1.365  18.711  15.239
18115W        W18980   1.169  20.195  18.088
18116W        W18981   2.163  19.176  15.802
18117W        W18982   2.368  20.586  16.924
18118W        W18983   0.522  21.191  17.359
18119W        W18984   1.113  21.174  18.082
18120W        W18985   0.964  18.971  15.096
18121W        W18986   2.481  19.113  15.421
18122W        W18987   2.439  21.221  17.658
18123W        W18988   1.124  19.813  16.257
18124W        W18989   0.779  21.511  17.122
18125W        W18990   3.524  21.628  14.723
18126W        W18991   0.387  20.300  17.719
18127W        W18992   2.382  20.562  16.407
18128W        W18993   0.818  20.211  15.649
18129W        W18994   1.189  21.218  17.044
18130W        W18995   1.567  18.637  16.085
18131W        W18996   0.178  20.621  15.015
18132W        W18997   1.697  19.572  14.885
18133W        W18998   0.343  20.121  15.904
18134W        W18999   1.633  18.763  17.368
18135W        W19000   3.305  18.472  14.795
18136W        W19001   3.398  20.218  17.894
18137W        W19002   2.052  21.475  18.046
18138W        W19003   3.610  20.569  17.568
18139W        W19004   3.018  21.367  18.179
18140W        W19005   0.757  21.823  16.657
18141W        W19006   3.616  20.445  15.531
18142W        W19007   2.146  19.712  16.044
18143W        W19008   1.913  18.324  15.934
18144W        W19009   0.972  21.308  15.771
18145W        W19010   1.471  19.049  16.996
18146W        W19011   1.171  18.418  16.465
18147W        W19012   0.234  21.240  15.013
18148W        W19013   2.050  20.604  15.731
18149W        W19014   0.925  21.399  17.610
18150W        W19015   0.402  20.222  15.306
18151W        W19016   0.287  18.765  16.305
18152W        W19017   1.835  20.730  16.362
18153W        W19018   0.087  18.584  15.382
18154W        W19019   2.751  19.790  17.309
18155W        W19020   2.628  19.176  14.881
18156W        W19021   3.145  20.848  16.529
18157W        W19022   1.806  21.332  16.360
18158W        W19023   1.218  21.436  15.271
18159W        W19024   2.500  18.339  14.701
18160W        W19025   0.300  21.599  16.442
18161W        W19026   2.497  19.357  18.077
18162W        W19027   0.480  18.887  18.076
18163W        W19028   0.211  19.487  15.409
18164W        W19029   0.902  19.476  15.134
18165W        W19030   2.665  19.803  17.951
18166W        W19031   1.008  20.084  16.660
18167W        W19032   2.482  18.370  15.780
18168W        W19033   1.613  21.801  16.283
18169W        W19034   2.827  21.263  17.220
18170W        W19035   2.411  21.412  16.331
18171W        W19036   2.430  20.392  15.925
18172W        W19037   1.892  18.617  14.996
18173W        W19038   3.573  18.245  15.718
18174W        W19039   1.261  19.880  14.881
18175W        W19040   3.427  19.217  15.871
18176W        W19041   2.119  20.387  14.748
18177W        W19042   3.055  20.587  17.496
18178W        W19043   2.709  21.288  14.963
18179W        W19044   1.324  18.963  17.869
18180W        W19045   1.144  19.547  17.110
18181W        W19046   3.236  21.042  17.387
18182W        W19047   2.336  18.992  17.764
18183W        W19048   0.180  19.463  17.541
18184W        W19049   1.940  19.940  17.267
18185W        W19050   0.297  20.698  15.924
18186W        W19051   0.444  19.995  16.814
18187W        W19052   2.761  20.281  17.164
18188W        W19053   2.533  21.661  17.975
18189W        W19054   2.429  19.400  17.528
18190W        W19055   2.706  21.454  15.933
18191W        W19056   1.708  21.174  17.256
18192W        W19057   1.193  21.529  16.525
18193W        W19058   2.998  20.700  16.944
18194W        W19059   2.048  20.772  18.081
18195W        W19060   0.653  20.725  16.420
18196W        W19061   2.999  20.484  16.065
18197W        W19062   2.640  21.550  16.816
18198W        W19063   0.618  21.279  16.686
18199W        W19064   1.639  19.331  17.896
18200W        W19065   2.090  21.497  15.407
18201W        W19066   1.398  20.752  18.045
18202W        W19067   1.524  20.990  15.422
18203W        W19068   0.745  19.730  14.681
18204W        W19069   0.084  21.816  21.580
18205W        W19070   0.460  20.709  21.103
18206W        W19071   3.165  20.439  18.873
18207W        W19072   3.295  21.524  20.900
18208W        W19073   1.213  21.515  18.426
18209W        W19074   1.296  19.667  19.409
18210W        W19075   0.811  19.515  19.573
18211W        W19076   1.802  20.330  19.007
18212W        W19077   1.477  21.422  21.362
18213W        W19078   0.126  18.983  21.325
18214W        W19079   0.888  18.263  21.127
18215W        W19080   2.582  18.651  20.014
18216W        W19081   2.231  19.522  18.584
18217W        W19082   2.801  18.956  21.675
18218W        W19083   0.167  18.748  20.800
18219W        W19084   0.266  21.367  21.821
18220W        W19085   1.788  20.757  18.553
18221W        W19086   0.220  19.540  20.246
18222W        W19087   1.113  19.431  21.483
18223W        W19088   3.572  19.290  19.982
18224W        W19089   3.336  20.333  20.841
18225W        W19090   1.644  19.666  19.868
18226W        W19091   2.190  21.005  20.237
18227W        W19092   0.690  20.439  20.469
18228W        W19093   0.049  19.967  20.040
18229W        W19094   1.085  19.939  21.232
18230W        W19095   3.356  19.722  21.486
18231W        W19096   0.972  21.166  19.931
18232W        W19097   2.093  20.855  21.065
18233W        W19098   1.313  19.495  20.290
18234W        W19099   1.605  20.279  19.933
18235W        W19100   2.602  21.052  21.781
18236W        W19101   1.681  20.372  21.791
18237W        W19102   1.662  20.088  21.269
18238W        W19103   0.071  19.479  21.791
18239W        W19104   2.903  21.014  21.390
18240W        W19105   0.484  18.596  19.388
18241W        W19106   1.011  20.854  20.387
18242W        W19107   3.474  20.637  19.677
18243W        W19108   2.887  19.037  20.244
18244W        W19109   3.172  18.990  18.339
18245W        W19110   3.637  19.791  20.645
18246W        W19111   1.604  21.498  20.398
18247W        W19112   3.378  20.964  18.836
18248W        W19113   0.507  21.750  18.590
18249W        W19114   0.900  21.796  19.266
18250W        W19115   0.697  18.550  20.692
18251W        W19116   3.320  19.568  20.967
18252W        W19117   2.725  19.990  19.426
18253W        W19118   2.691  19.678  18.453
18254W        W19119   1.899  20.822  20.593
18255W        W19120   1.705  19.152  19.792
18256W        W19121   2.305  21.239  20.786
18257W        W19122   3.176  20.030  19.208
18258W        W19123   2.078  18.688  19.224
18259W        W19124   0.735  21.382  18.907
18260W        W19125   0.106  18.881  19.506
18261W        W19126   2.892  19.488  19.980
18262W        W19127   0.350  21.105  19.895
18263W        W19128   1.691  21.455  18.765
18264W        W19129   3.083  19.481  18.229
18265W        W19130   0.106  21.239  20.393
18266W        W19131   0.897  20.811  20.873
18267W        W19132   1.270  20.171  19.492
18268W        W19133   1.292  18.576  20.585
18269W        W19134   3.521  18.338  19.882
18270W        W19135   0.740  20.210  18.350
18271W        W19136   0.395  19.243  18.529
18272W        W19137   0.457  21.199  19.323
18273W        W19138   1.588  20.682  19.571
18274W        W19139   2.920  21.541  21.285
18275W        W19140   1.846  19.183  18.969
18276W        W19141   3.229  21.581  19.741
18277W        W19142   2.906  19.434  21.339
18278W        W19143   3.619  21.090  19.473
18279W        W19144   2.246  20.382  20.957
18280W        W19145   0.012  19.933  19.163
18281W        W19146   1.123  20.348  20.736
18282W        W19147   2.327  19.612  19.114
18283W        W19148   2.204  20.102  19.218
18284W        W19149   0.547  19.522  20.692
18285W        W19150   0.532  19.398  21.614
18286W        W19151   0.422  18.315  19.773
18287W        W19152   2.190  18.662  20.334
18288W        W19153   1.838  18.847  21.497
18289W        W19154   2.193  18.996  18.675
18290W        W19155   3.376  21.389  21.429
18291W        W19156   2.343  18.470  21.468
18292W        W19157   3.362  20.771  21.590
18293W        W19158   2.792  18.938  21.186
18294W        W19159   2.592  18.876  19.456
18295W        W19160   2.985  20.010  21.860
18296W        W19161   0.725  21.586  19.846
18297W        W19162   1.383  19.303  18.832
18298W        W19163   0.952  18.587  21.496
18299W        W19164   3.004  19.071  19.177
18300W        W19165   3.371  19.553  19.122
18301W        W19166   1.114  21.770  21.593
18302W        W19167   1.040  18.306  18.828
18303W        W19168   3.361  18.840  19.863
18304W        W19169   3.511  21.089  18.308
18305W        W19170   0.418  20.292  20.010
18306W        W19171   2.335  18.879  18.240
18307W        W19172   3.469  21.211  19.960
18308W        W19173   3.508  18.405  20.710
18309W        W19174   1.953  19.617  21.264
18310W        W19175   2.046  20.956  18.967
18311W        W19176   2.446  20.250  21.707
18312W        W19177   2.120  18.227  20.016
18313W        W19178   0.732  19.130  20.079
18314W        W19179   0.286  20.330  20.853
18315W        W19180   2.145  21.523  19.559
18316W        W19181   3.339  19.120  20.431
18317W        W19182   1.976  21.467  21.198
18318W        W19183   3.319  20.526  18.403
18319W        W19184   1.754  20.009  19.464
18320W        W19185   3.606  18.520  21.205
18321W        W19186   1.755  20.355  20.799
18322W        W19187   1.972  19.241  20.244
18323W        W19188   2.824  19.539  19.082
18324W        W19189   3.111  19.272  18.724
18325W        W19190   2.920  21.312  19.113
18326W        W19191   2.754  20.915  19.909
18327W        W19192   2.650  19.994  18.887
18328W        W19193   2.083  20.204  19.873
18329W        W19194   2.964  19.992  19.940
18330W        W19195   0.339  19.007  20.364
18331W        W19196   3.117  20.059  21.191
18332W        W19197   3.468  21.677  20.337
18333W        W19198   1.398  21.121  19.739
18334W        W19199   2.405  21.654  21.063
18335W        W19200   2.399  18.984  20.827
18336W        W19201   1.606  21.692  20.888
18337W        W19202   3.303  18.646  19.354
18338W        W19203   3.094  19.965  20.655
18339W        W19204   0.077  19.286  20.693
18340W        W19205   2.937  19.081  19.711
18341W        W19206   3.348  19.232  21.488
18342W        W19207   2.233  20.931  19.706
18343W        W19208   1.489  21.522  19.319
18344W        W19209   0.604  18.702  18.577
18345W        W19210   1.708  18.356  20.387
18346W        W19211   0.736  21.476  18.235
18347W        W19212   1.110  19.942  18.986
18348W        W19213   1.764  20.571  21.299
18349W        W19214   1.594  18.929  19.289
18350W        W19215   2.950  18.526  19.717
18351W        W19216   2.670  21.808  20.045
18352W        W19217   2.082  21.456  20.385
18353W        W19218   1.478  20.493  20.346
18354W        W19219   3.248  21.216  20.472
18355W        W19220   0.942  18.719  19.241
18356W        W19221   1.464  21.016  20.201
18357W        W19222   0.947  18.947  18.266
18358W        W19223   1.748  19.556  20.660
18359W        W19224   2.596  18.422  20.530
18360W        W19225   0.016  20.265  20.415
18361W        W19226   1.720  20.083  18.573
18362W        W19227   0.988  18.398  18.343
18363W        W19228   1.726  19.479  19.394
18364W        W19229   2.696  18.455  21.093
18365W        W19230   1.284  20.467  21.202
18366W        W19231   2.088  20.249  21.419
18367W        W19232   2.705  20.279  21.312
18368W        W19233   1.989  18.419  21.817
18369W        W19234   1.211  19.035  20.210
18370W        W19235   0.637  18.991  19.608
18371W        W19236   0.423  21.703  19.284
18372W        W19237   1.755  21.033  21.409
18373W        W19238   0.790  20.518  18.768
18374W        W19239   2.470  19.903  19.989
18375W        W19240   2.750  19.702  20.388
18376W        W19241   1.955  20.376  20.322
18377W        W19242   2.425  20.750  18.454
18378W        W19243   2.097  18.771  19.782
18379W        W19244   3.576  19.049  19.050
18380W        W19245   0.070  21.638  21.081
18381W        W19246   0.487  20.864  20.613
18382W        W19247   0.054  21.710  18.845
18383W        W19248   1.953  18.980  20.651
18384W        W19249   1.316  21.003  18.500
18385W        W19250   3.221  21.385  18.686
18386W        W19251   2.196  20.038  18.700
18387W        W19252   1.039  19.229  19.217
18388W        W19253   1.871  19.139  18.269
18389W        W19254   2.455  20.704  21.447
18390W        W19255   2.808  18.610  19.064
18391W        W19256   0.138  18.458  18.512
18392W        W19257   1.424  20.777  20.802
18393W        W19258   1.223  20.693  19.894
18394W        W19259   0.965  20.645  18.292
18395W        W19260   0.206  20.886  19.060
18396W        W19261   0.710  19.956  21.502
18397W        W19262   1.414  18.516  21.688
18398W        W19263   2.123  18.658  21.044
18399W        W19264   1.318  18.426  19.325
18400W        W19265   2.377  18.503  18.830
18401W        W19266   0.322  18.435  20.407
18402W        W19267   0.370  19.398  19.777
18403W        W19268   3.059  18.506  20.183
18404W        W19269   0.481  19.004  18.997
18405W        W19270   3.052  18.692  20.613
18406W        W19271   3.448  19.895  18.298
18407W        W19272   0.740  18.653  20.117
18408W        W19273   1.854  19.225  21.057
18409W        W19274   0.002  18.915  18.535
18410W        W19275   0.788  20.304  21.096
18411W        W19276   2.146  19.702  20.275
18412W        W19277   2.013  21.781  18.571
18413W        W19278   0.159  20.288  18.268
18414W        W19279   0.894  20.699  21.394
18415W        W19280   0.415  19.866  21.025
18416W        W19281   1.406  19.971  20.819
18417W        W19282   3.174  18.330  21.081
18418W        W19283   3.572  19.940  21.072
18419W        W19284   3.560  20.140  18.758
18420W        W19285   2.423  20.472  18.857
18421W        W19286   2.897  21.772  18.552
18422W        W19287   2.074  19.762  21.694
18423W        W19288   0.404  20.729  21.734
18424W        W19289   3.610  18.651  21.686
18425W        W19290   3.328  19.579  20.307
18426W        W19291   1.636  21.709  21.784
18427W        W19292   1.491  18.338  18.511
18428W        W19293   3.030  20.937  18.454
18429W        W19294   0.799  19.030  21.340
18430W        W19295   1.233  21.024  21.202
18431W        W19296   3.359  19.015  21.000
18432W        W19297   2.570  21.674  18.968
18433W        W19298   2.809  20.293  20.335
18434W        W19299   1.059  18.709  21.002
18435W        W19300   1.528  19.778  21.759
18436W        W19301   1.031  20.957  18.953
18437W        W19302   2.786  20.455  19.217
18438W        W19303   0.554  19.081  20.941
18439W        W19304   1.883  21.143  19.405
18440W        W19305   3.633  19.703  19.586
18441W        W19306   1.855  18.336  21.305
18442W        W19307   2.635  21.041  20.384
18443W        W19308   2.938  21.385  20.092
18444W        W19309   2.157  21.187  18.520
18445W        W19310   0.167  21.079  21.362
18446W        W19311   0.910  19.071  20.600
18447W        W19312   0.880  18.419  19.710
18448W        W19313   2.501  19.261  20.402
18449W        W19314   1.299  20.432  18.602
18450W        W19315   3.297  20.374  20.101
18451W        W19316   0.624  21.132  21.524
18452W        W19317   3.011  21.814  19.321
18453W        W19318   1.110  18.834  19.766
18454W        W19319   0.879  20.327  19.856
18455W        W19320   1.192  21.738  20.606
18456W        W19321   3.259  21.834  21.638
18457W        W19322   2.418  20.022  20.571
18458W        W19323   0.267  19.820  18.486
18459W        W19324   3.401  21.478  19.183
18460W        W19325   3.238  18.802  18.802
18461W        W19326   1.377  18.321  21.205
18462W        W19327   3.083  21.123  19.663
18463W        W19328   3.112  19.679  19.568
18464W        W19329   1.229  19.352  19.784
18465W        W19330   1.474  19.614  21.108
18466W        W19331   2.585  20.767  20.971
18467W        W19332   1.235  19.221  21.083
18468W        W19333   1.214  21.687  19.699
18469W        W19334   0.531  21.646  21.333
18470W        W19335   0.643  21.007  18.463
18471W        W19336   3.160  20.765  19.273
18472W        W19337   0.764  19.557  21.159
18473W        W19338   3.537  19.487  18.640
18474W        W19339   1.282  20.544  19.111
18475W        W19340   2.381  19.926  21.192
18476W        W19341   2.272  19.554  20.736
18477W        W19342   0.832  19.926  20.765
18478W        W19343   3.042  21.814  20.594
18479W        W19344   2.833  18.448  21.588
18480W        W19345   0.497  18.598  21.175
18481W        W19346   0.836  19.621  20.228
18482W        W19347   1.205  19.435  18.350
18483W        W19348   0.008  21.194  20.895
18484W        W19349   1.593  19.903  20.338
18485W        W19350   1.416  18.928  18.443
18486W        W19351   0.551  19.744  19.224
18487W        W19352   0.322  21.596  20.661
18488W        W19353   3.117  19.822  18.769
18489W        W19354   3.212  18.738  21.455
18490W        W19355   2.648  20.947  19.418
18491W        W19356   0.246  19.871  21.595
18492W        W19357   3.212  18.335  18.891
18493W        W19358   2.732  20.810  18.902
18494W        W19359   1.634  19.868  18.987
18495W        W19360   2.821  18.672  18.510
18496W        W19361   2.886  19.279  20.696
18497W        W19362   0.595  19.872  19.903
18498W        W19363   0.889  20.811  19.552
18499W        W19364   2.652  19.431  19.517
18500W        W19365   1.675  18.810  20.213
18501W        W19366   3.637  20.721  20.724
18502W        W19367   3.555  18.708  20.285
18503W        W19368   0.094  21.538  19.661
18504W        W19369   0.603  20.725  19.197
18505W        W19370   0.518  18.342  21.750
18506W        W19371   1.637  21.195  21.852
18507W        W19372   3.392  20.163  19.642
18508W        W19373   2.746  20.340  18.522
18509W        W19374   2.041  21.861  20.734
18510W        W19375   2.898  20.583  21.771
18511W        W19376   1.713  18.293  19.051
18512W        W19377   2.426  19.162  19.910
18513W        W19378   0.112  20.749  20.242
18514W        W19379   1.365  18.711  18.883
18515W        W19380   1.169  20.195  21.732
18516W        W19381   2.163  19.176  19.446
18517W        W19382   2.368  20.586  20.568
18518W        W19383   0.522  21.191  21.003
18519W        W19384   1.113  21.174  21.726
18520W        W19385   0.964  18.971  18.740
18521W        W19386   2.481  19.113  19.065
18522W        W19387   2.439  21.221  21.302
18523W        W19388   1.124  19.813  19.901
18524W        W19389   0.779  21.511  20.766
18525W        W19390   3.524  21.628  18.367
18526W        W19391   0.387  20.300  21.363
18527W        W19392   2.382  20.562  20.051
18528W        W19393   0.818  20.211  19.293
18529W        W19394   1.189  21.218  20.688
18530W        W19395   1.567  18.637  19.729
18531W        W19396   0.178  20.621  18.659
18532W        W19397   1.697  19.572  18.529
18533W        W19398   0.343  20.121  19.548
18534W        W19399   1.633  18.763  21.012
18535W        W19400   3.305  18.472  18.439
18536W        W19401   3.398  20.218  21.538
18537W        W19402   2.052  21.475  21.690
18538W        W19403   3.610  20.569  21.212
18539W        W19404   3.018  21.367  21.823
18540W        W19405   0.757  21.823  20.301
18541W        W19406   3.616  20.445  19.175
18542W        W19407   2.146  19.712  19.688
18543W        W19408   1.913  18.324  19.578
18544W        W19409   0.972  21.308  19.415
18545W        W19410   1.471  19.049  20.640
18546W        W19411   1.171  18.418  20.109
18547W        W19412   0.234  21.240  18.657
18548W        W19413   2.050  20.604  19.375
18549W        W19414   0.925  21.399  21.254
18550W        W19415   0.402  20.222  18.950
18551W        W19416   0.287  18.765  19.949
18552W        W19417   1.835  20.730  20.006
18553W        W19418   0.087  18.584  19.026
18554W        W19419   2.751  19.790  20.953
18555W        W19420   2.628  19.176  18.525
18556W        W19421   3.145  20.848  20.173
18557W        W19422   1.806  21.332  20.004
18558W        W19423   1.218  21.436  18.915
18559W        W19424   2.500  18.339  18.345
18560W        W19425   0.300  21.599  20.086
18561W        W19426   2.497  19.357  21.721
18562W        W19427   0.480  18.887  21.720
18563W        W19428   0.211  19.487  19.053
18564W        W19429   0.902  19.476  18.778
18565W        W19430   2.665  19.803  21.595
18566W        W19431   1.008  20.084  20.304
18567W        W19432   2.482  18.370  19.424
18568W        W19433   1.613  21.801  19.927
18569W        W19434   2.827  21.263  20.864
18570W        W19435   2.411  21.412  19.975
18571W        W19436   2.430  20.392  19.569
18572W        W19437   1.892  18.617  18.640
18573W        W19438   3.573  18.245  19.362
18574W        W19439   1.261  19.880  18.525
18575W        W19440   3.427  19.217  19.515
18576W        W19441   2.119  20.387  18.392
18577W        W19442   3.055  20.587  21.140
18578W        W19443   2.709  21.288  18.607
18579W        W19444   1.324  18.963  21.513
18580W        W19445   1.144  19.547  20.754
18581W        W19446   3.236  21.042  21.031
18582W        W19447   2.336  18.992  21.408
18583W        W19448   0.180  19.463  21.185
18584W        W19449   1.940  19.940  20.911
18585W        W19450   0.297  20.698  19.568
18586W        W19451   0.444  19.995  20.458
18587W        W19452   2.761  20.281  20.808
18588W        W19453   2.533  21.661  21.619
18589W        W19454   2.429  19.400  21.172
18590W        W19455   2.706  21.454  19.577
18591W        W19456   1.708  21.174  20.900
18592W        W19457   1.193  21.529  20.169
18593W        W19458   2.998  20.700  20.588
18594W        W19459   2.048  20.772  21.725
18595W        W19460   0.653  20.725  20.064
18596W        W19461   2.999  20.484  19.709
18597W        W19462   2.640  21.550  20.460
18598W        W19463   0.618  21.279  20.330
18599W        W19464   1.639  19.331  21.540
18600W        W19465   2.090  21.497  19.051
18601W        W19466   1.398  20.752  21.689
18602W        W19467   1.524  20.990  19.066
18603W        W19468   0.745  19.730  18.325
18604W        W19469   0.084  21.816  25.225
18605W        W19470   0.460  20.709  24.748
18606W        W19471   3.165  20.439  22.518
18607W        W19472   3.295  21.524  24.545
18608W        W19473   1.213  21.515  22.071
18609W        W19474   1.296  19.667  23.054
18610W        W19475   0.811  19.515  23.218
18611W        W19476   1.802  20.330  22.652
18612W        W19477   1.477  21.422  25.007
18613W        W19478   0.126  18.983  24.970
18614W        W19479   0.888  18.263  24.772
18615W        W19480   2.582  18.651  23.659
18616W        W19481   2.231  19.522  22.229
18617W        W19482   2.801  18.956  25.320
18618W        W19483   0.167  18.748  24.445
18619W        W19484   0.266  21.367  25.466
18620W        W19485   1.788  20.757  22.198
18621W        W19486   0.220  19.540  23.891
18622W        W19487   1.113  19.431  25.128
18623W        W19488   3.572  19.290  23.627
18624W        W19489   3.336  20.333  24.486
18625W        W19490   1.644  19.666  23.513
18626W        W19491   2.190  21.005  23.882
18627W        W19492   0.690  20.439  24.114
18628W        W19493   0.049  19.967  23.685
18629W        W19494   1.085  19.939  24.877
18630W        W19495   3.356  19.722  25.131
18631W        W19496   0.972  21.166  23.576
18632W        W19497   2.093  20.855  24.710
18633W        W19498   1.313  19.495  23.935
18634W        W19499   1.605  20.279  23.578
18635W        W19500   2.602  21.052  25.426
18636W        W19501   1.681  20.372  25.436
18637W        W19502   1.662  20.088  24.914
18638W        W19503   0.071  19.479  25.436
18639W        W19504   2.903  21.014  25.035
18640W        W19505   0.484  18.596  23.033
18641W        W19506   1.011  20.854  24.032
18642W        W19507   3.474  20.637  23.322
18643W        W19508   2.887  19.037  23.889
18644W        W19509   3.172  18.990  21.984
18645W        W19510   3.637  19.791  24.290
18646W        W19511   1.604  21.498  24.043
18647W        W19512   3.378  20.964  22.481
18648W        W19513   0.507  21.750  22.235
18649W        W19514   0.900  21.796  22.911
18650W        W19515   0.697  18.550  24.337
18651W        W19516   3.320  19.568  24.612
18652W        W19517   2.725  19.990  23.071
18653W        W19518   2.691  19.678  22.098
18654W        W19519   1.899  20.822  24.238
18655W        W19520   1.705  19.152  23.437
18656W        W19521   2.305  21.239  24.431
18657W        W19522   3.176  20.030  22.853
18658W        W19523   2.078  18.688  22.869
18659W        W19524   0.735  21.382  22.552
18660W        W19525   0.106  18.881  23.151
18661W        W19526   2.892  19.488  23.625
18662W        W19527   0.350  21.105  23.540
18663W        W19528   1.691  21.455  22.410
18664W        W19529   3.083  19.481  21.874
18665W        W19530   0.106  21.239  24.038
18666W        W19531   0.897  20.811  24.518
18667W        W19532   1.270  20.171  23.137
18668W        W19533   1.292  18.576  24.230
18669W        W19534   3.521  18.338  23.527
18670W        W19535   0.740  20.210  21.995
18671W        W19536   0.395  19.243  22.174
18672W        W19537   0.457  21.199  22.968
18673W        W19538   1.588  20.682  23.216
18674W        W19539   2.920  21.541  24.930
18675W        W19540   1.846  19.183  22.614
18676W        W19541   3.229  21.581  23.386
18677W        W19542   2.906  19.434  24.984
18678W        W19543   3.619  21.090  23.118
18679W        W19544   2.246  20.382  24.602
18680W        W19545   0.012  19.933  22.808
18681W        W19546   1.123  20.348  24.381
18682W        W19547   2.327  19.612  22.759
18683W        W19548   2.204  20.102  22.863
18684W        W19549   0.547  19.522  24.337
18685W        W19550   0.532  19.398  25.259
18686W        W19551   0.422  18.315  23.418
18687W        W19552   2.190  18.662  23.979
18688W        W19553   1.838  18.847  25.142
18689W        W19554   2.193  18.996  22.320
18690W        W19555   3.376  21.389  25.074
18691W        W19556   2.343  18.470  25.113
18692W        W19557   3.362  20.771  25.235
18693W        W19558   2.792  18.938  24.831
18694W        W19559   2.592  18.876  23.101
18695W        W19560   2.985  20.010  25.505
18696W        W19561   0.725  21.586  23.491
18697W        W19562   1.383  19.303  22.477
18698W        W19563   0.952  18.587  25.141
18699W        W19564   3.004  19.071  22.822
18700W        W19565   3.371  19.553  22.767
18701W        W19566   1.114  21.770  25.238
18702W        W19567   1.040  18.306  22.473
18703W        W19568   3.361  18.840  23.508
18704W        W19569   3.511  21.089  21.953
18705W        W19570   0.418  20.292  23.655
18706W        W19571   2.335  18.879  21.885
18707W        W19572   3.469  21.211  23.605
18708W        W19573   3.508  18.405  24.355
18709W        W19574   1.953  19.617  24.909
18710W        W19575   2.046  20.956  22.612
18711W        W19576   2.446  20.250  25.352
18712W        W19577   2.120  18.227  23.661
18713W        W19578   0.732  19.130  23.724
18714W        W19579   0.286  20.330  24.498
18715W        W19580   2.145  21.523  23.204
18716W        W19581   3.339  19.120  24.076
18717W        W19582   1.976  21.467  24.843
18718W        W19583   3.319  20.526  22.048
18719W        W19584   1.754  20.009  23.109
18720W        W19585   3.606  18.520  24.850
18721W        W19586   1.755  20.355  24.444
18722W        W19587   1.972  19.241  23.889
18723W        W19588   2.824  19.539  22.727
18724W        W19589   3.111  19.272  22.369
18725W        W19590   2.920  21.312  22.758
18726W        W19591   2.754  20.915  23.554
18727W        W19592   2.650  19.994  22.532
18728W        W19593   2.083  20.204  23.518
18729W        W19594   2.964  19.992  23.585
18730W        W19595   0.339  19.007  24.009
18731W        W19596   3.117  20.059  24.836
18732W        W19597   3.468  21.677  23.982
18733W        W19598   1.398  21.121  23.384
18734W        W19599   2.405  21.654  24.708
18735W        W19600   2.399  18.984  24.472
18736W        W19601   1.606  21.692  24.533
18737W        W19602   3.303  18.646  22.999
18738W        W19603   3.094  19.965  24.300
18739W        W19604   0.077  19.286  24.338
18740W        W19605   2.937  19.081  23.356
18741W        W19606   3.348  19.232  25.133
18742W        W19607   2.233  20.931  23.351
18743W        W19608   1.489  21.522  22.964
18744W        W19609   0.604  18.702  22.222
18745W        W19610   1.708  18.356  24.032
18746W        W19611   0.736  21.476  21.880
18747W        W19612   1.110  19.942  22.631
18748W        W19613   1.764  20.571  24.944
18749W        W19614   1.594  18.929  22.934
18750W        W19615   2.950  18.526  23.362
18751W        W19616   2.670  21.808  23.690
18752W        W19617   2.082  21.456  24.030
18753W        W19618   1.478  20.493  23.991
18754W        W19619   3.248  21.216  24.117
18755W        W19620   0.942  18.719  22.886
18756W        W19621   1.464  21.016  23.846
18757W        W19622   0.947  18.947  21.911
18758W        W19623   1.748  19.556  24.305
18759W        W19624   2.596  18.422  24.175
18760W        W19625   0.016  20.265  24.060
18761W        W19626   1.720  20.083  22.218
18762W        W19627   0.988  18.398  21.988
18763W        W19628   1.726  19.479  23.039
18764W        W19629   2.696  18.455  24.738
18765W        W19630   1.284  20.467  24.847
18766W        W19631   2.088  20.249  25.064
18767W        W19632   2.705  20.279  24.957
18768W        W19633   1.989  18.419  25.462
18769W        W19634   1.211  19.035  23.855
18770W        W19635   0.637  18.991  23.253
18771W        W19636   0.423  21.703  22.929
18772W        W19637   1.755  21.033  25.054
18773W        W19638   0.790  20.518  22.413
18774W        W19639   2.470  19.903  23.634
18775W        W19640   2.750  19.702  24.033
18776W        W19641   1.955  20.376  23.967
18777W        W19642   2.425  20.750  22.099
18778W        W19643   2.097  18.771  23.427
18779W        W19644   3.576  19.049  22.695
18780W        W19645   0.070  21.638  24.726
18781W        W19646   0.487  20.864  24.258
18782W        W19647   0.054  21.710  22.490
18783W        W19648   1.953  18.980  24.296
18784W        W19649   1.316  21.003  22.145
18785W        W19650   3.221  21.385  22.331
18786W        W19651   2.196  20.038  22.345
18787W        W19652   1.039  19.229  22.862
18788W        W19653   1.871  19.139  21.914
18789W        W19654   2.455  20.704  25.092
18790W        W19655   2.808  18.610  22.709
18791W        W19656   0.138  18.458  22.157
18792W        W19657   1.424  20.777  24.447
18793W        W19658   1.223  20.693  23.539
18794W        W19659   0.965  20.645  21.937
18795W        W19660   0.206  20.886  22.705
18796W        W19661   0.710  19.956  25.147
18797W        W19662   1.414  18.516  25.333
18798W        W19663   2.123  18.658  24.689
18799W        W19664   1.318  18.426  22.970
18800W        W19665   2.377  18.503  22.475
18801W        W19666   0.322  18.435  24.052
18802W        W19667   0.370  19.398  23.422
18803W        W19668   3.059  18.506  23.828
18804W        W19669   0.481  19.004  22.642
18805W        W19670   3.052  18.692  24.258
18806W        W19671   3.448  19.895  21.943
18807W        W19672   0.740  18.653  23.762
18808W        W19673   1.854  19.225  24.702
18809W        W19674   0.002  18.915  22.180
18810W        W19675   0.788  20.304  24.741
18811W        W19676   2.146  19.702  23.920
18812W        W19677   2.013  21.781  22.216
18813W        W19678   0.159  20.288  21.913
18814W        W19679   0.894  20.699  25.039
18815W        W19680   0.415  19.866  24.670
18816W        W19681   1.406  19.971  24.464
18817W        W19682   3.174  18.330  24.726
18818W        W19683   3.572  19.940  24.717
18819W        W19684   3.560  20.140  22.403
18820W        W19685   2.423  20.472  22.502
18821W        W19686   2.897  21.772  22.197
18822W        W19687   2.074  19.762  25.339
18823W        W19688   0.404  20.729  25.379
18824W        W19689   3.610  18.651  25.331
18825W        W19690   3.328  19.579  23.952
18826W        W19691   1.636  21.709  25.429
18827W        W19692   1.491  18.338  22.156
18828W        W19693   3.030  20.937  22.099
18829W        W19694   0.799  19.030  24.985
18830W        W19695   1.233  21.024  24.847
18831W        W19696   3.359  19.015  24.645
18832W        W19697   2.570  21.674  22.613
18833W        W19698   2.809  20.293  23.980
18834W        W19699   1.059  18.709  24.647
18835W        W19700   1.528  19.778  25.404
18836W        W19701   1.031  20.957  22.598
18837W        W19702   2.786  20.455  22.862
18838W        W19703   0.554  19.081  24.586
18839W        W19704   1.883  21.143  23.050
18840W        W19705   3.633  19.703  23.231
18841W        W19706   1.855  18.336  24.950
18842W        W19707   2.635  21.041  24.029
18843W        W19708   2.938  21.385  23.737
18844W        W19709   2.157  21.187  22.165
18845W        W19710   0.167  21.079  25.007
18846W        W19711   0.910  19.071  24.245
18847W        W19712   0.880  18.419  23.355
18848W        W19713   2.501  19.261  24.047
18849W        W19714   1.299  20.432  22.247
18850W        W19715   3.297  20.374  23.746
18851W        W19716   0.624  21.132  25.169
18852W        W19717   3.011  21.814  22.966
18853W        W19718   1.110  18.834  23.411
18854W        W19719   0.879  20.327  23.501
18855W        W19720   1.192  21.738  24.251
18856W        W19721   3.259  21.834  25.283
18857W        W19722   2.418  20.022  24.216
18858W        W19723   0.267  19.820  22.131
18859W        W19724   3.401  21.478  22.828
18860W        W19725   3.238  18.802  22.447
18861W        W19726   1.377  18.321  24.850
18862W        W19727   3.083  21.123  23.308
18863W        W19728   3.112  19.679  23.213
18864W        W19729   1.229  19.352  23.429
18865W        W19730   1.474  19.614  24.753
18866W        W19731   2.585  20.767  24.616
18867W        W19732   1.235  19.221  24.728
18868W        W19733   1.214  21.687  23.344
18869W        W19734   0.531  21.646  24.978
18870W        W19735   0.643  21.007  22.108
18871W        W19736   3.160  20.765  22.918
18872W        W19737   0.764  19.557  24.804
18873W        W19738   3.537  19.487  22.285
18874W        W19739   1.282  20.544  22.756
18875W        W19740   2.381  19.926  24.837
18876W        W19741   2.272  19.554  24.381
18877W        W19742   0.832  19.926  24.410
18878W        W19743   3.042  21.814  24.239
18879W        W19744   2.833  18.448  25.233
18880W        W19745   0.497  18.598  24.820
18881W        W19746   0.836  19.621  23.873
18882W        W19747   1.205  19.435  21.995
18883W        W19748   0.008  21.194  24.540
18884W        W19749   1.593  19.903  23.983
18885W        W19750   1.416  18.928  22.088
18886W        W19751   0.551  19.744  22.869
18887W        W19752   0.322  21.596  24.306
18888W        W19753   3.117  19.822  22.414
18889W        W19754   3.212  18.738  25.100
18890W        W19755   2.648  20.947  23.063
18891W        W19756   0.246  19.871  25.240
18892W        W19757   3.212  18.335  22.536
18893W        W19758   2.732  20.810  22.547
18894W        W19759   1.634  19.868  22.632
18895W        W19760   2.821  18.672  22.155
18896W        W19761   2.886  19.279  24.341
18897W        W19762   0.595  19.872  23.548
18898W        W19763   0.889  20.811  23.197
18899W        W19764   2.652  19.431  23.162
18900W        W19765   1.675  18.810  23.858
18901W        W19766   3.637  20.721  24.369
18902W        W19767   3.555  18.708  23.930
18903W        W19768   0.094  21.538  23.306
18904W        W19769   0.603  20.725  22.842
18905W        W19770   0.518  18.342  25.395
18906W        W19771   1.637  21.195  25.497
18907W        W19772   3.392  20.163  23.287
18908W        W19773   2.746  20.340  22.167
18909W        W19774   2.041  21.861  24.379
18910W        W19775   2.898  20.583  25.416
18911W        W19776   1.713  18.293  22.696
18912W        W19777   2.426  19.162  23.555
18913W        W19778   0.112  20.749  23.887
18914W        W19779   1.365  18.711  22.528
18915W        W19780   1.169  20.195  25.377
18916W        W19781   2.163  19.176  23.091
18917W        W19782   2.368  20.586  24.213
18918W        W19783   0.522  21.191  24.648
18919W        W19784   1.113  21.174  25.371
18920W        W19785   0.964  18.971  22.385
18921W        W19786   2.481  19.113  22.710
18922W        W19787   2.439  21.221  24.947
18923W        W19788   1.124  19.813  23.546
18924W        W19789   0.779  21.511  24.411
18925W        W19790   3.524  21.628  22.012
18926W        W19791   0.387  20.300  25.008
18927W        W19792   2.382  20.562  23.696
18928W        W19793   0.818  20.211  22.938
18929W        W19794   1.189  21.218  24.333
18930W        W19795   1.567  18.637  23.374
18931W        W19796   0.178  20.621  22.304
18932W        W19797   1.697  19.572  22.174
18933W        W19798   0.343  20.121  23.193
18934W        W19799   1.633  18.763  24.657
18935W        W19800   3.305  18.472  22.084
18936W        W19801   3.398  20.218  25.183
18937W        W19802   2.052  21.475  25.335
18938W        W19803   3.610  20.569  24.857
18939W        W19804   3.018  21.367  25.468
18940W        W19805   0.757  21.823  23.946
18941W        W19806   3.616  20.445  22.820
18942W        W19807   2.146  19.712  23.333
18943W        W19808   1.913  18.324  23.223
18944W        W19809   0.972  21.308  23.060
18945W        W19810   1.471  19.049  24.285
18946W        W19811   1.171  18.418  23.754
18947W        W19812   0.234  21.240  22.302
18948W        W19813   2.050  20.604  23.020
18949W        W19814   0.925  21.399  24.899
18950W        W19815   0.402  20.222  22.595
18951W        W19816   0.287  18.765  23.594
18952W        W19817   1.835  20.730  23.651
18953W        W19818   0.087  18.584  22.671
18954W        W19819   2.751  19.790  24.598
18955W        W19820   2.628  19.176  22.170
18956W        W19821   3.145  20.848  23.818
18957W        W19822   1.806  21.332  23.649
18958W        W19823   1.218  21.436  22.560
18959W        W19824   2.500  18.339  21.990
18960W        W19825   0.300  21.599  23.731
18961W        W19826   2.497  19.357  25.366
18962W        W19827   0.480  18.887  25.365
18963W        W19828   0.211  19.487  22.698
18964W        W19829   0.902  19.476  22.423
18965W        W19830   2.665  19.803  25.240
18966W        W19831   1.008  20.084  23.949
18967W        W19832   2.482  18.370  23.069
18968W        W19833   1.613  21.801  23.572
18969W        W19834   2.827  21.263  24.509
18970W        W19835   2.411  21.412  23.620
18971W        W19836   2.430  20.392  23.214
18972W        W19837   1.892  18.617  22.285
18973W        W19838   3.573  18.245  23.007
18974W        W19839   1.261  19.880  22.170
18975W        W19840   3.427  19.217  23.160
18976W        W19841   2.119  20.387  22.037
18977W        W19842   3.055  20.587  24.785
18978W        W19843   2.709  21.288  22.252
18979W        W19844   1.324  18.963  25.158
18980W        W19845   1.144  19.547  24.399
18981W        W19846   3.236  21.042  24.676
18982W        W19847   2.336  18.992  25.053
18983W        W19848   0.180  19.463  24.830
18984W        W19849   1.940  19.940  24.556
18985W        W19850   0.297  20.698  23.213
18986W        W19851   0.444  19.995  24.103
18987W        W19852   2.761  20.281  24.453
18988W        W19853   2.533  21.661  25.264
18989W        W19854   2.429  19.400  24.817
18990W        W19855   2.706  21.454  23.222
18991W        W19856   1.708  21.174  24.545
18992W        W19857   1.193  21.529  23.814
18993W        W19858   2.998  20.700  24.233
18994W        W19859   2.048  20.772  25.370
18995W        W19860   0.653  20.725  23.709
18996W        W19861   2.999  20.484  23.354
18997W        W19862   2.640  21.550  24.105
18998W        W19863   0.618  21.279  23.975
18999W        W19864   1.639  19.331  25.185
19000W        W19865   2.090  21.497  22.696
19001W        W19866   1.398  20.752  25.334
19002W        W19867   1.524  20.990  22.711
19003W        W19868   0.745  19.730  21.970
19004W        W19869   0.084  21.816  28.869
19005W        W19870   0.460  20.709  28.392
19006W        W19871   3.165  20.439  26.162
19007W        W19872   3.295  21.524  28.189
19008W        W19873   1.213  21.515  25.715
19009W        W19874   1.296  19.667  26.698
19010W        W19875   0.811  19.515  26.862
19011W        W19876   1.802  20.330  26.296
19012W        W19877   1.477  21.422  28.651
19013W        W19878   0.126  18.983  28.614
19014W        W19879   0.888  18.263  28.416
19015W        W19880   2.582  18.651  27.303
19016W        W19881   2.231  19.522  25.873
19017W        W19882   2.801  18.956  28.964
19018W        W19883   0.167  18.748  28.089
19019W        W19884   0.266  21.367  29.110
19020W        W19885   1.788  20.757  25.842
19021W        W19886   0.220  19.540  27.535
19022W        W19887   1.113  19.431  28.772
19023W        W19888   3.572  19.290  27.271
19024W        W19889   3.336  20.333  28.130
19025W        W19890   1.644  19.666  27.157
19026W        W19891   2.190  21.005  27.526
19027W        W19892   0.690  20.439  27.758
19028W        W19893   0.049  19.967  27.329
19029W        W19894   1.085  19.939  28.521
19030W        W19895   3.356  19.722  28.775
19031W        W19896   0.972  21.166  27.220
19032W        W19897   2.093  20.855  28.354
19033W        W19898   1.313  19.495  27.579
19034W        W19899   1.605  20.279  27.222
19035W        W19900   2.602  21.052  29.070
19036W        W19901   1.681  20.372  29.080
19037W        W19902   1.662  20.088  28.558
19038W        W19903   0.071  19.479  29.080
19039W        W19904   2.903  21.014  28.679
19040W        W19905   0.484  18.596  26.677
19041W        W19906   1.011  20.854  27.676
19042W        W19907   3.474  20.637  26.966
19043W        W19908   2.887  19.037  27.533
19044W        W19909   3.172  18.990  25.628
19045W        W19910   3.637  19.791  27.934
19046W        W19911   1.604  21.498  27.687
19047W        W19912   3.378  20.964  26.125
19048W        W19913   0.507  21.750  25.879
19049W        W19914   0.900  21.796  26.555
19050W        W19915   0.697  18.550  27.981
19051W        W19916   3.320  19.568  28.256
19052W        W19917   2.725  19.990  26.715
19053W        W19918   2.691  19.678  25.742
19054W        W19919   1.899  20.822  27.882
19055W        W19920   1.705  19.152  27.081
19056W        W19921   2.305  21.239  28.075
19057W        W19922   3.176  20.030  26.497
19058W        W19923   2.078  18.688  26.513
19059W        W19924   0.735  21.382  26.196
19060W        W19925   0.106  18.881  26.795
19061W        W19926   2.892  19.488  27.269
19062W        W19927   0.350  21.105  27.184
19063W        W19928   1.691  21.455  26.054
19064W        W19929   3.083  19.481  25.518
19065W        W19930   0.106  21.239  27.682
19066W        W19931   0.897  20.811  28.162
19067W        W19932   1.270  20.171  26.781
19068W        W19933   1.292  18.576  27.874
19069W        W19934   3.521  18.338  27.171
19070W        W19935   0.740  20.210  25.639
19071W        W19936   0.395  19.243  25.818
19072W        W19937   0.457  21.199  26.612
19073W        W19938   1.588  20.682  26.860
19074W        W19939   2.920  21.541  28.574
19075W        W19940   1.846  19.183  26.258
19076W        W19941   3.229  21.581  27.030
19077W        W19942   2.906  19.434  28.628
19078W        W19943   3.619  21.090  26.762
19079W        W19944   2.246  20.382  28.246
19080W        W19945   0.012  19.933  26.452
19081W        W19946   1.123  20.348  28.025
19082W        W19947   2.327  19.612  26.403
19083W        W19948   2.204  20.102  26.507
19084W        W19949   0.547  19.522  27.981
19085W        W19950   0.532  19.398  28.903
19086W        W19951   0.422  18.315  27.062
19087W        W19952   2.190  18.662  27.623
19088W        W19953   1.838  18.847  28.786
19089W        W19954   2.193  18.996  25.964
19090W        W19955   3.376  21.389  28.718
19091W        W19956   2.343  18.470  28.757
19092W        W19957   3.362  20.771  28.879
19093W        W19958   2.792  18.938  28.475
19094W        W19959   2.592  18.876  26.745
19095W        W19960   2.985  20.010  29.149
19096W        W19961   0.725  21.586  27.135
19097W        W19962   1.383  19.303  26.121
19098W        W19963   0.952  18.587  28.785
19099W        W19964   3.004  19.071  26.466
19100W        W19965   3.371  19.553  26.411
19101W        W19966   1.114  21.770  28.882
19102W        W19967   1.040  18.306  26.117
19103W        W19968   3.361  18.840  27.152
19104W        W19969   3.511  21.089  25.597
19105W        W19970   0.418  20.292  27.299
19106W        W19971   2.335  18.879  25.529
19107W        W19972   3.469  21.211  27.249
19108W        W19973   3.508  18.405  27.999
19109W        W19974   1.953  19.617  28.553
19110W        W19975   2.046  20.956  26.256
19111W        W19976   2.446  20.250  28.996
19112W        W19977   2.120  18.227  27.305
19113W        W19978   0.732  19.130  27.368
19114W        W19979   0.286  20.330  28.142
19115W        W19980   2.145  21.523  26.848
19116W        W19981   3.339  19.120  27.720
19117W        W19982   1.976  21.467  28.487
19118W        W19983   3.319  20.526  25.692
19119W        W19984   1.754  20.009  26.753
19120W        W19985   3.606  18.520  28.494
19121W        W19986   1.755  20.355  28.088
19122W        W19987   1.972  19.241  27.533
19123W        W19988   2.824  19.539  26.371
19124W        W19989   3.111  19.272  26.013
19125W        W19990   2.920  21.312  26.402
19126W        W19991   2.754  20.915  27.198
19127W        W19992   2.650  19.994  26.176
19128W        W19993   2.083  20.204  27.162
19129W        W19994   2.964  19.992  27.229
19130W        W19995   0.339  19.007  27.653
19131W        W19996   3.117  20.059  28.480
19132W        W19997   3.468  21.677  27.626
19133W        W19998   1.398  21.121  27.028
19134W        W19999   2.405  21.654  28.352
19135W        W20000   2.399  18.984  28.116
19136W        W20001   1.606  21.692  28.177
19137W        W20002   3.303  18.646  26.643
19138W        W20003   3.094  19.965  27.944
19139W        W20004   0.077  19.286  27.982
19140W        W20005   2.937  19.081  27.000
19141W        W20006   3.348  19.232  28.777
19142W        W20007   2.233  20.931  26.995
19143W        W20008   1.489  21.522  26.608
19144W        W20009   0.604  18.702  25.866
19145W        W20010   1.708  18.356  27.676
19146W        W20011   0.736  21.476  25.524
19147W        W20012   1.110  19.942  26.275
19148W        W20013   1.764  20.571  28.588
19149W        W20014   1.594  18.929  26.578
19150W        W20015   2.950  18.526  27.006
19151W        W20016   2.670  21.808  27.334
19152W        W20017   2.082  21.456  27.674
19153W        W20018   1.478  20.493  27.635
19154W        W20019   3.248  21.216  27.761
19155W        W20020   0.942  18.719  26.530
19156W        W20021   1.464  21.016  27.490
19157W        W20022   0.947  18.947  25.555
19158W        W20023   1.748  19.556  27.949
19159W        W20024   2.596  18.422  27.819
19160W        W20025   0.016  20.265  27.704
19161W        W20026   1.720  20.083  25.862
19162W        W20027   0.988  18.398  25.632
19163W        W20028   1.726  19.479  26.683
19164W        W20029   2.696  18.455  28.382
19165W        W20030   1.284  20.467  28.491
19166W        W20031   2.088  20.249  28.708
19167W        W20032   2.705  20.279  28.601
19168W        W20033   1.989  18.419  29.106
19169W        W20034   1.211  19.035  27.499
19170W        W20035   0.637  18.991  26.897
19171W        W20036   0.423  21.703  26.573
19172W        W20037   1.755  21.033  28.698
19173W        W20038   0.790  20.518  26.057
19174W        W20039   2.470  19.903  27.278
19175W        W20040   2.750  19.702  27.677
19176W        W20041   1.955  20.376  27.611
19177W        W20042   2.425  20.750  25.743
19178W        W20043   2.097  18.771  27.071
19179W        W20044   3.576  19.049  26.339
19180W        W20045   0.070  21.638  28.370
19181W        W20046   0.487  20.864  27.902
19182W        W20047   0.054  21.710  26.134
19183W        W20048   1.953  18.980  27.940
19184W        W20049   1.316  21.003  25.789
19185W        W20050   3.221  21.385  25.975
19186W        W20051   2.196  20.038  25.989
19187W        W20052   1.039  19.229  26.506
19188W        W20053   1.871  19.139  25.558
19189W        W20054   2.455  20.704  28.736
19190W        W20055   2.808  18.610  26.353
19191W        W20056   0.138  18.458  25.801
19192W        W20057   1.424  20.777  28.091
19193W        W20058   1.223  20.693  27.183
19194W        W20059   0.965  20.645  25.581
19195W        W20060   0.206  20.886  26.349
19196W        W20061   0.710  19.956  28.791
19197W        W20062   1.414  18.516  28.977
19198W        W20063   2.123  18.658  28.333
19199W        W20064   1.318  18.426  26.614
19200W        W20065   2.377  18.503  26.119
19201W        W20066   0.322  18.435  27.696
19202W        W20067   0.370  19.398  27.066
19203W        W20068   3.059  18.506  27.472
19204W        W20069   0.481  19.004  26.286
19205W        W20070   3.052  18.692  27.902
19206W        W20071   3.448  19.895  25.587
19207W        W20072   0.740  18.653  27.406
19208W        W20073   1.854  19.225  28.346
19209W        W20074   0.002  18.915  25.824
19210W        W20075   0.788  20.304  28.385
19211W        W20076   2.146  19.702  27.564
19212W        W20077   2.013  21.781  25.860
19213W        W20078   0.159  20.288  25.557
19214W        W20079   0.894  20.699  28.683
19215W        W20080   0.415  19.866  28.314
19216W        W20081   1.406  19.971  28.108
19217W        W20082   3.174  18.330  28.370
19218W        W20083   3.572  19.940  28.361
19219W        W20084   3.560  20.140  26.047
19220W        W20085   2.423  20.472  26.146
19221W        W20086   2.897  21.772  25.841
19222W        W20087   2.074  19.762  28.983
19223W        W20088   0.404  20.729  29.023
19224W        W20089   3.610  18.651  28.975
19225W        W20090   3.328  19.579  27.596
19226W        W20091   1.636  21.709  29.073
19227W        W20092   1.491  18.338  25.800
19228W        W20093   3.030  20.937  25.743
19229W        W20094   0.799  19.030  28.629
19230W        W20095   1.233  21.024  28.491
19231W        W20096   3.359  19.015  28.289
19232W        W20097   2.570  21.674  26.257
19233W        W20098   2.809  20.293  27.624
19234W        W20099   1.059  18.709  28.291
19235W        W20100   1.528  19.778  29.048
19236W        W20101   1.031  20.957  26.242
19237W        W20102   2.786  20.455  26.506
19238W        W20103   0.554  19.081  28.230
19239W        W20104   1.883  21.143  26.694
19240W        W20105   3.633  19.703  26.875
19241W        W20106   1.855  18.336  28.594
19242W        W20107   2.635  21.041  27.673
19243W        W20108   2.938  21.385  27.381
19244W        W20109   2.157  21.187  25.809
19245W        W20110   0.167  21.079  28.651
19246W        W20111   0.910  19.071  27.889
19247W        W20112   0.880  18.419  26.999
19248W        W20113   2.501  19.261  27.691
19249W        W20114   1.299  20.432  25.891
19250W        W20115   3.297  20.374  27.390
19251W        W20116   0.624  21.132  28.813
19252W        W20117   3.011  21.814  26.610
19253W        W20118   1.110  18.834  27.055
19254W        W20119   0.879  20.327  27.145
19255W        W20120   1.192  21.738  27.895
19256W        W20121   3.259  21.834  28.927
19257W        W20122   2.418  20.022  27.860
19258W        W20123   0.267  19.820  25.775
19259W        W20124   3.401  21.478  26.472
19260W        W20125   3.238  18.802  26.091
19261W        W20126   1.377  18.321  28.494
19262W        W20127   3.083  21.123  26.952
19263W        W20128   3.112  19.679  26.857
19264W        W20129   1.229  19.352  27.073
19265W        W20130   1.474  19.614  28.397
19266W        W20131   2.585  20.767  28.260
19267W        W20132   1.235  19.221  28.372
19268W        W20133   1.214  21.687  26.988
19269W        W20134   0.531  21.646  28.622
19270W        W20135   0.643  21.007  25.752
19271W        W20136   3.160  20.765  26.562
19272W        W20137   0.764  19.557  28.448
19273W        W20138   3.537  19.487  25.929
19274W        W20139   1.282  20.544  26.400
19275W        W20140   2.381  19.926  28.481
19276W        W20141   2.272  19.554  28.025
19277W        W20142   0.832  19.926  28.054
19278W        W20143   3.042  21.814  27.883
19279W        W20144   2.833  18.448  28.877
19280W        W20145   0.497  18.598  28.464
19281W        W20146   0.836  19.621  27.517
19282W        W20147   1.205  19.435  25.639
19283W        W20148   0.008  21.194  28.184
19284W        W20149   1.593  19.903  27.627
19285W        W20150   1.416  18.928  25.732
19286W        W20151   0.551  19.744  26.513
19287W        W20152   0.322  21.596  27.950
19288W        W20153   3.117  19.822  26.058
19289W        W20154   3.212  18.738  28.744
19290W        W20155   2.648  20.947  26.707
19291W        W20156   0.246  19.871  28.884
19292W        W20157   3.212  18.335  26.180
19293W        W20158   2.732  20.810  26.191
19294W        W20159   1.634  19.868  26.276
19295W        W20160   2.821  18.672  25.799
19296W        W20161   2.886  19.279  27.985
19297W        W20162   0.595  19.872  27.192
19298W        W20163   0.889  20.811  26.841
19299W        W20164   2.652  19.431  26.806
19300W        W20165   1.675  18.810  27.502
19301W        W20166   3.637  20.721  28.013
19302W        W20167   3.555  18.708  27.574
19303W        W20168   0.094  21.538  26.950
19304W        W20169   0.603  20.725  26.486
19305W        W20170   0.518  18.342  29.039
19306W        W20171   1.637  21.195  29.141
19307W        W20172   3.392  20.163  26.931
19308W        W20173   2.746  20.340  25.811
19309W        W20174   2.041  21.861  28.023
19310W        W20175   2.898  20.583  29.060
19311W        W20176   1.713  18.293  26.340
19312W        W20177   2.426  19.162  27.199
19313W        W20178   0.112  20.749  27.531
19314W        W20179   1.365  18.711  26.172
19315W        W20180   1.169  20.195  29.021
19316W        W20181   2.163  19.176  26.735
19317W        W20182   2.368  20.586  27.857
19318W        W20183   0.522  21.191  28.292
19319W        W20184   1.113  21.174  29.015
19320W        W20185   0.964  18.971  26.029
19321W        W20186   2.481  19.113  26.354
19322W        W20187   2.439  21.221  28.591
19323W        W20188   1.124  19.813  27.190
19324W        W20189   0.779  21.511  28.055
19325W        W20190   3.524  21.628  25.656
19326W        W20191   0.387  20.300  28.652
19327W        W20192   2.382  20.562  27.340
19328W        W20193   0.818  20.211  26.582
19329W        W20194   1.189  21.218  27.977
19330W        W20195   1.567  18.637  27.018
19331W        W20196   0.178  20.621  25.948
19332W        W20197   1.697  19.572  25.818
19333W        W20198   0.343  20.121  26.837
19334W        W20199   1.633  18.763  28.301
19335W        W20200   3.305  18.472  25.728
19336W        W20201   3.398  20.218  28.827
19337W        W20202   2.052  21.475  28.979
19338W        W20203   3.610  20.569  28.501
19339W        W20204   3.018  21.367  29.112
19340W        W20205   0.757  21.823  27.590
19341W        W20206   3.616  20.445  26.464
19342W        W20207   2.146  19.712  26.977
19343W        W20208   1.913  18.324  26.867
19344W        W20209   0.972  21.308  26.704
19345W        W20210   1.471  19.049  27.929
19346W        W20211   1.171  18.418  27.398
19347W        W20212   0.234  21.240  25.946
19348W        W20213   2.050  20.604  26.664
19349W        W20214   0.925  21.399  28.543
19350W        W20215   0.402  20.222  26.239
19351W        W20216   0.287  18.765  27.238
19352W        W20217   1.835  20.730  27.295
19353W        W20218   0.087  18.584  26.315
19354W        W20219   2.751  19.790  28.242
19355W        W20220   2.628  19.176  25.814
19356W        W20221   3.145  20.848  27.462
19357W        W20222   1.806  21.332  27.293
19358W        W20223   1.218  21.436  26.204
19359W        W20224   2.500  18.339  25.634
19360W        W20225   0.300  21.599  27.375
19361W        W20226   2.497  19.357  29.010
19362W        W20227   0.480  18.887  29.009
19363W        W20228   0.211  19.487  26.342
19364W        W20229   0.902  19.476  26.067
19365W        W20230   2.665  19.803  28.884
19366W        W20231   1.008  20.084  27.593
19367W        W20232   2.482  18.370  26.713
19368W        W20233   1.613  21.801  27.216
19369W        W20234   2.827  21.263  28.153
19370W        W20235   2.411  21.412  27.264
19371W        W20236   2.430  20.392  26.858
19372W        W20237   1.892  18.617  25.929
19373W        W20238   3.573  18.245  26.651
19374W        W20239   1.261  19.880  25.814
19375W        W20240   3.427  19.217  26.804
19376W        W20241   2.119  20.387  25.681
19377W        W20242   3.055  20.587  28.429
19378W        W20243   2.709  21.288  25.896
19379W        W20244   1.324  18.963  28.802
19380W        W20245   1.144  19.547  28.043
19381W        W20246   3.236  21.042  28.320
19382W        W20247   2.336  18.992  28.697
19383W        W20248   0.180  19.463  28.474
19384W        W20249   1.940  19.940  28.200
19385W        W20250   0.297  20.698  26.857
19386W        W20251   0.444  19.995  27.747
19387W        W20252   2.761  20.281  28.097
19388W        W20253   2.533  21.661  28.908
19389W        W20254   2.429  19.400  28.461
19390W        W20255   2.706  21.454  26.866
19391W        W20256   1.708  21.174  28.189
19392W        W20257   1.193  21.529  27.458
19393W        W20258   2.998  20.700  27.877
19394W        W20259   2.048  20.772  29.014
19395W        W20260   0.653  20.725  27.353
19396W        W20261   2.999  20.484  26.998
19397W        W20262   2.640  21.550  27.749
19398W        W20263   0.618  21.279  27.619
19399W        W20264   1.639  19.331  28.829
19400W        W20265   2.090  21.497  26.340
19401W        W20266   1.398  20.752  28.978
19402W        W20267   1.524  20.990  26.355
19403W        W20268   0.745  19.730  25.614
19404W        W20269   0.084  25.461   3.359
19405W        W20270   0.460  24.354   2.882
19406W        W20271   3.165  24.084   0.652
19407W        W20272   3.295  25.169   2.679
19408W        W20273   1.213  25.160   0.205
19409W        W20274   1.296  23.312   1.188
19410W        W20275   0.811  23.160   1.352
19411W        W20276   1.802  23.975   0.786
19412W        W20277   1.477  25.067   3.141
19413W        W20278   0.126  22.628   3.104
19414W        W20279   0.888  21.908   2.906
19415W        W20280   2.582  22.296   1.793
19416W        W20281   2.231  23.167   0.363
19417W        W20282   2.801  22.601   3.454
19418W        W20283   0.167  22.393   2.579
19419W        W20284   0.266  25.012   3.600
19420W        W20285   1.788  24.402   0.332
19421W        W20286   0.220  23.185   2.025
19422W        W20287   1.113  23.076   3.262
19423W        W20288   3.572  22.935   1.761
19424W        W20289   3.336  23.978   2.620
19425W        W20290   1.644  23.311   1.647
19426W        W20291   2.190  24.650   2.016
19427W        W20292   0.690  24.084   2.248
19428W        W20293   0.049  23.612   1.819
19429W        W20294   1.085  23.584   3.011
19430W        W20295   3.356  23.367   3.265
19431W        W20296   0.972  24.811   1.710
19432W        W20297   2.093  24.500   2.844
19433W        W20298   1.313  23.140   2.069
19434W        W20299   1.605  23.924   1.712
19435W        W20300   2.602  24.697   3.560
19436W        W20301   1.681  24.017   3.570
19437W        W20302   1.662  23.733   3.048
19438W        W20303   0.071  23.124   3.570
19439W        W20304   2.903  24.659   3.169
19440W        W20305   0.484  22.241   1.167
19441W        W20306   1.011  24.499   2.166
19442W        W20307   3.474  24.282   1.456
19443W        W20308   2.887  22.682   2.023
19444W        W20309   3.172  22.635   0.118
19445W        W20310   3.637  23.436   2.424
19446W        W20311   1.604  25.143   2.177
19447W        W20312   3.378  24.609   0.615
19448W        W20313   0.507  25.395   0.369
19449W        W20314   0.900  25.441   1.045
19450W        W20315   0.697  22.195   2.471
19451W        W20316   3.320  23.213   2.746
19452W        W20317   2.725  23.635   1.205
19453W        W20318   2.691  23.323   0.232
19454W        W20319   1.899  24.467   2.372
19455W        W20320   1.705  22.797   1.571
19456W        W20321   2.305  24.884   2.565
19457W        W20322   3.176  23.675   0.987
19458W        W20323   2.078  22.333   1.003
19459W        W20324   0.735  25.027   0.686
19460W        W20325   0.106  22.526   1.285
19461W        W20326   2.892  23.133   1.759
19462W        W20327   0.350  24.750   1.674
19463W        W20328   1.691  25.100   0.544
19464W        W20329   3.083  23.126   0.008
19465W        W20330   0.106  24.884   2.172
19466W        W20331   0.897  24.456   2.652
19467W        W20332   1.270  23.816   1.271
19468W        W20333   1.292  22.221   2.364
19469W        W20334   3.521  21.983   1.661
19470W        W20335   0.740  23.855   0.129
19471W        W20336   0.395  22.888   0.308
19472W        W20337   0.457  24.844   1.102
19473W        W20338   1.588  24.327   1.350
19474W        W20339   2.920  25.186   3.064
19475W        W20340   1.846  22.828   0.748
19476W        W20341   3.229  25.226   1.520
19477W        W20342   2.906  23.079   3.118
19478W        W20343   3.619  24.735   1.252
19479W        W20344   2.246  24.027   2.736
19480W        W20345   0.012  23.578   0.942
19481W        W20346   1.123  23.993   2.515
19482W        W20347   2.327  23.257   0.893
19483W        W20348   2.204  23.747   0.997
19484W        W20349   0.547  23.167   2.471
19485W        W20350   0.532  23.043   3.393
19486W        W20351   0.422  21.960   1.552
19487W        W20352   2.190  22.307   2.113
19488W        W20353   1.838  22.492   3.276
19489W        W20354   2.193  22.641   0.454
19490W        W20355   3.376  25.034   3.208
19491W        W20356   2.343  22.115   3.247
19492W        W20357   3.362  24.416   3.369
19493W        W20358   2.792  22.583   2.965
19494W        W20359   2.592  22.521   1.235
19495W        W20360   2.985  23.655   3.639
19496W        W20361   0.725  25.231   1.625
19497W        W20362   1.383  22.948   0.611
19498W        W20363   0.952  22.232   3.275
19499W        W20364   3.004  22.716   0.956
19500W        W20365   3.371  23.198   0.901
19501W        W20366   1.114  25.415   3.372
19502W        W20367   1.040  21.951   0.607
19503W        W20368   3.361  22.485   1.642
19504W        W20369   3.511  24.734   0.087
19505W        W20370   0.418  23.937   1.789
19506W        W20371   2.335  22.524   0.019
19507W        W20372   3.469  24.856   1.739
19508W        W20373   3.508  22.050   2.489
19509W        W20374   1.953  23.262   3.043
19510W        W20375   2.046  24.601   0.746
19511W        W20376   2.446  23.895   3.486
19512W        W20377   2.120  21.872   1.795
19513W        W20378   0.732  22.775   1.858
19514W        W20379   0.286  23.975   2.632
19515W        W20380   2.145  25.168   1.338
19516W        W20381   3.339  22.765   2.210
19517W        W20382   1.976  25.112   2.977
19518W        W20383   3.319  24.171   0.182
19519W        W20384   1.754  23.654   1.243
19520W        W20385   3.606  22.165   2.984
19521W        W20386   1.755  24.000   2.578
19522W        W20387   1.972  22.886   2.023
19523W        W20388   2.824  23.184   0.861
19524W        W20389   3.111  22.917   0.503
19525W        W20390   2.920  24.957   0.892
19526W        W20391   2.754  24.560   1.688
19527W        W20392   2.650  23.639   0.666
19528W        W20393   2.083  23.849   1.652
19529W        W20394   2.964  23.637   1.719
19530W        W20395   0.339  22.652   2.143
19531W        W20396   3.117  23.704   2.970
19532W        W20397   3.468  25.322   2.116
19533W        W20398   1.398  24.766   1.518
19534W        W20399   2.405  25.299   2.842
19535W        W20400   2.399  22.629   2.606
19536W        W20401   1.606  25.337   2.667
19537W        W20402   3.303  22.291   1.133
19538W        W20403   3.094  23.610   2.434
19539W        W20404   0.077  22.931   2.472
19540W        W20405   2.937  22.726   1.490
19541W        W20406   3.348  22.877   3.267
19542W        W20407   2.233  24.576   1.485
19543W        W20408   1.489  25.167   1.098
19544W        W20409   0.604  22.347   0.356
19545W        W20410   1.708  22.001   2.166
19546W        W20411   0.736  25.121   0.014
19547W        W20412   1.110  23.587   0.765
19548W        W20413   1.764  24.216   3.078
19549W        W20414   1.594  22.574   1.068
19550W        W20415   2.950  22.171   1.496
19551W        W20416   2.670  25.453   1.824
19552W        W20417   2.082  25.101   2.164
19553W        W20418   1.478  24.138   2.125
19554W        W20419   3.248  24.861   2.251
19555W        W20420   0.942  22.364   1.020
19556W        W20421   1.464  24.661   1.980
19557W        W20422   0.947  22.592   0.045
19558W        W20423   1.748  23.201   2.439
19559W        W20424   2.596  22.067   2.309
19560W        W20425   0.016  23.910   2.194
19561W        W20426   1.720  23.728   0.352
19562W        W20427   0.988  22.043   0.122
19563W        W20428   1.726  23.124   1.173
19564W        W20429   2.696  22.100   2.872
19565W        W20430   1.284  24.112   2.981
19566W        W20431   2.088  23.894   3.198
19567W        W20432   2.705  23.924   3.091
19568W        W20433   1.989  22.064   3.596
19569W        W20434   1.211  22.680   1.989
19570W        W20435   0.637  22.636   1.387
19571W        W20436   0.423  25.348   1.063
19572W        W20437   1.755  24.678   3.188
19573W        W20438   0.790  24.163   0.547
19574W        W20439   2.470  23.548   1.768
19575W        W20440   2.750  23.347   2.167
19576W        W20441   1.955  24.021   2.101
19577W        W20442   2.425  24.395   0.233
19578W        W20443   2.097  22.416   1.561
19579W        W20444   3.576  22.694   0.829
19580W        W20445   0.070  25.283   2.860
19581W        W20446   0.487  24.509   2.392
19582W        W20447   0.054  25.355   0.624
19583W        W20448   1.953  22.625   2.430
19584W        W20449   1.316  24.648   0.279
19585W        W20450   3.221  25.030   0.465
19586W        W20451   2.196  23.683   0.479
19587W        W20452   1.039  22.874   0.996
19588W        W20453   1.871  22.784   0.048
19589W        W20454   2.455  24.349   3.226
19590W        W20455   2.808  22.255   0.843
19591W        W20456   0.138  22.103   0.291
19592W        W20457   1.424  24.422   2.581
19593W        W20458   1.223  24.338   1.673
19594W        W20459   0.965  24.290   0.071
19595W        W20460   0.206  24.531   0.839
19596W        W20461   0.710  23.601   3.281
19597W        W20462   1.414  22.161   3.467
19598W        W20463   2.123  22.303   2.823
19599W        W20464   1.318  22.071   1.104
19600W        W20465   2.377  22.148   0.609
19601W        W20466   0.322  22.080   2.186
19602W        W20467   0.370  23.043   1.556
19603W        W20468   3.059  22.151   1.962
19604W        W20469   0.481  22.649   0.776
19605W        W20470   3.052  22.337   2.392
19606W        W20471   3.448  23.540   0.077
19607W        W20472   0.740  22.298   1.896
19608W        W20473   1.854  22.870   2.836
19609W        W20474   0.002  22.560   0.314
19610W        W20475   0.788  23.949   2.875
19611W        W20476   2.146  23.347   2.054
19612W        W20477   2.013  25.426   0.350
19613W        W20478   0.159  23.933   0.047
19614W        W20479   0.894  24.344   3.173
19615W        W20480   0.415  23.511   2.804
19616W        W20481   1.406  23.616   2.598
19617W        W20482   3.174  21.975   2.860
19618W        W20483   3.572  23.585   2.851
19619W        W20484   3.560  23.785   0.537
19620W        W20485   2.423  24.117   0.636
19621W        W20486   2.897  25.417   0.331
19622W        W20487   2.074  23.407   3.473
19623W        W20488   0.404  24.374   3.513
19624W        W20489   3.610  22.296   3.465
19625W        W20490   3.328  23.224   2.086
19626W        W20491   1.636  25.354   3.563
19627W        W20492   1.491  21.983   0.290
19628W        W20493   3.030  24.582   0.233
19629W        W20494   0.799  22.675   3.119
19630W        W20495   1.233  24.669   2.981
19631W        W20496   3.359  22.660   2.779
19632W        W20497   2.570  25.319   0.747
19633W        W20498   2.809  23.938   2.114
19634W        W20499   1.059  22.354   2.781
19635W        W20500   1.528  23.423   3.538
19636W        W20501   1.031  24.602   0.732
19637W        W20502   2.786  24.100   0.996
19638W        W20503   0.554  22.726   2.720
19639W        W20504   1.883  24.788   1.184
19640W        W20505   3.633  23.348   1.365
19641W        W20506   1.855  21.981   3.084
19642W        W20507   2.635  24.686   2.163
19643W        W20508   2.938  25.030   1.871
19644W        W20509   2.157  24.832   0.299
19645W        W20510   0.167  24.724   3.141
19646W        W20511   0.910  22.716   2.379
19647W        W20512   0.880  22.064   1.489
19648W        W20513   2.501  22.906   2.181
19649W        W20514   1.299  24.077   0.381
19650W        W20515   3.297  24.019   1.880
19651W        W20516   0.624  24.777   3.303
19652W        W20517   3.011  25.459   1.100
19653W        W20518   1.110  22.479   1.545
19654W        W20519   0.879  23.972   1.635
19655W        W20520   1.192  25.383   2.385
19656W        W20521   3.259  25.479   3.417
19657W        W20522   2.418  23.667   2.350
19658W        W20523   0.267  23.465   0.265
19659W        W20524   3.401  25.123   0.962
19660W        W20525   3.238  22.447   0.581
19661W        W20526   1.377  21.966   2.984
19662W        W20527   3.083  24.768   1.442
19663W        W20528   3.112  23.324   1.347
19664W        W20529   1.229  22.997   1.563
19665W        W20530   1.474  23.259   2.887
19666W        W20531   2.585  24.412   2.750
19667W        W20532   1.235  22.866   2.862
19668W        W20533   1.214  25.332   1.478
19669W        W20534   0.531  25.291   3.112
19670W        W20535   0.643  24.652   0.242
19671W        W20536   3.160  24.410   1.052
19672W        W20537   0.764  23.202   2.938
19673W        W20538   3.537  23.132   0.419
19674W        W20539   1.282  24.189   0.890
19675W        W20540   2.381  23.571   2.971
19676W        W20541   2.272  23.199   2.515
19677W        W20542   0.832  23.571   2.544
19678W        W20543   3.042  25.459   2.373
19679W        W20544   2.833  22.093   3.367
19680W        W20545   0.497  22.243   2.954
19681W        W20546   0.836  23.266   2.007
19682W        W20547   1.205  23.080   0.129
19683W        W20548   0.008  24.839   2.674
19684W        W20549   1.593  23.548   2.117
19685W        W20550   1.416  22.573   0.222
19686W        W20551   0.551  23.389   1.003
19687W        W20552   0.322  25.241   2.440
19688W        W20553   3.117  23.467   0.548
19689W        W20554   3.212  22.383   3.234
19690W        W20555   2.648  24.592   1.197
19691W        W20556   0.246  23.516   3.374
19692W        W20557   3.212  21.980   0.670
19693W        W20558   2.732  24.455   0.681
19694W        W20559   1.634  23.513   0.766
19695W        W20560   2.821  22.317   0.289
19696W        W20561   2.886  22.924   2.475
19697W        W20562   0.595  23.517   1.682
19698W        W20563   0.889  24.456   1.331
19699W        W20564   2.652  23.076   1.296
19700W        W20565   1.675  22.455   1.992
19701W        W20566   3.637  24.366   2.503
19702W        W20567   3.555  22.353   2.064
19703W        W20568   0.094  25.183   1.440
19704W        W20569   0.603  24.370   0.976
19705W        W20570   0.518  21.987   3.529
19706W        W20571   1.637  24.840   3.631
19707W        W20572   3.392  23.808   1.421
19708W        W20573   2.746  23.985   0.301
19709W        W20574   2.041  25.506   2.513
19710W        W20575   2.898  24.228   3.550
19711W        W20576   1.713  21.938   0.830
19712W        W20577   2.426  22.807   1.689
19713W        W20578   0.112  24.394   2.021
19714W        W20579   1.365  22.356   0.662
19715W        W20580   1.169  23.840   3.511
19716W        W20581   2.163  22.821   1.225
19717W        W20582   2.368  24.231   2.347
19718W        W20583   0.522  24.836   2.782
19719W        W20584   1.113  24.819   3.505
19720W        W20585   0.964  22.616   0.519
19721W        W20586   2.481  22.758   0.844
19722W        W20587   2.439  24.866   3.081
19723W        W20588   1.124  23.458   1.680
19724W        W20589   0.779  25.156   2.545
19725W        W20590   3.524  25.273   0.146
19726W        W20591   0.387  23.945   3.142
19727W        W20592   2.382  24.207   1.830
19728W        W20593   0.818  23.856   1.072
19729W        W20594   1.189  24.863   2.467
19730W        W20595   1.567  22.282   1.508
19731W        W20596   0.178  24.266   0.438
19732W        W20597   1.697  23.217   0.308
19733W        W20598   0.343  23.766   1.327
19734W        W20599   1.633  22.408   2.791
19735W        W20600   3.305  22.117   0.218
19736W        W20601   3.398  23.863   3.317
19737W        W20602   2.052  25.120   3.469
19738W        W20603   3.610  24.214   2.991
19739W        W20604   3.018  25.012   3.602
19740W        W20605   0.757  25.468   2.080
19741W        W20606   3.616  24.090   0.954
19742W        W20607   2.146  23.357   1.467
19743W        W20608   1.913  21.969   1.357
19744W        W20609   0.972  24.953   1.194
19745W        W20610   1.471  22.694   2.419
19746W        W20611   1.171  22.063   1.888
19747W        W20612   0.234  24.885   0.436
19748W        W20613   2.050  24.249   1.154
19749W        W20614   0.925  25.044   3.033
19750W        W20615   0.402  23.867   0.729
19751W        W20616   0.287  22.410   1.728
19752W        W20617   1.835  24.375   1.785
19753W        W20618   0.087  22.229   0.805
19754W        W20619   2.751  23.435   2.732
19755W        W20620   2.628  22.821   0.304
19756W        W20621   3.145  24.493   1.952
19757W        W20622   1.806  24.977   1.783
19758W        W20623   1.218  25.081   0.694
19759W        W20624   2.500  21.984   0.124
19760W        W20625   0.300  25.244   1.865
19761W        W20626   2.497  23.002   3.500
19762W        W20627   0.480  22.532   3.499
19763W        W20628   0.211  23.132   0.832
19764W        W20629   0.902  23.121   0.557
19765W        W20630   2.665  23.448   3.374
19766W        W20631   1.008  23.729   2.083
19767W        W20632   2.482  22.015   1.203
19768W        W20633   1.613  25.446   1.706
19769W        W20634   2.827  24.908   2.643
19770W        W20635   2.411  25.057   1.754
19771W        W20636   2.430  24.037   1.348
19772W        W20637   1.892  22.262   0.419
19773W        W20638   3.573  21.890   1.141
19774W        W20639   1.261  23.525   0.304
19775W        W20640   3.427  22.862   1.294
19776W        W20641   2.119  24.032   0.171
19777W        W20642   3.055  24.232   2.919
19778W        W20643   2.709  24.933   0.386
19779W        W20644   1.324  22.608   3.292
19780W        W20645   1.144  23.192   2.533
19781W        W20646   3.236  24.687   2.810
19782W        W20647   2.336  22.637   3.187
19783W        W20648   0.180  23.108   2.964
19784W        W20649   1.940  23.585   2.690
19785W        W20650   0.297  24.343   1.347
19786W        W20651   0.444  23.640   2.237
19787W        W20652   2.761  23.926   2.587
19788W        W20653   2.533  25.306   3.398
19789W        W20654   2.429  23.045   2.951
19790W        W20655   2.706  25.099   1.356
19791W        W20656   1.708  24.819   2.679
19792W        W20657   1.193  25.174   1.948
19793W        W20658   2.998  24.345   2.367
19794W        W20659   2.048  24.417   3.504
19795W        W20660   0.653  24.370   1.843
19796W        W20661   2.999  24.129   1.488
19797W        W20662   2.640  25.195   2.239
19798W        W20663   0.618  24.924   2.109
19799W        W20664   1.639  22.976   3.319
19800W        W20665   2.090  25.142   0.830
19801W        W20666   1.398  24.397   3.468
19802W        W20667   1.524  24.635   0.845
19803W        W20668   0.745  23.375   0.104
19804W        W20669   0.084  25.461   7.003
19805W        W20670   0.460  24.354   6.526
19806W        W20671   3.165  24.084   4.296
19807W        W20672   3.295  25.169   6.323
19808W        W20673   1.213  25.160   3.849
19809W        W20674   1.296  23.312   4.832
19810W        W20675   0.811  23.160   4.996
19811W        W20676   1.802  23.975   4.430
19812W        W20677   1.477  25.067   6.785
19813W        W20678   0.126  22.628   6.748
19814W        W20679   0.888  21.908   6.550
19815W        W20680   2.582  22.296   5.437
19816W        W20681   2.231  23.167   4.007
19817W        W20682   2.801  22.601   7.098
19818W        W20683   0.167  22.393   6.223
19819W        W20684   0.266  25.012   7.244
19820W        W20685   1.788  24.402   3.976
19821W        W20686   0.220  23.185   5.669
19822W        W20687   1.113  23.076   6.906
19823W        W20688   3.572  22.935   5.405
19824W        W20689   3.336  23.978   6.264
19825W        W20690   1.644  23.311   5.291
19826W        W20691   2.190  24.650   5.660
19827W        W20692   0.690  24.084   5.892
19828W        W20693   0.049  23.612   5.463
19829W        W20694   1.085  23.584   6.655
19830W        W20695   3.356  23.367   6.909
19831W        W20696   0.972  24.811   5.354
19832W        W20697   2.093  24.500   6.488
19833W        W20698   1.313  23.140   5.713
19834W        W20699   1.605  23.924   5.356
19835W        W20700   2.602  24.697   7.204
19836W        W20701   1.681  24.017   7.214
19837W        W20702   1.662  23.733   6.692
19838W        W20703   0.071  23.124   7.214
19839W        W20704   2.903  24.659   6.813
19840W        W20705   0.484  22.241   4.811
19841W        W20706   1.011  24.499   5.810
19842W        W20707   3.474  24.282   5.100
19843W        W20708   2.887  22.682   5.667
19844W        W20709   3.172  22.635   3.762
19845W        W20710   3.637  23.436   6.068
19846W        W20711   1.604  25.143   5.821
19847W        W20712   3.378  24.609   4.259
19848W        W20713   0.507  25.395   4.013
19849W        W20714   0.900  25.441   4.689
19850W        W20715   0.697  22.195   6.115
19851W        W20716   3.320  23.213   6.390
19852W        W20717   2.725  23.635   4.849
19853W        W20718   2.691  23.323   3.876
19854W        W20719   1.899  24.467   6.016
19855W        W20720   1.705  22.797   5.215
19856W        W20721   2.305  24.884   6.209
19857W        W20722   3.176  23.675   4.631
19858W        W20723   2.078  22.333   4.647
19859W        W20724   0.735  25.027   4.330
19860W        W20725   0.106  22.526   4.929
19861W        W20726   2.892  23.133   5.403
19862W        W20727   0.350  24.750   5.318
19863W        W20728   1.691  25.100   4.188
19864W        W20729   3.083  23.126   3.652
19865W        W20730   0.106  24.884   5.816
19866W        W20731   0.897  24.456   6.296
19867W        W20732   1.270  23.816   4.915
19868W        W20733   1.292  22.221   6.008
19869W        W20734   3.521  21.983   5.305
19870W        W20735   0.740  23.855   3.773
19871W        W20736   0.395  22.888   3.952
19872W        W20737   0.457  24.844   4.746
19873W        W20738   1.588  24.327   4.994
19874W        W20739   2.920  25.186   6.708
19875W        W20740   1.846  22.828   4.392
19876W        W20741   3.229  25.226   5.164
19877W        W20742   2.906  23.079   6.762
19878W        W20743   3.619  24.735   4.896
19879W        W20744   2.246  24.027   6.380
19880W        W20745   0.012  23.578   4.586
19881W        W20746   1.123  23.993   6.159
19882W        W20747   2.327  23.257   4.537
19883W        W20748   2.204  23.747   4.641
19884W        W20749   0.547  23.167   6.115
19885W        W20750   0.532  23.043   7.037
19886W        W20751   0.422  21.960   5.196
19887W        W20752   2.190  22.307   5.757
19888W        W20753   1.838  22.492   6.920
19889W        W20754   2.193  22.641   4.098
19890W        W20755   3.376  25.034   6.852
19891W        W20756   2.343  22.115   6.891
19892W        W20757   3.362  24.416   7.013
19893W        W20758   2.792  22.583   6.609
19894W        W20759   2.592  22.521   4.879
19895W        W20760   2.985  23.655   7.283
19896W        W20761   0.725  25.231   5.269
19897W        W20762   1.383  22.948   4.255
19898W        W20763   0.952  22.232   6.919
19899W        W20764   3.004  22.716   4.600
19900W        W20765   3.371  23.198   4.545
19901W        W20766   1.114  25.415   7.016
19902W        W20767   1.040  21.951   4.251
19903W        W20768   3.361  22.485   5.286
19904W        W20769   3.511  24.734   3.731
19905W        W20770   0.418  23.937   5.433
19906W        W20771   2.335  22.524   3.663
19907W        W20772   3.469  24.856   5.383
19908W        W20773   3.508  22.050   6.133
19909W        W20774   1.953  23.262   6.687
19910W        W20775   2.046  24.601   4.390
19911W        W20776   2.446  23.895   7.130
19912W        W20777   2.120  21.872   5.439
19913W        W20778   0.732  22.775   5.502
19914W        W20779   0.286  23.975   6.276
19915W        W20780   2.145  25.168   4.982
19916W        W20781   3.339  22.765   5.854
19917W        W20782   1.976  25.112   6.621
19918W        W20783   3.319  24.171   3.826
19919W        W20784   1.754  23.654   4.887
19920W        W20785   3.606  22.165   6.628
19921W        W20786   1.755  24.000   6.222
19922W        W20787   1.972  22.886   5.667
19923W        W20788   2.824  23.184   4.505
19924W        W20789   3.111  22.917   4.147
19925W        W20790   2.920  24.957   4.536
19926W        W20791   2.754  24.560   5.332
19927W        W20792   2.650  23.639   4.310
19928W        W20793   2.083  23.849   5.296
19929W        W20794   2.964  23.637   5.363
19930W        W20795   0.339  22.652   5.787
19931W        W20796   3.117  23.704   6.614
19932W        W20797   3.468  25.322   5.760
19933W        W20798   1.398  24.766   5.162
19934W        W20799   2.405  25.299   6.486
19935W        W20800   2.399  22.629   6.250
19936W        W20801   1.606  25.337   6.311
19937W        W20802   3.303  22.291   4.777
19938W        W20803   3.094  23.610   6.078
19939W        W20804   0.077  22.931   6.116
19940W        W20805   2.937  22.726   5.134
19941W        W20806   3.348  22.877   6.911
19942W        W20807   2.233  24.576   5.129
19943W        W20808   1.489  25.167   4.742
19944W        W20809   0.604  22.347   4.000
19945W        W20810   1.708  22.001   5.810
19946W        W20811   0.736  25.121   3.658
19947W        W20812   1.110  23.587   4.409
19948W        W20813   1.764  24.216   6.722
19949W        W20814   1.594  22.574   4.712
19950W        W20815   2.950  22.171   5.140
19951W        W20816   2.670  25.453   5.468
19952W        W20817   2.082  25.101   5.808
19953W        W20818   1.478  24.138   5.769
19954W        W20819   3.248  24.861   5.895
19955W        W20820   0.942  22.364   4.664
19956W        W20821   1.464  24.661   5.624
19957W        W20822   0.947  22.592   3.689
19958W        W20823   1.748  23.201   6.083
19959W        W20824   2.596  22.067   5.953
19960W        W20825   0.016  23.910   5.838
19961W        W20826   1.720  23.728   3.996
19962W        W20827   0.988  22.043   3.766
19963W        W20828   1.726  23.124   4.817
19964W        W20829   2.696  22.100   6.516
19965W        W20830   1.284  24.112   6.625
19966W        W20831   2.088  23.894   6.842
19967W        W20832   2.705  23.924   6.735
19968W        W20833   1.989  22.064   7.240
19969W        W20834   1.211  22.680   5.633
19970W        W20835   0.637  22.636   5.031
19971W        W20836   0.423  25.348   4.707
19972W        W20837   1.755  24.678   6.832
19973W        W20838   0.790  24.163   4.191
19974W        W20839   2.470  23.548   5.412
19975W        W20840   2.750  23.347   5.811
19976W        W20841   1.955  24.021   5.745
19977W        W20842   2.425  24.395   3.877
19978W        W20843   2.097  22.416   5.205
19979W        W20844   3.576  22.694   4.473
19980W        W20845   0.070  25.283   6.504
19981W        W20846   0.487  24.509   6.036
19982W        W20847   0.054  25.355   4.268
19983W        W20848   1.953  22.625   6.074
19984W        W20849   1.316  24.648   3.923
19985W        W20850   3.221  25.030   4.109
19986W        W20851   2.196  23.683   4.123
19987W        W20852   1.039  22.874   4.640
19988W        W20853   1.871  22.784   3.692
19989W        W20854   2.455  24.349   6.870
19990W        W20855   2.808  22.255   4.487
19991W        W20856   0.138  22.103   3.935
19992W        W20857   1.424  24.422   6.225
19993W        W20858   1.223  24.338   5.317
19994W        W20859   0.965  24.290   3.715
19995W        W20860   0.206  24.531   4.483
19996W        W20861   0.710  23.601   6.925
19997W        W20862   1.414  22.161   7.111
19998W        W20863   2.123  22.303   6.467
19999W        W20864   1.318  22.071   4.748
20000W        W20865   2.377  22.148   4.253
20001W        W20866   0.322  22.080   5.830
20002W        W20867   0.370  23.043   5.200
20003W        W20868   3.059  22.151   5.606
20004W        W20869   0.481  22.649   4.420
20005W        W20870   3.052  22.337   6.036
20006W        W20871   3.448  23.540   3.721
20007W        W20872   0.740  22.298   5.540
20008W        W20873   1.854  22.870   6.480
20009W        W20874   0.002  22.560   3.958
20010W        W20875   0.788  23.949   6.519
20011W        W20876   2.146  23.347   5.698
20012W        W20877   2.013  25.426   3.994
20013W        W20878   0.159  23.933   3.691
20014W        W20879   0.894  24.344   6.817
20015W        W20880   0.415  23.511   6.448
20016W        W20881   1.406  23.616   6.242
20017W        W20882   3.174  21.975   6.504
20018W        W20883   3.572  23.585   6.495
20019W        W20884   3.560  23.785   4.181
20020W        W20885   2.423  24.117   4.280
20021W        W20886   2.897  25.417   3.975
20022W        W20887   2.074  23.407   7.117
20023W        W20888   0.404  24.374   7.157
20024W        W20889   3.610  22.296   7.109
20025W        W20890   3.328  23.224   5.730
20026W        W20891   1.636  25.354   7.207
20027W        W20892   1.491  21.983   3.934
20028W        W20893   3.030  24.582   3.877
20029W        W20894   0.799  22.675   6.763
20030W        W20895   1.233  24.669   6.625
20031W        W20896   3.359  22.660   6.423
20032W        W20897   2.570  25.319   4.391
20033W        W20898   2.809  23.938   5.758
20034W        W20899   1.059  22.354   6.425
20035W        W20900   1.528  23.423   7.182
20036W        W20901   1.031  24.602   4.376
20037W        W20902   2.786  24.100   4.640
20038W        W20903   0.554  22.726   6.364
20039W        W20904   1.883  24.788   4.828
20040W        W20905   3.633  23.348   5.009
20041W        W20906   1.855  21.981   6.728
20042W        W20907   2.635  24.686   5.807
20043W        W20908   2.938  25.030   5.515
20044W        W20909   2.157  24.832   3.943
20045W        W20910   0.167  24.724   6.785
20046W        W20911   0.910  22.716   6.023
20047W        W20912   0.880  22.064   5.133
20048W        W20913   2.501  22.906   5.825
20049W        W20914   1.299  24.077   4.025
20050W        W20915   3.297  24.019   5.524
20051W        W20916   0.624  24.777   6.947
20052W        W20917   3.011  25.459   4.744
20053W        W20918   1.110  22.479   5.189
20054W        W20919   0.879  23.972   5.279
20055W        W20920   1.192  25.383   6.029
20056W        W20921   3.259  25.479   7.061
20057W        W20922   2.418  23.667   5.994
20058W        W20923   0.267  23.465   3.909
20059W        W20924   3.401  25.123   4.606
20060W        W20925   3.238  22.447   4.225
20061W        W20926   1.377  21.966   6.628
20062W        W20927   3.083  24.768   5.086
20063W        W20928   3.112  23.324   4.991
20064W        W20929   1.229  22.997   5.207
20065W        W20930   1.474  23.259   6.531
20066W        W20931   2.585  24.412   6.394
20067W        W20932   1.235  22.866   6.506
20068W        W20933   1.214  25.332   5.122
20069W        W20934   0.531  25.291   6.756
20070W        W20935   0.643  24.652   3.886
20071W        W20936   3.160  24.410   4.696
20072W        W20937   0.764  23.202   6.582
20073W        W20938   3.537  23.132   4.063
20074W        W20939   1.282  24.189   4.534
20075W        W20940   2.381  23.571   6.615
20076W        W20941   2.272  23.199   6.159
20077W        W20942   0.832  23.571   6.188
20078W        W20943   3.042  25.459   6.017
20079W        W20944   2.833  22.093   7.011
20080W        W20945   0.497  22.243   6.598
20081W        W20946   0.836  23.266   5.651
20082W        W20947   1.205  23.080   3.773
20083W        W20948   0.008  24.839   6.318
20084W        W20949   1.593  23.548   5.761
20085W        W20950   1.416  22.573   3.866
20086W        W20951   0.551  23.389   4.647
20087W        W20952   0.322  25.241   6.084
20088W        W20953   3.117  23.467   4.192
20089W        W20954   3.212  22.383   6.878
20090W        W20955   2.648  24.592   4.841
20091W        W20956   0.246  23.516   7.018
20092W        W20957   3.212  21.980   4.314
20093W        W20958   2.732  24.455   4.325
20094W        W20959   1.634  23.513   4.410
20095W        W20960   2.821  22.317   3.933
20096W        W20961   2.886  22.924   6.119
20097W        W20962   0.595  23.517   5.326
20098W        W20963   0.889  24.456   4.975
20099W        W20964   2.652  23.076   4.940
20100W        W20965   1.675  22.455   5.636
20101W        W20966   3.637  24.366   6.147
20102W        W20967   3.555  22.353   5.708
20103W        W20968   0.094  25.183   5.084
20104W        W20969   0.603  24.370   4.620
20105W        W20970   0.518  21.987   7.173
20106W        W20971   1.637  24.840   7.275
20107W        W20972   3.392  23.808   5.065
20108W        W20973   2.746  23.985   3.945
20109W        W20974   2.041  25.506   6.157
20110W        W20975   2.898  24.228   7.194
20111W        W20976   1.713  21.938   4.474
20112W        W20977   2.426  22.807   5.333
20113W        W20978   0.112  24.394   5.665
20114W        W20979   1.365  22.356   4.306
20115W        W20980   1.169  23.840   7.155
20116W        W20981   2.163  22.821   4.869
20117W        W20982   2.368  24.231   5.991
20118W        W20983   0.522  24.836   6.426
20119W        W20984   1.113  24.819   7.149
20120W        W20985   0.964  22.616   4.163
20121W        W20986   2.481  22.758   4.488
20122W        W20987   2.439  24.866   6.725
20123W        W20988   1.124  23.458   5.324
20124W        W20989   0.779  25.156   6.189
20125W        W20990   3.524  25.273   3.790
20126W        W20991   0.387  23.945   6.786
20127W        W20992   2.382  24.207   5.474
20128W        W20993   0.818  23.856   4.716
20129W        W20994   1.189  24.863   6.111
20130W        W20995   1.567  22.282   5.152
20131W        W20996   0.178  24.266   4.082
20132W        W20997   1.697  23.217   3.952
20133W        W20998   0.343  23.766   4.971
20134W        W20999   1.633  22.408   6.435
20135W        W21000   3.305  22.117   3.862
20136W        W21001   3.398  23.863   6.961
20137W        W21002   2.052  25.120   7.113
20138W        W21003   3.610  24.214   6.635
20139W        W21004   3.018  25.012   7.246
20140W        W21005   0.757  25.468   5.724
20141W        W21006   3.616  24.090   4.598
20142W        W21007   2.146  23.357   5.111
20143W        W21008   1.913  21.969   5.001
20144W        W21009   0.972  24.953   4.838
20145W        W21010   1.471  22.694   6.063
20146W        W21011   1.171  22.063   5.532
20147W        W21012   0.234  24.885   4.080
20148W        W21013   2.050  24.249   4.798
20149W        W21014   0.925  25.044   6.677
20150W        W21015   0.402  23.867   4.373
20151W        W21016   0.287  22.410   5.372
20152W        W21017   1.835  24.375   5.429
20153W        W21018   0.087  22.229   4.449
20154W        W21019   2.751  23.435   6.376
20155W        W21020   2.628  22.821   3.948
20156W        W21021   3.145  24.493   5.596
20157W        W21022   1.806  24.977   5.427
20158W        W21023   1.218  25.081   4.338
20159W        W21024   2.500  21.984   3.768
20160W        W21025   0.300  25.244   5.509
20161W        W21026   2.497  23.002   7.144
20162W        W21027   0.480  22.532   7.143
20163W        W21028   0.211  23.132   4.476
20164W        W21029   0.902  23.121   4.201
20165W        W21030   2.665  23.448   7.018
20166W        W21031   1.008  23.729   5.727
20167W        W21032   2.482  22.015   4.847
20168W        W21033   1.613  25.446   5.350
20169W        W21034   2.827  24.908   6.287
20170W        W21035   2.411  25.057   5.398
20171W        W21036   2.430  24.037   4.992
20172W        W21037   1.892  22.262   4.063
20173W        W21038   3.573  21.890   4.785
20174W        W21039   1.261  23.525   3.948
20175W        W21040   3.427  22.862   4.938
20176W        W21041   2.119  24.032   3.815
20177W        W21042   3.055  24.232   6.563
20178W        W21043   2.709  24.933   4.030
20179W        W21044   1.324  22.608   6.936
20180W        W21045   1.144  23.192   6.177
20181W        W21046   3.236  24.687   6.454
20182W        W21047   2.336  22.637   6.831
20183W        W21048   0.180  23.108   6.608
20184W        W21049   1.940  23.585   6.334
20185W        W21050   0.297  24.343   4.991
20186W        W21051   0.444  23.640   5.881
20187W        W21052   2.761  23.926   6.231
20188W        W21053   2.533  25.306   7.042
20189W        W21054   2.429  23.045   6.595
20190W        W21055   2.706  25.099   5.000
20191W        W21056   1.708  24.819   6.323
20192W        W21057   1.193  25.174   5.592
20193W        W21058   2.998  24.345   6.011
20194W        W21059   2.048  24.417   7.148
20195W        W21060   0.653  24.370   5.487
20196W        W21061   2.999  24.129   5.132
20197W        W21062   2.640  25.195   5.883
20198W        W21063   0.618  24.924   5.753
20199W        W21064   1.639  22.976   6.963
20200W        W21065   2.090  25.142   4.474
20201W        W21066   1.398  24.397   7.112
20202W        W21067   1.524  24.635   4.489
20203W        W21068   0.745  23.375   3.748
20204W        W21069   0.084  25.461  10.648
20205W        W21070   0.460  24.354  10.171
20206W        W21071   3.165  24.084   7.941
20207W        W21072   3.295  25.169   9.968
20208W        W21073   1.213  25.160   7.494
20209W        W21074   1.296  23.312   8.477
20210W        W21075   0.811  23.160   8.641
20211W        W21076   1.802  23.975   8.075
20212W        W21077   1.477  25.067  10.430
20213W        W21078   0.126  22.628  10.393
20214W        W21079   0.888  21.908  10.195
20215W        W21080   2.582  22.296   9.082
20216W        W21081   2.231  23.167   7.652
20217W        W21082   2.801  22.601  10.743
20218W        W21083   0.167  22.393   9.868
20219W        W21084   0.266  25.012  10.889
20220W        W21085   1.788  24.402   7.621
20221W        W21086   0.220  23.185   9.314
20222W        W21087   1.113  23.076  10.551
20223W        W21088   3.572  22.935   9.050
20224W        W21089   3.336  23.978   9.909
20225W        W21090   1.644  23.311   8.936
20226W        W21091   2.190  24.650   9.305
20227W        W21092   0.690  24.084   9.537
20228W        W21093   0.049  23.612   9.108
20229W        W21094   1.085  23.584  10.300
20230W        W21095   3.356  23.367  10.554
20231W        W21096   0.972  24.811   8.999
20232W        W21097   2.093  24.500  10.133
20233W        W21098   1.313  23.140   9.358
20234W        W21099   1.605  23.924   9.001
20235W        W21100   2.602  24.697  10.849
20236W        W21101   1.681  24.017  10.859
20237W        W21102   1.662  23.733  10.337
20238W        W21103   0.071  23.124  10.859
20239W        W21104   2.903  24.659  10.458
20240W        W21105   0.484  22.241   8.456
20241W        W21106   1.011  24.499   9.455
20242W        W21107   3.474  24.282   8.745
20243W        W21108   2.887  22.682   9.312
20244W        W21109   3.172  22.635   7.407
20245W        W21110   3.637  23.436   9.713
20246W        W21111   1.604  25.143   9.466
20247W        W21112   3.378  24.609   7.904
20248W        W21113   0.507  25.395   7.658
20249W        W21114   0.900  25.441   8.334
20250W        W21115   0.697  22.195   9.760
20251W        W21116   3.320  23.213  10.035
20252W        W21117   2.725  23.635   8.494
20253W        W21118   2.691  23.323   7.521
20254W        W21119   1.899  24.467   9.661
20255W        W21120   1.705  22.797   8.860
20256W        W21121   2.305  24.884   9.854
20257W        W21122   3.176  23.675   8.276
20258W        W21123   2.078  22.333   8.292
20259W        W21124   0.735  25.027   7.975
20260W        W21125   0.106  22.526   8.574
20261W        W21126   2.892  23.133   9.048
20262W        W21127   0.350  24.750   8.963
20263W        W21128   1.691  25.100   7.833
20264W        W21129   3.083  23.126   7.297
20265W        W21130   0.106  24.884   9.461
20266W        W21131   0.897  24.456   9.941
20267W        W21132   1.270  23.816   8.560
20268W        W21133   1.292  22.221   9.653
20269W        W21134   3.521  21.983   8.950
20270W        W21135   0.740  23.855   7.418
20271W        W21136   0.395  22.888   7.597
20272W        W21137   0.457  24.844   8.391
20273W        W21138   1.588  24.327   8.639
20274W        W21139   2.920  25.186  10.353
20275W        W21140   1.846  22.828   8.037
20276W        W21141   3.229  25.226   8.809
20277W        W21142   2.906  23.079  10.407
20278W        W21143   3.619  24.735   8.541
20279W        W21144   2.246  24.027  10.025
20280W        W21145   0.012  23.578   8.231
20281W        W21146   1.123  23.993   9.804
20282W        W21147   2.327  23.257   8.182
20283W        W21148   2.204  23.747   8.286
20284W        W21149   0.547  23.167   9.760
20285W        W21150   0.532  23.043  10.682
20286W        W21151   0.422  21.960   8.841
20287W        W21152   2.190  22.307   9.402
20288W        W21153   1.838  22.492  10.565
20289W        W21154   2.193  22.641   7.743
20290W        W21155   3.376  25.034  10.497
20291W        W21156   2.343  22.115  10.536
20292W        W21157   3.362  24.416  10.658
20293W        W21158   2.792  22.583  10.254
20294W        W21159   2.592  22.521   8.524
20295W        W21160   2.985  23.655  10.928
20296W        W21161   0.725  25.231   8.914
20297W        W21162   1.383  22.948   7.900
20298W        W21163   0.952  22.232  10.564
20299W        W21164   3.004  22.716   8.245
20300W        W21165   3.371  23.198   8.190
20301W        W21166   1.114  25.415  10.661
20302W        W21167   1.040  21.951   7.896
20303W        W21168   3.361  22.485   8.931
20304W        W21169   3.511  24.734   7.376
20305W        W21170   0.418  23.937   9.078
20306W        W21171   2.335  22.524   7.308
20307W        W21172   3.469  24.856   9.028
20308W        W21173   3.508  22.050   9.778
20309W        W21174   1.953  23.262  10.332
20310W        W21175   2.046  24.601   8.035
20311W        W21176   2.446  23.895  10.775
20312W        W21177   2.120  21.872   9.084
20313W        W21178   0.732  22.775   9.147
20314W        W21179   0.286  23.975   9.921
20315W        W21180   2.145  25.168   8.627
20316W        W21181   3.339  22.765   9.499
20317W        W21182   1.976  25.112  10.266
20318W        W21183   3.319  24.171   7.471
20319W        W21184   1.754  23.654   8.532
20320W        W21185   3.606  22.165  10.273
20321W        W21186   1.755  24.000   9.867
20322W        W21187   1.972  22.886   9.312
20323W        W21188   2.824  23.184   8.150
20324W        W21189   3.111  22.917   7.792
20325W        W21190   2.920  24.957   8.181
20326W        W21191   2.754  24.560   8.977
20327W        W21192   2.650  23.639   7.955
20328W        W21193   2.083  23.849   8.941
20329W        W21194   2.964  23.637   9.008
20330W        W21195   0.339  22.652   9.432
20331W        W21196   3.117  23.704  10.259
20332W        W21197   3.468  25.322   9.405
20333W        W21198   1.398  24.766   8.807
20334W        W21199   2.405  25.299  10.131
20335W        W21200   2.399  22.629   9.895
20336W        W21201   1.606  25.337   9.956
20337W        W21202   3.303  22.291   8.422
20338W        W21203   3.094  23.610   9.723
20339W        W21204   0.077  22.931   9.761
20340W        W21205   2.937  22.726   8.779
20341W        W21206   3.348  22.877  10.556
20342W        W21207   2.233  24.576   8.774
20343W        W21208   1.489  25.167   8.387
20344W        W21209   0.604  22.347   7.645
20345W        W21210   1.708  22.001   9.455
20346W        W21211   0.736  25.121   7.303
20347W        W21212   1.110  23.587   8.054
20348W        W21213   1.764  24.216  10.367
20349W        W21214   1.594  22.574   8.357
20350W        W21215   2.950  22.171   8.785
20351W        W21216   2.670  25.453   9.113
20352W        W21217   2.082  25.101   9.453
20353W        W21218   1.478  24.138   9.414
20354W        W21219   3.248  24.861   9.540
20355W        W21220   0.942  22.364   8.309
20356W        W21221   1.464  24.661   9.269
20357W        W21222   0.947  22.592   7.334
20358W        W21223   1.748  23.201   9.728
20359W        W21224   2.596  22.067   9.598
20360W        W21225   0.016  23.910   9.483
20361W        W21226   1.720  23.728   7.641
20362W        W21227   0.988  22.043   7.411
20363W        W21228   1.726  23.124   8.462
20364W        W21229   2.696  22.100  10.161
20365W        W21230   1.284  24.112  10.270
20366W        W21231   2.088  23.894  10.487
20367W        W21232   2.705  23.924  10.380
20368W        W21233   1.989  22.064  10.885
20369W        W21234   1.211  22.680   9.278
20370W        W21235   0.637  22.636   8.676
20371W        W21236   0.423  25.348   8.352
20372W        W21237   1.755  24.678  10.477
20373W        W21238   0.790  24.163   7.836
20374W        W21239   2.470  23.548   9.057
20375W        W21240   2.750  23.347   9.456
20376W        W21241   1.955  24.021   9.390
20377W        W21242   2.425  24.395   7.522
20378W        W21243   2.097  22.416   8.850
20379W        W21244   3.576  22.694   8.118
20380W        W21245   0.070  25.283  10.149
20381W        W21246   0.487  24.509   9.681
20382W        W21247   0.054  25.355   7.913
20383W        W21248   1.953  22.625   9.719
20384W        W21249   1.316  24.648   7.568
20385W        W21250   3.221  25.030   7.754
20386W        W21251   2.196  23.683   7.768
20387W        W21252   1.039  22.874   8.285
20388W        W21253   1.871  22.784   7.337
20389W        W21254   2.455  24.349  10.515
20390W        W21255   2.808  22.255   8.132
20391W        W21256   0.138  22.103   7.580
20392W        W21257   1.424  24.422   9.870
20393W        W21258   1.223  24.338   8.962
20394W        W21259   0.965  24.290   7.360
20395W        W21260   0.206  24.531   8.128
20396W        W21261   0.710  23.601  10.570
20397W        W21262   1.414  22.161  10.756
20398W        W21263   2.123  22.303  10.112
20399W        W21264   1.318  22.071   8.393
20400W        W21265   2.377  22.148   7.898
20401W        W21266   0.322  22.080   9.475
20402W        W21267   0.370  23.043   8.845
20403W        W21268   3.059  22.151   9.251
20404W        W21269   0.481  22.649   8.065
20405W        W21270   3.052  22.337   9.681
20406W        W21271   3.448  23.540   7.366
20407W        W21272   0.740  22.298   9.185
20408W        W21273   1.854  22.870  10.125
20409W        W21274   0.002  22.560   7.603
20410W        W21275   0.788  23.949  10.164
20411W        W21276   2.146  23.347   9.343
20412W        W21277   2.013  25.426   7.639
20413W        W21278   0.159  23.933   7.336
20414W        W21279   0.894  24.344  10.462
20415W        W21280   0.415  23.511  10.093
20416W        W21281   1.406  23.616   9.887
20417W        W21282   3.174  21.975  10.149
20418W        W21283   3.572  23.585  10.140
20419W        W21284   3.560  23.785   7.826
20420W        W21285   2.423  24.117   7.925
20421W        W21286   2.897  25.417   7.620
20422W        W21287   2.074  23.407  10.762
20423W        W21288   0.404  24.374  10.802
20424W        W21289   3.610  22.296  10.754
20425W        W21290   3.328  23.224   9.375
20426W        W21291   1.636  25.354  10.852
20427W        W21292   1.491  21.983   7.579
20428W        W21293   3.030  24.582   7.522
20429W        W21294   0.799  22.675  10.408
20430W        W21295   1.233  24.669  10.270
20431W        W21296   3.359  22.660  10.068
20432W        W21297   2.570  25.319   8.036
20433W        W21298   2.809  23.938   9.403
20434W        W21299   1.059  22.354  10.070
20435W        W21300   1.528  23.423  10.827
20436W        W21301   1.031  24.602   8.021
20437W        W21302   2.786  24.100   8.285
20438W        W21303   0.554  22.726  10.009
20439W        W21304   1.883  24.788   8.473
20440W        W21305   3.633  23.348   8.654
20441W        W21306   1.855  21.981  10.373
20442W        W21307   2.635  24.686   9.452
20443W        W21308   2.938  25.030   9.160
20444W        W21309   2.157  24.832   7.588
20445W        W21310   0.167  24.724  10.430
20446W        W21311   0.910  22.716   9.668
20447W        W21312   0.880  22.064   8.778
20448W        W21313   2.501  22.906   9.470
20449W        W21314   1.299  24.077   7.670
20450W        W21315   3.297  24.019   9.169
20451W        W21316   0.624  24.777  10.592
20452W        W21317   3.011  25.459   8.389
20453W        W21318   1.110  22.479   8.834
20454W        W21319   0.879  23.972   8.924
20455W        W21320   1.192  25.383   9.674
20456W        W21321   3.259  25.479  10.706
20457W        W21322   2.418  23.667   9.639
20458W        W21323   0.267  23.465   7.554
20459W        W21324   3.401  25.123   8.251
20460W        W21325   3.238  22.447   7.870
20461W        W21326   1.377  21.966  10.273
20462W        W21327   3.083  24.768   8.731
20463W        W21328   3.112  23.324   8.636
20464W        W21329   1.229  22.997   8.852
20465W        W21330   1.474  23.259  10.176
20466W        W21331   2.585  24.412  10.039
20467W        W21332   1.235  22.866  10.151
20468W        W21333   1.214  25.332   8.767
20469W        W21334   0.531  25.291  10.401
20470W        W21335   0.643  24.652   7.531
20471W        W21336   3.160  24.410   8.341
20472W        W21337   0.764  23.202  10.227
20473W        W21338   3.537  23.132   7.708
20474W        W21339   1.282  24.189   8.179
20475W        W21340   2.381  23.571  10.260
20476W        W21341   2.272  23.199   9.804
20477W        W21342   0.832  23.571   9.833
20478W        W21343   3.042  25.459   9.662
20479W        W21344   2.833  22.093  10.656
20480W        W21345   0.497  22.243  10.243
20481W        W21346   0.836  23.266   9.296
20482W        W21347   1.205  23.080   7.418
20483W        W21348   0.008  24.839   9.963
20484W        W21349   1.593  23.548   9.406
20485W        W21350   1.416  22.573   7.511
20486W        W21351   0.551  23.389   8.292
20487W        W21352   0.322  25.241   9.729
20488W        W21353   3.117  23.467   7.837
20489W        W21354   3.212  22.383  10.523
20490W        W21355   2.648  24.592   8.486
20491W        W21356   0.246  23.516  10.663
20492W        W21357   3.212  21.980   7.959
20493W        W21358   2.732  24.455   7.970
20494W        W21359   1.634  23.513   8.055
20495W        W21360   2.821  22.317   7.578
20496W        W21361   2.886  22.924   9.764
20497W        W21362   0.595  23.517   8.971
20498W        W21363   0.889  24.456   8.620
20499W        W21364   2.652  23.076   8.585
20500W        W21365   1.675  22.455   9.281
20501W        W21366   3.637  24.366   9.792
20502W        W21367   3.555  22.353   9.353
20503W        W21368   0.094  25.183   8.729
20504W        W21369   0.603  24.370   8.265
20505W        W21370   0.518  21.987  10.818
20506W        W21371   1.637  24.840  10.920
20507W        W21372   3.392  23.808   8.710
20508W        W21373   2.746  23.985   7.590
20509W        W21374   2.041  25.506   9.802
20510W        W21375   2.898  24.228  10.839
20511W        W21376   1.713  21.938   8.119
20512W        W21377   2.426  22.807   8.978
20513W        W21378   0.112  24.394   9.310
20514W        W21379   1.365  22.356   7.951
20515W        W21380   1.169  23.840  10.800
20516W        W21381   2.163  22.821   8.514
20517W        W21382   2.368  24.231   9.636
20518W        W21383   0.522  24.836  10.071
20519W        W21384   1.113  24.819  10.794
20520W        W21385   0.964  22.616   7.808
20521W        W21386   2.481  22.758   8.133
20522W        W21387   2.439  24.866  10.370
20523W        W21388   1.124  23.458   8.969
20524W        W21389   0.779  25.156   9.834
20525W        W21390   3.524  25.273   7.435
20526W        W21391   0.387  23.945  10.431
20527W        W21392   2.382  24.207   9.119
20528W        W21393   0.818  23.856   8.361
20529W        W21394   1.189  24.863   9.756
20530W        W21395   1.567  22.282   8.797
20531W        W21396   0.178  24.266   7.727
20532W        W21397   1.697  23.217   7.597
20533W        W21398   0.343  23.766   8.616
20534W        W21399   1.633  22.408  10.080
20535W        W21400   3.305  22.117   7.507
20536W        W21401   3.398  23.863  10.606
20537W        W21402   2.052  25.120  10.758
20538W        W21403   3.610  24.214  10.280
20539W        W21404   3.018  25.012  10.891
20540W        W21405   0.757  25.468   9.369
20541W        W21406   3.616  24.090   8.243
20542W        W21407   2.146  23.357   8.756
20543W        W21408   1.913  21.969   8.646
20544W        W21409   0.972  24.953   8.483
20545W        W21410   1.471  22.694   9.708
20546W        W21411   1.171  22.063   9.177
20547W        W21412   0.234  24.885   7.725
20548W        W21413   2.050  24.249   8.443
20549W        W21414   0.925  25.044  10.322
20550W        W21415   0.402  23.867   8.018
20551W        W21416   0.287  22.410   9.017
20552W        W21417   1.835  24.375   9.074
20553W        W21418   0.087  22.229   8.094
20554W        W21419   2.751  23.435  10.021
20555W        W21420   2.628  22.821   7.593
20556W        W21421   3.145  24.493   9.241
20557W        W21422   1.806  24.977   9.072
20558W        W21423   1.218  25.081   7.983
20559W        W21424   2.500  21.984   7.413
20560W        W21425   0.300  25.244   9.154
20561W        W21426   2.497  23.002  10.789
20562W        W21427   0.480  22.532  10.788
20563W        W21428   0.211  23.132   8.121
20564W        W21429   0.902  23.121   7.846
20565W        W21430   2.665  23.448  10.663
20566W        W21431   1.008  23.729   9.372
20567W        W21432   2.482  22.015   8.492
20568W        W21433   1.613  25.446   8.995
20569W        W21434   2.827  24.908   9.932
20570W        W21435   2.411  25.057   9.043
20571W        W21436   2.430  24.037   8.637
20572W        W21437   1.892  22.262   7.708
20573W        W21438   3.573  21.890   8.430
20574W        W21439   1.261  23.525   7.593
20575W        W21440   3.427  22.862   8.583
20576W        W21441   2.119  24.032   7.460
20577W        W21442   3.055  24.232  10.208
20578W        W21443   2.709  24.933   7.675
20579W        W21444   1.324  22.608  10.581
20580W        W21445   1.144  23.192   9.822
20581W        W21446   3.236  24.687  10.099
20582W        W21447   2.336  22.637  10.476
20583W        W21448   0.180  23.108  10.253
20584W        W21449   1.940  23.585   9.979
20585W        W21450   0.297  24.343   8.636
20586W        W21451   0.444  23.640   9.526
20587W        W21452   2.761  23.926   9.876
20588W        W21453   2.533  25.306  10.687
20589W        W21454   2.429  23.045  10.240
20590W        W21455   2.706  25.099   8.645
20591W        W21456   1.708  24.819   9.968
20592W        W21457   1.193  25.174   9.237
20593W        W21458   2.998  24.345   9.656
20594W        W21459   2.048  24.417  10.793
20595W        W21460   0.653  24.370   9.132
20596W        W21461   2.999  24.129   8.777
20597W        W21462   2.640  25.195   9.528
20598W        W21463   0.618  24.924   9.398
20599W        W21464   1.639  22.976  10.608
20600W        W21465   2.090  25.142   8.119
20601W        W21466   1.398  24.397  10.757
20602W        W21467   1.524  24.635   8.134
20603W        W21468   0.745  23.375   7.393
20604W        W21469   0.084  25.461  14.292
20605W        W21470   0.460  24.354  13.815
20606W        W21471   3.165  24.084  11.585
20607W        W21472   3.295  25.169  13.612
20608W        W21473   1.213  25.160  11.138
20609W        W21474   1.296  23.312  12.121
20610W        W21475   0.811  23.160  12.285
20611W        W21476   1.802  23.975  11.719
20612W        W21477   1.477  25.067  14.074
20613W        W21478   0.126  22.628  14.037
20614W        W21479   0.888  21.908  13.839
20615W        W21480   2.582  22.296  12.726
20616W        W21481   2.231  23.167  11.296
20617W        W21482   2.801  22.601  14.387
20618W        W21483   0.167  22.393  13.512
20619W        W21484   0.266  25.012  14.533
20620W        W21485   1.788  24.402  11.265
20621W        W21486   0.220  23.185  12.958
20622W        W21487   1.113  23.076  14.195
20623W        W21488   3.572  22.935  12.694
20624W        W21489   3.336  23.978  13.553
20625W        W21490   1.644  23.311  12.580
20626W        W21491   2.190  24.650  12.949
20627W        W21492   0.690  24.084  13.181
20628W        W21493   0.049  23.612  12.752
20629W        W21494   1.085  23.584  13.944
20630W        W21495   3.356  23.367  14.198
20631W        W21496   0.972  24.811  12.643
20632W        W21497   2.093  24.500  13.777
20633W        W21498   1.313  23.140  13.002
20634W        W21499   1.605  23.924  12.645
20635W        W21500   2.602  24.697  14.493
20636W        W21501   1.681  24.017  14.503
20637W        W21502   1.662  23.733  13.981
20638W        W21503   0.071  23.124  14.503
20639W        W21504   2.903  24.659  14.102
20640W        W21505   0.484  22.241  12.100
20641W        W21506   1.011  24.499  13.099
20642W        W21507   3.474  24.282  12.389
20643W        W21508   2.887  22.682  12.956
20644W        W21509   3.172  22.635  11.051
20645W        W21510   3.637  23.436  13.357
20646W        W21511   1.604  25.143  13.110
20647W        W21512   3.378  24.609  11.548
20648W        W21513   0.507  25.395  11.302
20649W        W21514   0.900  25.441  11.978
20650W        W21515   0.697  22.195  13.404
20651W        W21516   3.320  23.213  13.679
20652W        W21517   2.725  23.635  12.138
20653W        W21518   2.691  23.323  11.165
20654W        W21519   1.899  24.467  13.305
20655W        W21520   1.705  22.797  12.504
20656W        W21521   2.305  24.884  13.498
20657W        W21522   3.176  23.675  11.920
20658W        W21523   2.078  22.333  11.936
20659W        W21524   0.735  25.027  11.619
20660W        W21525   0.106  22.526  12.218
20661W        W21526   2.892  23.133  12.692
20662W        W21527   0.350  24.750  12.607
20663W        W21528   1.691  25.100  11.477
20664W        W21529   3.083  23.126  10.941
20665W        W21530   0.106  24.884  13.105
20666W        W21531   0.897  24.456  13.585
20667W        W21532   1.270  23.816  12.204
20668W        W21533   1.292  22.221  13.297
20669W        W21534   3.521  21.983  12.594
20670W        W21535   0.740  23.855  11.062
20671W        W21536   0.395  22.888  11.241
20672W        W21537   0.457  24.844  12.035
20673W        W21538   1.588  24.327  12.283
20674W        W21539   2.920  25.186  13.997
20675W        W21540   1.846  22.828  11.681
20676W        W21541   3.229  25.226  12.453
20677W        W21542   2.906  23.079  14.051
20678W        W21543   3.619  24.735  12.185
20679W        W21544   2.246  24.027  13.669
20680W        W21545   0.012  23.578  11.875
20681W        W21546   1.123  23.993  13.448
20682W        W21547   2.327  23.257  11.826
20683W        W21548   2.204  23.747  11.930
20684W        W21549   0.547  23.167  13.404
20685W        W21550   0.532  23.043  14.326
20686W        W21551   0.422  21.960  12.485
20687W        W21552   2.190  22.307  13.046
20688W        W21553   1.838  22.492  14.209
20689W        W21554   2.193  22.641  11.387
20690W        W21555   3.376  25.034  14.141
20691W        W21556   2.343  22.115  14.180
20692W        W21557   3.362  24.416  14.302
20693W        W21558   2.792  22.583  13.898
20694W        W21559   2.592  22.521  12.168
20695W        W21560   2.985  23.655  14.572
20696W        W21561   0.725  25.231  12.558
20697W        W21562   1.383  22.948  11.544
20698W        W21563   0.952  22.232  14.208
20699W        W21564   3.004  22.716  11.889
20700W        W21565   3.371  23.198  11.834
20701W        W21566   1.114  25.415  14.305
20702W        W21567   1.040  21.951  11.540
20703W        W21568   3.361  22.485  12.575
20704W        W21569   3.511  24.734  11.020
20705W        W21570   0.418  23.937  12.722
20706W        W21571   2.335  22.524  10.952
20707W        W21572   3.469  24.856  12.672
20708W        W21573   3.508  22.050  13.422
20709W        W21574   1.953  23.262  13.976
20710W        W21575   2.046  24.601  11.679
20711W        W21576   2.446  23.895  14.419
20712W        W21577   2.120  21.872  12.728
20713W        W21578   0.732  22.775  12.791
20714W        W21579   0.286  23.975  13.565
20715W        W21580   2.145  25.168  12.271
20716W        W21581   3.339  22.765  13.143
20717W        W21582   1.976  25.112  13.910
20718W        W21583   3.319  24.171  11.115
20719W        W21584   1.754  23.654  12.176
20720W        W21585   3.606  22.165  13.917
20721W        W21586   1.755  24.000  13.511
20722W        W21587   1.972  22.886  12.956
20723W        W21588   2.824  23.184  11.794
20724W        W21589   3.111  22.917  11.436
20725W        W21590   2.920  24.957  11.825
20726W        W21591   2.754  24.560  12.621
20727W        W21592   2.650  23.639  11.599
20728W        W21593   2.083  23.849  12.585
20729W        W21594   2.964  23.637  12.652
20730W        W21595   0.339  22.652  13.076
20731W        W21596   3.117  23.704  13.903
20732W        W21597   3.468  25.322  13.049
20733W        W21598   1.398  24.766  12.451
20734W        W21599   2.405  25.299  13.775
20735W        W21600   2.399  22.629  13.539
20736W        W21601   1.606  25.337  13.600
20737W        W21602   3.303  22.291  12.066
20738W        W21603   3.094  23.610  13.367
20739W        W21604   0.077  22.931  13.405
20740W        W21605   2.937  22.726  12.423
20741W        W21606   3.348  22.877  14.200
20742W        W21607   2.233  24.576  12.418
20743W        W21608   1.489  25.167  12.031
20744W        W21609   0.604  22.347  11.289
20745W        W21610   1.708  22.001  13.099
20746W        W21611   0.736  25.121  10.947
20747W        W21612   1.110  23.587  11.698
20748W        W21613   1.764  24.216  14.011
20749W        W21614   1.594  22.574  12.001
20750W        W21615   2.950  22.171  12.429
20751W        W21616   2.670  25.453  12.757
20752W        W21617   2.082  25.101  13.097
20753W        W21618   1.478  24.138  13.058
20754W        W21619   3.248  24.861  13.184
20755W        W21620   0.942  22.364  11.953
20756W        W21621   1.464  24.661  12.913
20757W        W21622   0.947  22.592  10.978
20758W        W21623   1.748  23.201  13.372
20759W        W21624   2.596  22.067  13.242
20760W        W21625   0.016  23.910  13.127
20761W        W21626   1.720  23.728  11.285
20762W        W21627   0.988  22.043  11.055
20763W        W21628   1.726  23.124  12.106
20764W        W21629   2.696  22.100  13.805
20765W        W21630   1.284  24.112  13.914
20766W        W21631   2.088  23.894  14.131
20767W        W21632   2.705  23.924  14.024
20768W        W21633   1.989  22.064  14.529
20769W        W21634   1.211  22.680  12.922
20770W        W21635   0.637  22.636  12.320
20771W        W21636   0.423  25.348  11.996
20772W        W21637   1.755  24.678  14.121
20773W        W21638   0.790  24.163  11.480
20774W        W21639   2.470  23.548  12.701
20775W        W21640   2.750  23.347  13.100
20776W        W21641   1.955  24.021  13.034
20777W        W21642   2.425  24.395  11.166
20778W        W21643   2.097  22.416  12.494
20779W        W21644   3.576  22.694  11.762
20780W        W21645   0.070  25.283  13.793
20781W        W21646   0.487  24.509  13.325
20782W        W21647   0.054  25.355  11.557
20783W        W21648   1.953  22.625  13.363
20784W        W21649   1.316  24.648  11.212
20785W        W21650   3.221  25.030  11.398
20786W        W21651   2.196  23.683  11.412
20787W        W21652   1.039  22.874  11.929
20788W        W21653   1.871  22.784  10.981
20789W        W21654   2.455  24.349  14.159
20790W        W21655   2.808  22.255  11.776
20791W        W21656   0.138  22.103  11.224
20792W        W21657   1.424  24.422  13.514
20793W        W21658   1.223  24.338  12.606
20794W        W21659   0.965  24.290  11.004
20795W        W21660   0.206  24.531  11.772
20796W        W21661   0.710  23.601  14.214
20797W        W21662   1.414  22.161  14.400
20798W        W21663   2.123  22.303  13.756
20799W        W21664   1.318  22.071  12.037
20800W        W21665   2.377  22.148  11.542
20801W        W21666   0.322  22.080  13.119
20802W        W21667   0.370  23.043  12.489
20803W        W21668   3.059  22.151  12.895
20804W        W21669   0.481  22.649  11.709
20805W        W21670   3.052  22.337  13.325
20806W        W21671   3.448  23.540  11.010
20807W        W21672   0.740  22.298  12.829
20808W        W21673   1.854  22.870  13.769
20809W        W21674   0.002  22.560  11.247
20810W        W21675   0.788  23.949  13.808
20811W        W21676   2.146  23.347  12.987
20812W        W21677   2.013  25.426  11.283
20813W        W21678   0.159  23.933  10.980
20814W        W21679   0.894  24.344  14.106
20815W        W21680   0.415  23.511  13.737
20816W        W21681   1.406  23.616  13.531
20817W        W21682   3.174  21.975  13.793
20818W        W21683   3.572  23.585  13.784
20819W        W21684   3.560  23.785  11.470
20820W        W21685   2.423  24.117  11.569
20821W        W21686   2.897  25.417  11.264
20822W        W21687   2.074  23.407  14.406
20823W        W21688   0.404  24.374  14.446
20824W        W21689   3.610  22.296  14.398
20825W        W21690   3.328  23.224  13.019
20826W        W21691   1.636  25.354  14.496
20827W        W21692   1.491  21.983  11.223
20828W        W21693   3.030  24.582  11.166
20829W        W21694   0.799  22.675  14.052
20830W        W21695   1.233  24.669  13.914
20831W        W21696   3.359  22.660  13.712
20832W        W21697   2.570  25.319  11.680
20833W        W21698   2.809  23.938  13.047
20834W        W21699   1.528  23.423  14.471
20835W        W21700   1.031  24.602  11.665
20836W        W21701   2.786  24.100  11.929
20837W        W21702   0.554  22.726  13.653
20838W        W21703   1.883  24.788  12.117
20839W        W21704   3.633  23.348  12.298
20840W        W21705   1.855  21.981  14.017
20841W        W21706   2.635  24.686  13.096
20842W        W21707   2.938  25.030  12.804
20843W        W21708   2.157  24.832  11.232
20844W        W21709   0.167  24.724  14.074
20845W        W21710   0.910  22.716  13.312
20846W        W21711   0.880  22.064  12.422
20847W        W21712   2.501  22.906  13.114
20848W        W21713   1.299  24.077  11.314
20849W        W21714   3.297  24.019  12.813
20850W        W21715   0.624  24.777  14.236
20851W        W21716   3.011  25.459  12.033
20852W        W21717   1.110  22.479  12.478
20853W        W21718   0.879  23.972  12.568
20854W        W21719   1.192  25.383  13.318
20855W        W21720   3.259  25.479  14.350
20856W        W21721   2.418  23.667  13.283
20857W        W21722   0.267  23.465  11.198
20858W        W21723   3.401  25.123  11.895
20859W        W21724   3.238  22.447  11.514
20860W        W21725   1.377  21.966  13.917
20861W        W21726   3.083  24.768  12.375
20862W        W21727   3.112  23.324  12.280
20863W        W21728   1.229  22.997  12.496
20864W        W21729   1.474  23.259  13.820
20865W        W21730   2.585  24.412  13.683
20866W        W21731   1.235  22.866  13.795
20867W        W21732   1.214  25.332  12.411
20868W        W21733   0.531  25.291  14.045
20869W        W21734   0.643  24.652  11.175
20870W        W21735   3.160  24.410  11.985
20871W        W21736   0.764  23.202  13.871
20872W        W21737   3.537  23.132  11.352
20873W        W21738   1.282  24.189  11.823
20874W        W21739   2.381  23.571  13.904
20875W        W21740   2.272  23.199  13.448
20876W        W21741   0.832  23.571  13.477
20877W        W21742   3.042  25.459  13.306
20878W        W21743   2.833  22.093  14.300
20879W        W21744   0.497  22.243  13.887
20880W        W21745   0.836  23.266  12.940
20881W        W21746   1.205  23.080  11.062
20882W        W21747   0.008  24.839  13.607
20883W        W21748   1.593  23.548  13.050
20884W        W21749   1.416  22.573  11.155
20885W        W21750   0.551  23.389  11.936
20886W        W21751   0.322  25.241  13.373
20887W        W21752   3.117  23.467  11.481
20888W        W21753   3.212  22.383  14.167
20889W        W21754   2.648  24.592  12.130
20890W        W21755   0.246  23.516  14.307
20891W        W21756   3.212  21.980  11.603
20892W        W21757   2.732  24.455  11.614
20893W        W21758   1.634  23.513  11.699
20894W        W21759   2.821  22.317  11.222
20895W        W21760   2.886  22.924  13.408
20896W        W21761   0.595  23.517  12.615
20897W        W21762   0.889  24.456  12.264
20898W        W21763   2.652  23.076  12.229
20899W        W21764   1.675  22.455  12.925
20900W        W21765   3.637  24.366  13.436
20901W        W21766   3.555  22.353  12.997
20902W        W21767   0.094  25.183  12.373
20903W        W21768   0.603  24.370  11.909
20904W        W21769   0.518  21.987  14.462
20905W        W21770   1.637  24.840  14.564
20906W        W21771   3.392  23.808  12.354
20907W        W21772   2.746  23.985  11.234
20908W        W21773   2.041  25.506  13.446
20909W        W21774   2.898  24.228  14.483
20910W        W21775   1.713  21.938  11.763
20911W        W21776   2.426  22.807  12.622
20912W        W21777   0.112  24.394  12.954
20913W        W21778   1.365  22.356  11.595
20914W        W21779   1.169  23.840  14.444
20915W        W21780   2.163  22.821  12.158
20916W        W21781   2.368  24.231  13.280
20917W        W21782   0.522  24.836  13.715
20918W        W21783   1.113  24.819  14.438
20919W        W21784   0.964  22.616  11.452
20920W        W21785   2.481  22.758  11.777
20921W        W21786   2.439  24.866  14.014
20922W        W21787   1.124  23.458  12.613
20923W        W21788   0.779  25.156  13.478
20924W        W21789   3.524  25.273  11.079
20925W        W21790   0.387  23.945  14.075
20926W        W21791   2.382  24.207  12.763
20927W        W21792   0.818  23.856  12.005
20928W        W21793   1.189  24.863  13.400
20929W        W21794   1.567  22.282  12.441
20930W        W21795   0.178  24.266  11.371
20931W        W21796   1.697  23.217  11.241
20932W        W21797   0.343  23.766  12.260
20933W        W21798   1.633  22.408  13.724
20934W        W21799   3.305  22.117  11.151
20935W        W21800   3.398  23.863  14.250
20936W        W21801   2.052  25.120  14.402
20937W        W21802   3.610  24.214  13.924
20938W        W21803   3.018  25.012  14.535
20939W        W21804   0.757  25.468  13.013
20940W        W21805   3.616  24.090  11.887
20941W        W21806   2.146  23.357  12.400
20942W        W21807   1.913  21.969  12.290
20943W        W21808   0.972  24.953  12.127
20944W        W21809   1.471  22.694  13.352
20945W        W21810   1.171  22.063  12.821
20946W        W21811   0.234  24.885  11.369
20947W        W21812   2.050  24.249  12.087
20948W        W21813   0.925  25.044  13.966
20949W        W21814   0.402  23.867  11.662
20950W        W21815   0.287  22.410  12.661
20951W        W21816   1.835  24.375  12.718
20952W        W21817   0.087  22.229  11.738
20953W        W21818   2.751  23.435  13.665
20954W        W21819   2.628  22.821  11.237
20955W        W21820   3.145  24.493  12.885
20956W        W21821   1.806  24.977  12.716
20957W        W21822   1.218  25.081  11.627
20958W        W21823   2.500  21.984  11.057
20959W        W21824   0.300  25.244  12.798
20960W        W21825   2.497  23.002  14.433
20961W        W21826   0.480  22.532  14.432
20962W        W21827   0.211  23.132  11.765
20963W        W21828   0.902  23.121  11.490
20964W        W21829   2.665  23.448  14.307
20965W        W21830   1.008  23.729  13.016
20966W        W21831   2.482  22.015  12.136
20967W        W21832   1.613  25.446  12.639
20968W        W21833   2.827  24.908  13.576
20969W        W21834   2.411  25.057  12.687
20970W        W21835   2.430  24.037  12.281
20971W        W21836   1.892  22.262  11.352
20972W        W21837   3.573  21.890  12.074
20973W        W21838   1.261  23.525  11.237
20974W        W21839   3.427  22.862  12.227
20975W        W21840   2.119  24.032  11.104
20976W        W21841   3.055  24.232  13.852
20977W        W21842   2.709  24.933  11.319
20978W        W21843   1.324  22.608  14.225
20979W        W21844   1.144  23.192  13.466
20980W        W21845   3.236  24.687  13.743
20981W        W21846   2.336  22.637  14.120
20982W        W21847   0.180  23.108  13.897
20983W        W21848   1.940  23.585  13.623
20984W        W21849   0.297  24.343  12.280
20985W        W21850   0.444  23.640  13.170
20986W        W21851   2.761  23.926  13.520
20987W        W21852   2.533  25.306  14.331
20988W        W21853   2.429  23.045  13.884
20989W        W21854   2.706  25.099  12.289
20990W        W21855   1.708  24.819  13.612
20991W        W21856   1.193  25.174  12.881
20992W        W21857   2.998  24.345  13.300
20993W        W21858   2.048  24.417  14.437
20994W        W21859   0.653  24.370  12.776
20995W        W21860   2.999  24.129  12.421
20996W        W21861   2.640  25.195  13.172
20997W        W21862   0.618  24.924  13.042
20998W        W21863   1.639  22.976  14.252
20999W        W21864   2.090  25.142  11.763
21000W        W21865   1.398  24.397  14.401
21001W        W21866   1.524  24.635  11.778
21002W        W21867   0.745  23.375  11.037
21003W        W21868   0.084  25.461  17.936
21004W        W21869   0.460  24.354  17.459
21005W        W21870   3.165  24.084  15.229
21006W        W21871   3.295  25.169  17.256
21007W        W21872   1.213  25.160  14.782
21008W        W21873   1.296  23.312  15.765
21009W        W21874   0.811  23.160  15.929
21010W        W21875   1.802  23.975  15.363
21011W        W21876   1.477  25.067  17.718
21012W        W21877   0.126  22.628  17.681
21013W        W21878   0.888  21.908  17.483
21014W        W21879   2.582  22.296  16.370
21015W        W21880   2.231  23.167  14.940
21016W        W21881   2.801  22.601  18.031
21017W        W21882   0.167  22.393  17.156
21018W        W21883   0.266  25.012  18.177
21019W        W21884   1.788  24.402  14.909
21020W        W21885   0.220  23.185  16.602
21021W        W21886   1.113  23.076  17.839
21022W        W21887   3.572  22.935  16.338
21023W        W21888   3.336  23.978  17.197
21024W        W21889   1.644  23.311  16.224
21025W        W21890   2.190  24.650  16.593
21026W        W21891   0.690  24.084  16.825
21027W        W21892   0.049  23.612  16.396
21028W        W21893   1.085  23.584  17.588
21029W        W21894   3.356  23.367  17.842
21030W        W21895   0.972  24.811  16.287
21031W        W21896   2.093  24.500  17.421
21032W        W21897   1.313  23.140  16.646
21033W        W21898   1.605  23.924  16.289
21034W        W21899   2.602  24.697  18.137
21035W        W21900   1.681  24.017  18.147
21036W        W21901   1.662  23.733  17.625
21037W        W21902   0.071  23.124  18.147
21038W        W21903   2.903  24.659  17.746
21039W        W21904   0.484  22.241  15.744
21040W        W21905   1.011  24.499  16.743
21041W        W21906   3.474  24.282  16.033
21042W        W21907   2.887  22.682  16.600
21043W        W21908   3.172  22.635  14.695
21044W        W21909   3.637  23.436  17.001
21045W        W21910   1.604  25.143  16.754
21046W        W21911   3.378  24.609  15.192
21047W        W21912   0.507  25.395  14.946
21048W        W21913   0.900  25.441  15.622
21049W        W21914   0.697  22.195  17.048
21050W        W21915   3.320  23.213  17.323
21051W        W21916   2.725  23.635  15.782
21052W        W21917   2.691  23.323  14.809
21053W        W21918   1.899  24.467  16.949
21054W        W21919   1.705  22.797  16.148
21055W        W21920   2.305  24.884  17.142
21056W        W21921   3.176  23.675  15.564
21057W        W21922   2.078  22.333  15.580
21058W        W21923   0.735  25.027  15.263
21059W        W21924   0.106  22.526  15.862
21060W        W21925   2.892  23.133  16.336
21061W        W21926   0.350  24.750  16.251
21062W        W21927   1.691  25.100  15.121
21063W        W21928   3.083  23.126  14.585
21064W        W21929   0.106  24.884  16.749
21065W        W21930   0.897  24.456  17.229
21066W        W21931   1.270  23.816  15.848
21067W        W21932   1.292  22.221  16.941
21068W        W21933   3.521  21.983  16.238
21069W        W21934   0.740  23.855  14.706
21070W        W21935   0.395  22.888  14.885
21071W        W21936   0.457  24.844  15.679
21072W        W21937   1.588  24.327  15.927
21073W        W21938   2.920  25.186  17.641
21074W        W21939   1.846  22.828  15.325
21075W        W21940   3.229  25.226  16.097
21076W        W21941   2.906  23.079  17.695
21077W        W21942   3.619  24.735  15.829
21078W        W21943   2.246  24.027  17.313
21079W        W21944   0.012  23.578  15.519
21080W        W21945   1.123  23.993  17.092
21081W        W21946   2.327  23.257  15.470
21082W        W21947   2.204  23.747  15.574
21083W        W21948   0.547  23.167  17.048
21084W        W21949   0.532  23.043  17.970
21085W        W21950   0.422  21.960  16.129
21086W        W21951   2.190  22.307  16.690
21087W        W21952   1.838  22.492  17.853
21088W        W21953   2.193  22.641  15.031
21089W        W21954   3.376  25.034  17.785
21090W        W21955   2.343  22.115  17.824
21091W        W21956   3.362  24.416  17.946
21092W        W21957   2.792  22.583  17.542
21093W        W21958   2.592  22.521  15.812
21094W        W21959   2.985  23.655  18.216
21095W        W21960   0.725  25.231  16.202
21096W        W21961   1.383  22.948  15.188
21097W        W21962   0.952  22.232  17.852
21098W        W21963   3.004  22.716  15.533
21099W        W21964   3.371  23.198  15.478
21100W        W21965   1.114  25.415  17.949
21101W        W21966   1.040  21.951  15.184
21102W        W21967   3.361  22.485  16.219
21103W        W21968   3.511  24.734  14.664
21104W        W21969   0.418  23.937  16.366
21105W        W21970   2.335  22.524  14.596
21106W        W21971   3.469  24.856  16.316
21107W        W21972   3.508  22.050  17.066
21108W        W21973   1.953  23.262  17.620
21109W        W21974   2.046  24.601  15.323
21110W        W21975   2.446  23.895  18.063
21111W        W21976   2.120  21.872  16.372
21112W        W21977   0.732  22.775  16.435
21113W        W21978   0.286  23.975  17.209
21114W        W21979   2.145  25.168  15.915
21115W        W21980   3.339  22.765  16.787
21116W        W21981   1.976  25.112  17.554
21117W        W21982   3.319  24.171  14.759
21118W        W21983   1.754  23.654  15.820
21119W        W21984   3.606  22.165  17.561
21120W        W21985   1.755  24.000  17.155
21121W        W21986   1.972  22.886  16.600
21122W        W21987   2.824  23.184  15.438
21123W        W21988   3.111  22.917  15.080
21124W        W21989   2.920  24.957  15.469
21125W        W21990   2.754  24.560  16.265
21126W        W21991   2.650  23.639  15.243
21127W        W21992   2.083  23.849  16.229
21128W        W21993   2.964  23.637  16.296
21129W        W21994   0.339  22.652  16.720
21130W        W21995   3.117  23.704  17.547
21131W        W21996   3.468  25.322  16.693
21132W        W21997   1.398  24.766  16.095
21133W        W21998   2.405  25.299  17.419
21134W        W21999   2.399  22.629  17.183
21135W        W22000   1.606  25.337  17.244
21136W        W22001   3.303  22.291  15.710
21137W        W22002   3.094  23.610  17.011
21138W        W22003   0.077  22.931  17.049
21139W        W22004   2.937  22.726  16.067
21140W        W22005   3.348  22.877  17.844
21141W        W22006   2.233  24.576  16.062
21142W        W22007   1.489  25.167  15.675
21143W        W22008   0.604  22.347  14.933
21144W        W22009   1.708  22.001  16.743
21145W        W22010   0.736  25.121  14.591
21146W        W22011   1.110  23.587  15.342
21147W        W22012   1.764  24.216  17.655
21148W        W22013   1.594  22.574  15.645
21149W        W22014   2.950  22.171  16.073
21150W        W22015   2.670  25.453  16.401
21151W        W22016   2.082  25.101  16.741
21152W        W22017   1.478  24.138  16.702
21153W        W22018   3.248  24.861  16.828
21154W        W22019   0.942  22.364  15.597
21155W        W22020   1.464  24.661  16.557
21156W        W22021   0.947  22.592  14.622
21157W        W22022   1.748  23.201  17.016
21158W        W22023   2.596  22.067  16.886
21159W        W22024   0.016  23.910  16.771
21160W        W22025   1.720  23.728  14.929
21161W        W22026   0.988  22.043  14.699
21162W        W22027   1.726  23.124  15.750
21163W        W22028   2.696  22.100  17.449
21164W        W22029   1.284  24.112  17.558
21165W        W22030   2.088  23.894  17.775
21166W        W22031   2.705  23.924  17.668
21167W        W22032   1.989  22.064  18.173
21168W        W22033   1.211  22.680  16.566
21169W        W22034   0.637  22.636  15.964
21170W        W22035   0.423  25.348  15.640
21171W        W22036   1.755  24.678  17.765
21172W        W22037   0.790  24.163  15.124
21173W        W22038   2.470  23.548  16.345
21174W        W22039   2.750  23.347  16.744
21175W        W22040   1.955  24.021  16.678
21176W        W22041   2.425  24.395  14.810
21177W        W22042   2.097  22.416  16.138
21178W        W22043   3.576  22.694  15.406
21179W        W22044   0.070  25.283  17.437
21180W        W22045   0.487  24.509  16.969
21181W        W22046   0.054  25.355  15.201
21182W        W22047   1.953  22.625  17.007
21183W        W22048   1.316  24.648  14.856
21184W        W22049   3.221  25.030  15.042
21185W        W22050   2.196  23.683  15.056
21186W        W22051   1.039  22.874  15.573
21187W        W22052   1.871  22.784  14.625
21188W        W22053   2.455  24.349  17.803
21189W        W22054   2.808  22.255  15.420
21190W        W22055   0.138  22.103  14.868
21191W        W22056   1.424  24.422  17.158
21192W        W22057   1.223  24.338  16.250
21193W        W22058   0.965  24.290  14.648
21194W        W22059   0.206  24.531  15.416
21195W        W22060   0.710  23.601  17.858
21196W        W22061   1.414  22.161  18.044
21197W        W22062   2.123  22.303  17.400
21198W        W22063   1.318  22.071  15.681
21199W        W22064   2.377  22.148  15.186
21200W        W22065   0.322  22.080  16.763
21201W        W22066   0.370  23.043  16.133
21202W        W22067   3.059  22.151  16.539
21203W        W22068   0.481  22.649  15.353
21204W        W22069   3.052  22.337  16.969
21205W        W22070   3.448  23.540  14.654
21206W        W22071   0.740  22.298  16.473
21207W        W22072   1.854  22.870  17.413
21208W        W22073   0.002  22.560  14.891
21209W        W22074   0.788  23.949  17.452
21210W        W22075   2.146  23.347  16.631
21211W        W22076   2.013  25.426  14.927
21212W        W22077   0.159  23.933  14.624
21213W        W22078   0.894  24.344  17.750
21214W        W22079   0.415  23.511  17.381
21215W        W22080   1.406  23.616  17.175
21216W        W22081   3.174  21.975  17.437
21217W        W22082   3.572  23.585  17.428
21218W        W22083   3.560  23.785  15.114
21219W        W22084   2.423  24.117  15.213
21220W        W22085   2.897  25.417  14.908
21221W        W22086   2.074  23.407  18.050
21222W        W22087   0.404  24.374  18.090
21223W        W22088   3.610  22.296  18.042
21224W        W22089   3.328  23.224  16.663
21225W        W22090   1.636  25.354  18.140
21226W        W22091   1.491  21.983  14.867
21227W        W22092   3.030  24.582  14.810
21228W        W22093   0.799  22.675  17.696
21229W        W22094   1.233  24.669  17.558
21230W        W22095   3.359  22.660  17.356
21231W        W22096   2.570  25.319  15.324
21232W        W22097   2.809  23.938  16.691
21233W        W22098   1.059  22.354  17.358
21234W        W22099   1.528  23.423  18.115
21235W        W22100   1.031  24.602  15.309
21236W        W22101   2.786  24.100  15.573
21237W        W22102   0.554  22.726  17.297
21238W        W22103   1.883  24.788  15.761
21239W        W22104   3.633  23.348  15.942
21240W        W22105   1.855  21.981  17.661
21241W        W22106   2.635  24.686  16.740
21242W        W22107   2.938  25.030  16.448
21243W        W22108   2.157  24.832  14.876
21244W        W22109   0.167  24.724  17.718
21245W        W22110   0.910  22.716  16.956
21246W        W22111   0.880  22.064  16.066
21247W        W22112   2.501  22.906  16.758
21248W        W22113   1.299  24.077  14.958
21249W        W22114   3.297  24.019  16.457
21250W        W22115   0.624  24.777  17.880
21251W        W22116   3.011  25.459  15.677
21252W        W22117   1.110  22.479  16.122
21253W        W22118   0.879  23.972  16.212
21254W        W22119   1.192  25.383  16.962
21255W        W22120   3.259  25.479  17.994
21256W        W22121   2.418  23.667  16.927
21257W        W22122   0.267  23.465  14.842
21258W        W22123   3.401  25.123  15.539
21259W        W22124   3.238  22.447  15.158
21260W        W22125   1.377  21.966  17.561
21261W        W22126   3.083  24.768  16.019
21262W        W22127   3.112  23.324  15.924
21263W        W22128   1.229  22.997  16.140
21264W        W22129   1.474  23.259  17.464
21265W        W22130   2.585  24.412  17.327
21266W        W22131   1.235  22.866  17.439
21267W        W22132   1.214  25.332  16.055
21268W        W22133   0.531  25.291  17.689
21269W        W22134   0.643  24.652  14.819
21270W        W22135   3.160  24.410  15.629
21271W        W22136   0.764  23.202  17.515
21272W        W22137   3.537  23.132  14.996
21273W        W22138   1.282  24.189  15.467
21274W        W22139   2.381  23.571  17.548
21275W        W22140   2.272  23.199  17.092
21276W        W22141   0.832  23.571  17.121
21277W        W22142   3.042  25.459  16.950
21278W        W22143   2.833  22.093  17.944
21279W        W22144   0.497  22.243  17.531
21280W        W22145   0.836  23.266  16.584
21281W        W22146   1.205  23.080  14.706
21282W        W22147   0.008  24.839  17.251
21283W        W22148   1.593  23.548  16.694
21284W        W22149   1.416  22.573  14.799
21285W        W22150   0.551  23.389  15.580
21286W        W22151   0.322  25.241  17.017
21287W        W22152   3.117  23.467  15.125
21288W        W22153   3.212  22.383  17.811
21289W        W22154   2.648  24.592  15.774
21290W        W22155   0.246  23.516  17.951
21291W        W22156   3.212  21.980  15.247
21292W        W22157   2.732  24.455  15.258
21293W        W22158   1.634  23.513  15.343
21294W        W22159   2.821  22.317  14.866
21295W        W22160   2.886  22.924  17.052
21296W        W22161   0.595  23.517  16.259
21297W        W22162   0.889  24.456  15.908
21298W        W22163   2.652  23.076  15.873
21299W        W22164   1.675  22.455  16.569
21300W        W22165   3.637  24.366  17.080
21301W        W22166   3.555  22.353  16.641
21302W        W22167   0.094  25.183  16.017
21303W        W22168   0.603  24.370  15.553
21304W        W22169   0.518  21.987  18.106
21305W        W22170   1.637  24.840  18.208
21306W        W22171   3.392  23.808  15.998
21307W        W22172   2.746  23.985  14.878
21308W        W22173   2.041  25.506  17.090
21309W        W22174   2.898  24.228  18.127
21310W        W22175   1.713  21.938  15.407
21311W        W22176   2.426  22.807  16.266
21312W        W22177   0.112  24.394  16.598
21313W        W22178   1.365  22.356  15.239
21314W        W22179   1.169  23.840  18.088
21315W        W22180   2.163  22.821  15.802
21316W        W22181   2.368  24.231  16.924
21317W        W22182   0.522  24.836  17.359
21318W        W22183   1.113  24.819  18.082
21319W        W22184   0.964  22.616  15.096
21320W        W22185   2.481  22.758  15.421
21321W        W22186   2.439  24.866  17.658
21322W        W22187   1.124  23.458  16.257
21323W        W22188   0.779  25.156  17.122
21324W        W22189   3.524  25.273  14.723
21325W        W22190   0.387  23.945  17.719
21326W        W22191   2.382  24.207  16.407
21327W        W22192   0.818  23.856  15.649
21328W        W22193   1.189  24.863  17.044
21329W        W22194   1.567  22.282  16.085
21330W        W22195   0.178  24.266  15.015
21331W        W22196   1.697  23.217  14.885
21332W        W22197   0.343  23.766  15.904
21333W        W22198   1.633  22.408  17.368
21334W        W22199   3.305  22.117  14.795
21335W        W22200   3.398  23.863  17.894
21336W        W22201   2.052  25.120  18.046
21337W        W22202   3.610  24.214  17.568
21338W        W22203   3.018  25.012  18.179
21339W        W22204   0.757  25.468  16.657
21340W        W22205   3.616  24.090  15.531
21341W        W22206   2.146  23.357  16.044
21342W        W22207   1.913  21.969  15.934
21343W        W22208   0.972  24.953  15.771
21344W        W22209   1.471  22.694  16.996
21345W        W22210   1.171  22.063  16.465
21346W        W22211   0.234  24.885  15.013
21347W        W22212   2.050  24.249  15.731
21348W        W22213   0.925  25.044  17.610
21349W        W22214   0.402  23.867  15.306
21350W        W22215   0.287  22.410  16.305
21351W        W22216   1.835  24.375  16.362
21352W        W22217   0.087  22.229  15.382
21353W        W22218   2.751  23.435  17.309
21354W        W22219   2.628  22.821  14.881
21355W        W22220   3.145  24.493  16.529
21356W        W22221   1.806  24.977  16.360
21357W        W22222   1.218  25.081  15.271
21358W        W22223   2.500  21.984  14.701
21359W        W22224   0.300  25.244  16.442
21360W        W22225   2.497  23.002  18.077
21361W        W22226   0.480  22.532  18.076
21362W        W22227   0.211  23.132  15.409
21363W        W22228   0.902  23.121  15.134
21364W        W22229   2.665  23.448  17.951
21365W        W22230   1.008  23.729  16.660
21366W        W22231   2.482  22.015  15.780
21367W        W22232   1.613  25.446  16.283
21368W        W22233   2.827  24.908  17.220
21369W        W22234   2.411  25.057  16.331
21370W        W22235   2.430  24.037  15.925
21371W        W22236   1.892  22.262  14.996
21372W        W22237   3.573  21.890  15.718
21373W        W22238   1.261  23.525  14.881
21374W        W22239   3.427  22.862  15.871
21375W        W22240   2.119  24.032  14.748
21376W        W22241   3.055  24.232  17.496
21377W        W22242   2.709  24.933  14.963
21378W        W22243   1.324  22.608  17.869
21379W        W22244   1.144  23.192  17.110
21380W        W22245   3.236  24.687  17.387
21381W        W22246   2.336  22.637  17.764
21382W        W22247   0.180  23.108  17.541
21383W        W22248   1.940  23.585  17.267
21384W        W22249   0.297  24.343  15.924
21385W        W22250   0.444  23.640  16.814
21386W        W22251   2.761  23.926  17.164
21387W        W22252   2.533  25.306  17.975
21388W        W22253   2.429  23.045  17.528
21389W        W22254   2.706  25.099  15.933
21390W        W22255   1.708  24.819  17.256
21391W        W22256   1.193  25.174  16.525
21392W        W22257   2.998  24.345  16.944
21393W        W22258   2.048  24.417  18.081
21394W        W22259   0.653  24.370  16.420
21395W        W22260   2.999  24.129  16.065
21396W        W22261   2.640  25.195  16.816
21397W        W22262   0.618  24.924  16.686
21398W        W22263   1.639  22.976  17.896
21399W        W22264   2.090  25.142  15.407
21400W        W22265   1.398  24.397  18.045
21401W        W22266   1.524  24.635  15.422
21402W        W22267   0.745  23.375  14.681
21403W        W22268   0.084  25.461  21.580
21404W        W22269   0.460  24.354  21.103
21405W        W22270   3.165  24.084  18.873
21406W        W22271   3.295  25.169  20.900
21407W        W22272   1.213  25.160  18.426
21408W        W22273   1.296  23.312  19.409
21409W        W22274   0.811  23.160  19.573
21410W        W22275   1.802  23.975  19.007
21411W        W22276   1.477  25.067  21.362
21412W        W22277   0.126  22.628  21.325
21413W        W22278   0.888  21.908  21.127
21414W        W22279   2.582  22.296  20.014
21415W        W22280   2.231  23.167  18.584
21416W        W22281   2.801  22.601  21.675
21417W        W22282   0.167  22.393  20.800
21418W        W22283   0.266  25.012  21.821
21419W        W22284   1.788  24.402  18.553
21420W        W22285   0.220  23.185  20.246
21421W        W22286   1.113  23.076  21.483
21422W        W22287   3.572  22.935  19.982
21423W        W22288   3.336  23.978  20.841
21424W        W22289   1.644  23.311  19.868
21425W        W22290   2.190  24.650  20.237
21426W        W22291   0.690  24.084  20.469
21427W        W22292   0.049  23.612  20.040
21428W        W22293   1.085  23.584  21.232
21429W        W22294   3.356  23.367  21.486
21430W        W22295   0.972  24.811  19.931
21431W        W22296   2.093  24.500  21.065
21432W        W22297   1.313  23.140  20.290
21433W        W22298   1.605  23.924  19.933
21434W        W22299   2.602  24.697  21.781
21435W        W22300   1.681  24.017  21.791
21436W        W22301   1.662  23.733  21.269
21437W        W22302   0.071  23.124  21.791
21438W        W22303   2.903  24.659  21.390
21439W        W22304   0.484  22.241  19.388
21440W        W22305   1.011  24.499  20.387
21441W        W22306   3.474  24.282  19.677
21442W        W22307   2.887  22.682  20.244
21443W        W22308   3.172  22.635  18.339
21444W        W22309   3.637  23.436  20.645
21445W        W22310   1.604  25.143  20.398
21446W        W22311   3.378  24.609  18.836
21447W        W22312   0.507  25.395  18.590
21448W        W22313   0.900  25.441  19.266
21449W        W22314   0.697  22.195  20.692
21450W        W22315   3.320  23.213  20.967
21451W        W22316   2.725  23.635  19.426
21452W        W22317   2.691  23.323  18.453
21453W        W22318   1.899  24.467  20.593
21454W        W22319   1.705  22.797  19.792
21455W        W22320   2.305  24.884  20.786
21456W        W22321   3.176  23.675  19.208
21457W        W22322   2.078  22.333  19.224
21458W        W22323   0.735  25.027  18.907
21459W        W22324   0.106  22.526  19.506
21460W        W22325   2.892  23.133  19.980
21461W        W22326   0.350  24.750  19.895
21462W        W22327   1.691  25.100  18.765
21463W        W22328   3.083  23.126  18.229
21464W        W22329   0.106  24.884  20.393
21465W        W22330   0.897  24.456  20.873
21466W        W22331   1.270  23.816  19.492
21467W        W22332   1.292  22.221  20.585
21468W        W22333   3.521  21.983  19.882
21469W        W22334   0.740  23.855  18.350
21470W        W22335   0.395  22.888  18.529
21471W        W22336   0.457  24.844  19.323
21472W        W22337   1.588  24.327  19.571
21473W        W22338   2.920  25.186  21.285
21474W        W22339   1.846  22.828  18.969
21475W        W22340   3.229  25.226  19.741
21476W        W22341   2.906  23.079  21.339
21477W        W22342   3.619  24.735  19.473
21478W        W22343   2.246  24.027  20.957
21479W        W22344   0.012  23.578  19.163
21480W        W22345   1.123  23.993  20.736
21481W        W22346   2.327  23.257  19.114
21482W        W22347   2.204  23.747  19.218
21483W        W22348   0.547  23.167  20.692
21484W        W22349   0.532  23.043  21.614
21485W        W22350   0.422  21.960  19.773
21486W        W22351   2.190  22.307  20.334
21487W        W22352   1.838  22.492  21.497
21488W        W22353   2.193  22.641  18.675
21489W        W22354   3.376  25.034  21.429
21490W        W22355   2.343  22.115  21.468
21491W        W22356   3.362  24.416  21.590
21492W        W22357   2.792  22.583  21.186
21493W        W22358   2.592  22.521  19.456
21494W        W22359   2.985  23.655  21.860
21495W        W22360   0.725  25.231  19.846
21496W        W22361   1.383  22.948  18.832
21497W        W22362   0.952  22.232  21.496
21498W        W22363   3.004  22.716  19.177
21499W        W22364   3.371  23.198  19.122
21500W        W22365   1.114  25.415  21.593
21501W        W22366   1.040  21.951  18.828
21502W        W22367   3.361  22.485  19.863
21503W        W22368   3.511  24.734  18.308
21504W        W22369   0.418  23.937  20.010
21505W        W22370   2.335  22.524  18.240
21506W        W22371   3.469  24.856  19.960
21507W        W22372   3.508  22.050  20.710
21508W        W22373   1.953  23.262  21.264
21509W        W22374   2.046  24.601  18.967
21510W        W22375   2.446  23.895  21.707
21511W        W22376   2.120  21.872  20.016
21512W        W22377   0.732  22.775  20.079
21513W        W22378   0.286  23.975  20.853
21514W        W22379   2.145  25.168  19.559
21515W        W22380   3.339  22.765  20.431
21516W        W22381   1.976  25.112  21.198
21517W        W22382   3.319  24.171  18.403
21518W        W22383   1.754  23.654  19.464
21519W        W22384   3.606  22.165  21.205
21520W        W22385   1.755  24.000  20.799
21521W        W22386   1.972  22.886  20.244
21522W        W22387   2.824  23.184  19.082
21523W        W22388   3.111  22.917  18.724
21524W        W22389   2.920  24.957  19.113
21525W        W22390   2.754  24.560  19.909
21526W        W22391   2.650  23.639  18.887
21527W        W22392   2.083  23.849  19.873
21528W        W22393   2.964  23.637  19.940
21529W        W22394   0.339  22.652  20.364
21530W        W22395   3.117  23.704  21.191
21531W        W22396   3.468  25.322  20.337
21532W        W22397   1.398  24.766  19.739
21533W        W22398   2.405  25.299  21.063
21534W        W22399   2.399  22.629  20.827
21535W        W22400   1.606  25.337  20.888
21536W        W22401   3.303  22.291  19.354
21537W        W22402   3.094  23.610  20.655
21538W        W22403   0.077  22.931  20.693
21539W        W22404   2.937  22.726  19.711
21540W        W22405   3.348  22.877  21.488
21541W        W22406   2.233  24.576  19.706
21542W        W22407   1.489  25.167  19.319
21543W        W22408   0.604  22.347  18.577
21544W        W22409   1.708  22.001  20.387
21545W        W22410   0.736  25.121  18.235
21546W        W22411   1.110  23.587  18.986
21547W        W22412   1.764  24.216  21.299
21548W        W22413   1.594  22.574  19.289
21549W        W22414   2.950  22.171  19.717
21550W        W22415   2.670  25.453  20.045
21551W        W22416   2.082  25.101  20.385
21552W        W22417   1.478  24.138  20.346
21553W        W22418   3.248  24.861  20.472
21554W        W22419   0.942  22.364  19.241
21555W        W22420   1.464  24.661  20.201
21556W        W22421   0.947  22.592  18.266
21557W        W22422   1.748  23.201  20.660
21558W        W22423   2.596  22.067  20.530
21559W        W22424   0.016  23.910  20.415
21560W        W22425   1.720  23.728  18.573
21561W        W22426   0.988  22.043  18.343
21562W        W22427   1.726  23.124  19.394
21563W        W22428   2.696  22.100  21.093
21564W        W22429   1.284  24.112  21.202
21565W        W22430   2.088  23.894  21.419
21566W        W22431   2.705  23.924  21.312
21567W        W22432   1.989  22.064  21.817
21568W        W22433   1.211  22.680  20.210
21569W        W22434   0.637  22.636  19.608
21570W        W22435   0.423  25.348  19.284
21571W        W22436   1.755  24.678  21.409
21572W        W22437   0.790  24.163  18.768
21573W        W22438   2.470  23.548  19.989
21574W        W22439   2.750  23.347  20.388
21575W        W22440   1.955  24.021  20.322
21576W        W22441   2.425  24.395  18.454
21577W        W22442   2.097  22.416  19.782
21578W        W22443   3.576  22.694  19.050
21579W        W22444   0.070  25.283  21.081
21580W        W22445   0.487  24.509  20.613
21581W        W22446   0.054  25.355  18.845
21582W        W22447   1.953  22.625  20.651
21583W        W22448   1.316  24.648  18.500
21584W        W22449   3.221  25.030  18.686
21585W        W22450   2.196  23.683  18.700
21586W        W22451   1.039  22.874  19.217
21587W        W22452   1.871  22.784  18.269
21588W        W22453   2.455  24.349  21.447
21589W        W22454   2.808  22.255  19.064
21590W        W22455   0.138  22.103  18.512
21591W        W22456   1.424  24.422  20.802
21592W        W22457   1.223  24.338  19.894
21593W        W22458   0.965  24.290  18.292
21594W        W22459   0.206  24.531  19.060
21595W        W22460   0.710  23.601  21.502
21596W        W22461   1.414  22.161  21.688
21597W        W22462   2.123  22.303  21.044
21598W        W22463   1.318  22.071  19.325
21599W        W22464   2.377  22.148  18.830
21600W        W22465   0.322  22.080  20.407
21601W        W22466   0.370  23.043  19.777
21602W        W22467   3.059  22.151  20.183
21603W        W22468   0.481  22.649  18.997
21604W        W22469   3.052  22.337  20.613
21605W        W22470   3.448  23.540  18.298
21606W        W22471   0.740  22.298  20.117
21607W        W22472   1.854  22.870  21.057
21608W        W22473   0.002  22.560  18.535
21609W        W22474   0.788  23.949  21.096
21610W        W22475   2.146  23.347  20.275
21611W        W22476   2.013  25.426  18.571
21612W        W22477   0.159  23.933  18.268
21613W        W22478   0.894  24.344  21.394
21614W        W22479   0.415  23.511  21.025
21615W        W22480   1.406  23.616  20.819
21616W        W22481   3.174  21.975  21.081
21617W        W22482   3.572  23.585  21.072
21618W        W22483   3.560  23.785  18.758
21619W        W22484   2.423  24.117  18.857
21620W        W22485   2.897  25.417  18.552
21621W        W22486   2.074  23.407  21.694
21622W        W22487   0.404  24.374  21.734
21623W        W22488   3.610  22.296  21.686
21624W        W22489   3.328  23.224  20.307
21625W        W22490   1.636  25.354  21.784
21626W        W22491   1.491  21.983  18.511
21627W        W22492   3.030  24.582  18.454
21628W        W22493   0.799  22.675  21.340
21629W        W22494   1.233  24.669  21.202
21630W        W22495   3.359  22.660  21.000
21631W        W22496   2.570  25.319  18.968
21632W        W22497   2.809  23.938  20.335
21633W        W22498   1.059  22.354  21.002
21634W        W22499   1.528  23.423  21.759
21635W        W22500   1.031  24.602  18.953
21636W        W22501   2.786  24.100  19.217
21637W        W22502   0.554  22.726  20.941
21638W        W22503   1.883  24.788  19.405
21639W        W22504   3.633  23.348  19.586
21640W        W22505   1.855  21.981  21.305
21641W        W22506   2.635  24.686  20.384
21642W        W22507   2.938  25.030  20.092
21643W        W22508   2.157  24.832  18.520
21644W        W22509   0.167  24.724  21.362
21645W        W22510   0.910  22.716  20.600
21646W        W22511   0.880  22.064  19.710
21647W        W22512   2.501  22.906  20.402
21648W        W22513   1.299  24.077  18.602
21649W        W22514   3.297  24.019  20.101
21650W        W22515   0.624  24.777  21.524
21651W        W22516   3.011  25.459  19.321
21652W        W22517   1.110  22.479  19.766
21653W        W22518   0.879  23.972  19.856
21654W        W22519   1.192  25.383  20.606
21655W        W22520   3.259  25.479  21.638
21656W        W22521   2.418  23.667  20.571
21657W        W22522   0.267  23.465  18.486
21658W        W22523   3.401  25.123  19.183
21659W        W22524   3.238  22.447  18.802
21660W        W22525   1.377  21.966  21.205
21661W        W22526   3.083  24.768  19.663
21662W        W22527   3.112  23.324  19.568
21663W        W22528   1.229  22.997  19.784
21664W        W22529   1.474  23.259  21.108
21665W        W22530   2.585  24.412  20.971
21666W        W22531   1.235  22.866  21.083
21667W        W22532   1.214  25.332  19.699
21668W        W22533   0.531  25.291  21.333
21669W        W22534   0.643  24.652  18.463
21670W        W22535   3.160  24.410  19.273
21671W        W22536   0.764  23.202  21.159
21672W        W22537   3.537  23.132  18.640
21673W        W22538   1.282  24.189  19.111
21674W        W22539   2.381  23.571  21.192
21675W        W22540   2.272  23.199  20.736
21676W        W22541   0.832  23.571  20.765
21677W        W22542   3.042  25.459  20.594
21678W        W22543   2.833  22.093  21.588
21679W        W22544   0.497  22.243  21.175
21680W        W22545   0.836  23.266  20.228
21681W        W22546   1.205  23.080  18.350
21682W        W22547   0.008  24.839  20.895
21683W        W22548   1.593  23.548  20.338
21684W        W22549   1.416  22.573  18.443
21685W        W22550   0.551  23.389  19.224
21686W        W22551   0.322  25.241  20.661
21687W        W22552   3.117  23.467  18.769
21688W        W22553   3.212  22.383  21.455
21689W        W22554   2.648  24.592  19.418
21690W        W22555   0.246  23.516  21.595
21691W        W22556   3.212  21.980  18.891
21692W        W22557   2.732  24.455  18.902
21693W        W22558   1.634  23.513  18.987
21694W        W22559   2.821  22.317  18.510
21695W        W22560   2.886  22.924  20.696
21696W        W22561   0.595  23.517  19.903
21697W        W22562   0.889  24.456  19.552
21698W        W22563   2.652  23.076  19.517
21699W        W22564   1.675  22.455  20.213
21700W        W22565   3.637  24.366  20.724
21701W        W22566   3.555  22.353  20.285
21702W        W22567   0.094  25.183  19.661
21703W        W22568   0.603  24.370  19.197
21704W        W22569   0.518  21.987  21.750
21705W        W22570   1.637  24.840  21.852
21706W        W22571   3.392  23.808  19.642
21707W        W22572   2.746  23.985  18.522
21708W        W22573   2.041  25.506  20.734
21709W        W22574   2.898  24.228  21.771
21710W        W22575   1.713  21.938  19.051
21711W        W22576   2.426  22.807  19.910
21712W        W22577   0.112  24.394  20.242
21713W        W22578   1.365  22.356  18.883
21714W        W22579   1.169  23.840  21.732
21715W        W22580   2.163  22.821  19.446
21716W        W22581   2.368  24.231  20.568
21717W        W22582   0.522  24.836  21.003
21718W        W22583   1.113  24.819  21.726
21719W        W22584   0.964  22.616  18.740
21720W        W22585   2.481  22.758  19.065
21721W        W22586   2.439  24.866  21.302
21722W        W22587   1.124  23.458  19.901
21723W        W22588   0.779  25.156  20.766
21724W        W22589   3.524  25.273  18.367
21725W        W22590   0.387  23.945  21.363
21726W        W22591   2.382  24.207  20.051
21727W        W22592   0.818  23.856  19.293
21728W        W22593   1.189  24.863  20.688
21729W        W22594   1.567  22.282  19.729
21730W        W22595   0.178  24.266  18.659
21731W        W22596   1.697  23.217  18.529
21732W        W22597   0.343  23.766  19.548
21733W        W22598   1.633  22.408  21.012
21734W        W22599   3.305  22.117  18.439
21735W        W22600   3.398  23.863  21.538
21736W        W22601   2.052  25.120  21.690
21737W        W22602   3.610  24.214  21.212
21738W        W22603   3.018  25.012  21.823
21739W        W22604   0.757  25.468  20.301
21740W        W22605   3.616  24.090  19.175
21741W        W22606   2.146  23.357  19.688
21742W        W22607   1.913  21.969  19.578
21743W        W22608   0.972  24.953  19.415
21744W        W22609   1.471  22.694  20.640
21745W        W22610   1.171  22.063  20.109
21746W        W22611   0.234  24.885  18.657
21747W        W22612   2.050  24.249  19.375
21748W        W22613   0.925  25.044  21.254
21749W        W22614   0.402  23.867  18.950
21750W        W22615   0.287  22.410  19.949
21751W        W22616   1.835  24.375  20.006
21752W        W22617   0.087  22.229  19.026
21753W        W22618   2.751  23.435  20.953
21754W        W22619   2.628  22.821  18.525
21755W        W22620   3.145  24.493  20.173
21756W        W22621   1.806  24.977  20.004
21757W        W22622   1.218  25.081  18.915
21758W        W22623   2.500  21.984  18.345
21759W        W22624   0.300  25.244  20.086
21760W        W22625   2.497  23.002  21.721
21761W        W22626   0.480  22.532  21.720
21762W        W22627   0.211  23.132  19.053
21763W        W22628   0.902  23.121  18.778
21764W        W22629   2.665  23.448  21.595
21765W        W22630   1.008  23.729  20.304
21766W        W22631   2.482  22.015  19.424
21767W        W22632   1.613  25.446  19.927
21768W        W22633   2.827  24.908  20.864
21769W        W22634   2.411  25.057  19.975
21770W        W22635   2.430  24.037  19.569
21771W        W22636   1.892  22.262  18.640
21772W        W22637   3.573  21.890  19.362
21773W        W22638   1.261  23.525  18.525
21774W        W22639   3.427  22.862  19.515
21775W        W22640   2.119  24.032  18.392
21776W        W22641   3.055  24.232  21.140
21777W        W22642   2.709  24.933  18.607
21778W        W22643   1.324  22.608  21.513
21779W        W22644   1.144  23.192  20.754
21780W        W22645   3.236  24.687  21.031
21781W        W22646   2.336  22.637  21.408
21782W        W22647   1.940  23.585  20.911
21783W        W22648   0.297  24.343  19.568
21784W        W22649   0.444  23.640  20.458
21785W        W22650   2.761  23.926  20.808
21786W        W22651   2.533  25.306  21.619
21787W        W22652   2.429  23.045  21.172
21788W        W22653   2.706  25.099  19.577
21789W        W22654   1.708  24.819  20.900
21790W        W22655   1.193  25.174  20.169
21791W        W22656   2.998  24.345  20.588
21792W        W22657   2.048  24.417  21.725
21793W        W22658   0.653  24.370  20.064
21794W        W22659   2.999  24.129  19.709
21795W        W22660   2.640  25.195  20.460
21796W        W22661   0.618  24.924  20.330
21797W        W22662   1.639  22.976  21.540
21798W        W22663   2.090  25.142  19.051
21799W        W22664   1.398  24.397  21.689
21800W        W22665   1.524  24.635  19.066
21801W        W22666   0.745  23.375  18.325
21802W        W22667   0.084  25.461  25.225
21803W        W22668   0.460  24.354  24.748
21804W        W22669   3.165  24.084  22.518
21805W        W22670   3.295  25.169  24.545
21806W        W22671   1.213  25.160  22.071
21807W        W22672   1.296  23.312  23.054
21808W        W22673   0.811  23.160  23.218
21809W        W22674   1.802  23.975  22.652
21810W        W22675   1.477  25.067  25.007
21811W        W22676   0.126  22.628  24.970
21812W        W22677   0.888  21.908  24.772
21813W        W22678   2.582  22.296  23.659
21814W        W22679   2.231  23.167  22.229
21815W        W22680   2.801  22.601  25.320
21816W        W22681   0.167  22.393  24.445
21817W        W22682   0.266  25.012  25.466
21818W        W22683   1.788  24.402  22.198
21819W        W22684   0.220  23.185  23.891
21820W        W22685   1.113  23.076  25.128
21821W        W22686   3.572  22.935  23.627
21822W        W22687   3.336  23.978  24.486
21823W        W22688   1.644  23.311  23.513
21824W        W22689   2.190  24.650  23.882
21825W        W22690   0.690  24.084  24.114
21826W        W22691   0.049  23.612  23.685
21827W        W22692   1.085  23.584  24.877
21828W        W22693   3.356  23.367  25.131
21829W        W22694   0.972  24.811  23.576
21830W        W22695   2.093  24.500  24.710
21831W        W22696   1.313  23.140  23.935
21832W        W22697   1.605  23.924  23.578
21833W        W22698   2.602  24.697  25.426
21834W        W22699   1.681  24.017  25.436
21835W        W22700   1.662  23.733  24.914
21836W        W22701   0.071  23.124  25.436
21837W        W22702   2.903  24.659  25.035
21838W        W22703   0.484  22.241  23.033
21839W        W22704   1.011  24.499  24.032
21840W        W22705   3.474  24.282  23.322
21841W        W22706   2.887  22.682  23.889
21842W        W22707   3.172  22.635  21.984
21843W        W22708   3.637  23.436  24.290
21844W        W22709   1.604  25.143  24.043
21845W        W22710   3.378  24.609  22.481
21846W        W22711   0.507  25.395  22.235
21847W        W22712   0.900  25.441  22.911
21848W        W22713   0.697  22.195  24.337
21849W        W22714   3.320  23.213  24.612
21850W        W22715   2.725  23.635  23.071
21851W        W22716   2.691  23.323  22.098
21852W        W22717   1.899  24.467  24.238
21853W        W22718   1.705  22.797  23.437
21854W        W22719   2.305  24.884  24.431
21855W        W22720   3.176  23.675  22.853
21856W        W22721   2.078  22.333  22.869
21857W        W22722   0.735  25.027  22.552
21858W        W22723   0.106  22.526  23.151
21859W        W22724   2.892  23.133  23.625
21860W        W22725   0.350  24.750  23.540
21861W        W22726   1.691  25.100  22.410
21862W        W22727   3.083  23.126  21.874
21863W        W22728   0.106  24.884  24.038
21864W        W22729   0.897  24.456  24.518
21865W        W22730   1.270  23.816  23.137
21866W        W22731   1.292  22.221  24.230
21867W        W22732   3.521  21.983  23.527
21868W        W22733   0.740  23.855  21.995
21869W        W22734   0.395  22.888  22.174
21870W        W22735   0.457  24.844  22.968
21871W        W22736   1.588  24.327  23.216
21872W        W22737   2.920  25.186  24.930
21873W        W22738   1.846  22.828  22.614
21874W        W22739   3.229  25.226  23.386
21875W        W22740   2.906  23.079  24.984
21876W        W22741   3.619  24.735  23.118
21877W        W22742   2.246  24.027  24.602
21878W        W22743   0.012  23.578  22.808
21879W        W22744   1.123  23.993  24.381
21880W        W22745   2.327  23.257  22.759
21881W        W22746   2.204  23.747  22.863
21882W        W22747   0.547  23.167  24.337
21883W        W22748   0.532  23.043  25.259
21884W        W22749   0.422  21.960  23.418
21885W        W22750   2.190  22.307  23.979
21886W        W22751   1.838  22.492  25.142
21887W        W22752   2.193  22.641  22.320
21888W        W22753   3.376  25.034  25.074
21889W        W22754   2.343  22.115  25.113
21890W        W22755   3.362  24.416  25.235
21891W        W22756   2.792  22.583  24.831
21892W        W22757   2.592  22.521  23.101
21893W        W22758   2.985  23.655  25.505
21894W        W22759   0.725  25.231  23.491
21895W        W22760   1.383  22.948  22.477
21896W        W22761   0.952  22.232  25.141
21897W        W22762   3.004  22.716  22.822
21898W        W22763   3.371  23.198  22.767
21899W        W22764   1.114  25.415  25.238
21900W        W22765   1.040  21.951  22.473
21901W        W22766   3.361  22.485  23.508
21902W        W22767   3.511  24.734  21.953
21903W        W22768   0.418  23.937  23.655
21904W        W22769   2.335  22.524  21.885
21905W        W22770   3.469  24.856  23.605
21906W        W22771   3.508  22.050  24.355
21907W        W22772   1.953  23.262  24.909
21908W        W22773   2.046  24.601  22.612
21909W        W22774   2.446  23.895  25.352
21910W        W22775   2.120  21.872  23.661
21911W        W22776   0.732  22.775  23.724
21912W        W22777   0.286  23.975  24.498
21913W        W22778   2.145  25.168  23.204
21914W        W22779   3.339  22.765  24.076
21915W        W22780   1.976  25.112  24.843
21916W        W22781   3.319  24.171  22.048
21917W        W22782   1.754  23.654  23.109
21918W        W22783   3.606  22.165  24.850
21919W        W22784   1.755  24.000  24.444
21920W        W22785   1.972  22.886  23.889
21921W        W22786   2.824  23.184  22.727
21922W        W22787   3.111  22.917  22.369
21923W        W22788   2.920  24.957  22.758
21924W        W22789   2.754  24.560  23.554
21925W        W22790   2.650  23.639  22.532
21926W        W22791   2.083  23.849  23.518
21927W        W22792   2.964  23.637  23.585
21928W        W22793   0.339  22.652  24.009
21929W        W22794   3.117  23.704  24.836
21930W        W22795   3.468  25.322  23.982
21931W        W22796   1.398  24.766  23.384
21932W        W22797   2.405  25.299  24.708
21933W        W22798   2.399  22.629  24.472
21934W        W22799   1.606  25.337  24.533
21935W        W22800   3.303  22.291  22.999
21936W        W22801   3.094  23.610  24.300
21937W        W22802   0.077  22.931  24.338
21938W        W22803   2.937  22.726  23.356
21939W        W22804   3.348  22.877  25.133
21940W        W22805   2.233  24.576  23.351
21941W        W22806   1.489  25.167  22.964
21942W        W22807   0.604  22.347  22.222
21943W        W22808   1.708  22.001  24.032
21944W        W22809   0.736  25.121  21.880
21945W        W22810   1.110  23.587  22.631
21946W        W22811   1.764  24.216  24.944
21947W        W22812   1.594  22.574  22.934
21948W        W22813   2.950  22.171  23.362
21949W        W22814   2.670  25.453  23.690
21950W        W22815   2.082  25.101  24.030
21951W        W22816   1.478  24.138  23.991
21952W        W22817   3.248  24.861  24.117
21953W        W22818   0.942  22.364  22.886
21954W        W22819   1.464  24.661  23.846
21955W        W22820   0.947  22.592  21.911
21956W        W22821   1.748  23.201  24.305
21957W        W22822   2.596  22.067  24.175
21958W        W22823   0.016  23.910  24.060
21959W        W22824   1.720  23.728  22.218
21960W        W22825   0.988  22.043  21.988
21961W        W22826   1.726  23.124  23.039
21962W        W22827   2.696  22.100  24.738
21963W        W22828   1.284  24.112  24.847
21964W        W22829   2.088  23.894  25.064
21965W        W22830   2.705  23.924  24.957
21966W        W22831   1.989  22.064  25.462
21967W        W22832   1.211  22.680  23.855
21968W        W22833   0.637  22.636  23.253
21969W        W22834   0.423  25.348  22.929
21970W        W22835   1.755  24.678  25.054
21971W        W22836   0.790  24.163  22.413
21972W        W22837   2.470  23.548  23.634
21973W        W22838   2.750  23.347  24.033
21974W        W22839   1.955  24.021  23.967
21975W        W22840   2.425  24.395  22.099
21976W        W22841   2.097  22.416  23.427
21977W        W22842   3.576  22.694  22.695
21978W        W22843   0.070  25.283  24.726
21979W        W22844   0.487  24.509  24.258
21980W        W22845   0.054  25.355  22.490
21981W        W22846   1.953  22.625  24.296
21982W        W22847   1.316  24.648  22.145
21983W        W22848   3.221  25.030  22.331
21984W        W22849   2.196  23.683  22.345
21985W        W22850   1.039  22.874  22.862
21986W        W22851   1.871  22.784  21.914
21987W        W22852   2.455  24.349  25.092
21988W        W22853   2.808  22.255  22.709
21989W        W22854   0.138  22.103  22.157
21990W        W22855   1.424  24.422  24.447
21991W        W22856   1.223  24.338  23.539
21992W        W22857   0.965  24.290  21.937
21993W        W22858   0.206  24.531  22.705
21994W        W22859   0.710  23.601  25.147
21995W        W22860   1.414  22.161  25.333
21996W        W22861   2.123  22.303  24.689
21997W        W22862   1.318  22.071  22.970
21998W        W22863   2.377  22.148  22.475
21999W        W22864   0.322  22.080  24.052
22000W        W22865   0.370  23.043  23.422
22001W        W22866   3.059  22.151  23.828
22002W        W22867   0.481  22.649  22.642
22003W        W22868   3.052  22.337  24.258
22004W        W22869   3.448  23.540  21.943
22005W        W22870   0.740  22.298  23.762
22006W        W22871   1.854  22.870  24.702
22007W        W22872   0.002  22.560  22.180
22008W        W22873   0.788  23.949  24.741
22009W        W22874   2.146  23.347  23.920
22010W        W22875   2.013  25.426  22.216
22011W        W22876   0.159  23.933  21.913
22012W        W22877   0.894  24.344  25.039
22013W        W22878   0.415  23.511  24.670
22014W        W22879   1.406  23.616  24.464
22015W        W22880   3.174  21.975  24.726
22016W        W22881   3.572  23.585  24.717
22017W        W22882   3.560  23.785  22.403
22018W        W22883   2.423  24.117  22.502
22019W        W22884   2.897  25.417  22.197
22020W        W22885   2.074  23.407  25.339
22021W        W22886   0.404  24.374  25.379
22022W        W22887   3.610  22.296  25.331
22023W        W22888   3.328  23.224  23.952
22024W        W22889   1.636  25.354  25.429
22025W        W22890   1.491  21.983  22.156
22026W        W22891   3.030  24.582  22.099
22027W        W22892   0.799  22.675  24.985
22028W        W22893   1.233  24.669  24.847
22029W        W22894   3.359  22.660  24.645
22030W        W22895   2.570  25.319  22.613
22031W        W22896   2.809  23.938  23.980
22032W        W22897   1.059  22.354  24.647
22033W        W22898   1.528  23.423  25.404
22034W        W22899   1.031  24.602  22.598
22035W        W22900   2.786  24.100  22.862
22036W        W22901   0.554  22.726  24.586
22037W        W22902   1.883  24.788  23.050
22038W        W22903   3.633  23.348  23.231
22039W        W22904   1.855  21.981  24.950
22040W        W22905   2.635  24.686  24.029
22041W        W22906   2.938  25.030  23.737
22042W        W22907   2.157  24.832  22.165
22043W        W22908   0.167  24.724  25.007
22044W        W22909   0.910  22.716  24.245
22045W        W22910   0.880  22.064  23.355
22046W        W22911   2.501  22.906  24.047
22047W        W22912   1.299  24.077  22.247
22048W        W22913   3.297  24.019  23.746
22049W        W22914   0.624  24.777  25.169
22050W        W22915   3.011  25.459  22.966
22051W        W22916   1.110  22.479  23.411
22052W        W22917   0.879  23.972  23.501
22053W        W22918   1.192  25.383  24.251
22054W        W22919   3.259  25.479  25.283
22055W        W22920   2.418  23.667  24.216
22056W        W22921   0.267  23.465  22.131
22057W        W22922   3.401  25.123  22.828
22058W        W22923   3.238  22.447  22.447
22059W        W22924   1.377  21.966  24.850
22060W        W22925   3.083  24.768  23.308
22061W        W22926   3.112  23.324  23.213
22062W        W22927   1.229  22.997  23.429
22063W        W22928   1.474  23.259  24.753
22064W        W22929   2.585  24.412  24.616
22065W        W22930   1.235  22.866  24.728
22066W        W22931   1.214  25.332  23.344
22067W        W22932   0.531  25.291  24.978
22068W        W22933   0.643  24.652  22.108
22069W        W22934   3.160  24.410  22.918
22070W        W22935   0.764  23.202  24.804
22071W        W22936   3.537  23.132  22.285
22072W        W22937   1.282  24.189  22.756
22073W        W22938   2.381  23.571  24.837
22074W        W22939   2.272  23.199  24.381
22075W        W22940   0.832  23.571  24.410
22076W        W22941   3.042  25.459  24.239
22077W        W22942   2.833  22.093  25.233
22078W        W22943   0.497  22.243  24.820
22079W        W22944   0.836  23.266  23.873
22080W        W22945   1.205  23.080  21.995
22081W        W22946   0.008  24.839  24.540
22082W        W22947   1.593  23.548  23.983
22083W        W22948   1.416  22.573  22.088
22084W        W22949   0.551  23.389  22.869
22085W        W22950   0.322  25.241  24.306
22086W        W22951   3.117  23.467  22.414
22087W        W22952   3.212  22.383  25.100
22088W        W22953   2.648  24.592  23.063
22089W        W22954   0.246  23.516  25.240
22090W        W22955   3.212  21.980  22.536
22091W        W22956   2.732  24.455  22.547
22092W        W22957   1.634  23.513  22.632
22093W        W22958   2.821  22.317  22.155
22094W        W22959   2.886  22.924  24.341
22095W        W22960   0.595  23.517  23.548
22096W        W22961   0.889  24.456  23.197
22097W        W22962   2.652  23.076  23.162
22098W        W22963   1.675  22.455  23.858
22099W        W22964   3.637  24.366  24.369
22100W        W22965   3.555  22.353  23.930
22101W        W22966   0.094  25.183  23.306
22102W        W22967   0.603  24.370  22.842
22103W        W22968   0.518  21.987  25.395
22104W        W22969   1.637  24.840  25.497
22105W        W22970   3.392  23.808  23.287
22106W        W22971   2.746  23.985  22.167
22107W        W22972   2.041  25.506  24.379
22108W        W22973   2.898  24.228  25.416
22109W        W22974   1.713  21.938  22.696
22110W        W22975   2.426  22.807  23.555
22111W        W22976   0.112  24.394  23.887
22112W        W22977   1.365  22.356  22.528
22113W        W22978   1.169  23.840  25.377
22114W        W22979   2.163  22.821  23.091
22115W        W22980   2.368  24.231  24.213
22116W        W22981   0.522  24.836  24.648
22117W        W22982   1.113  24.819  25.371
22118W        W22983   0.964  22.616  22.385
22119W        W22984   2.481  22.758  22.710
22120W        W22985   2.439  24.866  24.947
22121W        W22986   1.124  23.458  23.546
22122W        W22987   0.779  25.156  24.411
22123W        W22988   3.524  25.273  22.012
22124W        W22989   0.387  23.945  25.008
22125W        W22990   2.382  24.207  23.696
22126W        W22991   0.818  23.856  22.938
22127W        W22992   1.189  24.863  24.333
22128W        W22993   1.567  22.282  23.374
22129W        W22994   0.178  24.266  22.304
22130W        W22995   1.697  23.217  22.174
22131W        W22996   0.343  23.766  23.193
22132W        W22997   1.633  22.408  24.657
22133W        W22998   3.305  22.117  22.084
22134W        W22999   3.398  23.863  25.183
22135W        W23000   2.052  25.120  25.335
22136W        W23001   3.610  24.214  24.857
22137W        W23002   3.018  25.012  25.468
22138W        W23003   0.757  25.468  23.946
22139W        W23004   3.616  24.090  22.820
22140W        W23005   2.146  23.357  23.333
22141W        W23006   1.913  21.969  23.223
22142W        W23007   0.972  24.953  23.060
22143W        W23008   1.471  22.694  24.285
22144W        W23009   1.171  22.063  23.754
22145W        W23010   0.234  24.885  22.302
22146W        W23011   2.050  24.249  23.020
22147W        W23012   0.925  25.044  24.899
22148W        W23013   0.402  23.867  22.595
22149W        W23014   0.287  22.410  23.594
22150W        W23015   1.835  24.375  23.651
22151W        W23016   0.087  22.229  22.671
22152W        W23017   2.751  23.435  24.598
22153W        W23018   2.628  22.821  22.170
22154W        W23019   3.145  24.493  23.818
22155W        W23020   1.806  24.977  23.649
22156W        W23021   1.218  25.081  22.560
22157W        W23022   2.500  21.984  21.990
22158W        W23023   0.300  25.244  23.731
22159W        W23024   2.497  23.002  25.366
22160W        W23025   0.480  22.532  25.365
22161W        W23026   0.211  23.132  22.698
22162W        W23027   0.902  23.121  22.423
22163W        W23028   2.665  23.448  25.240
22164W        W23029   1.008  23.729  23.949
22165W        W23030   2.482  22.015  23.069
22166W        W23031   1.613  25.446  23.572
22167W        W23032   2.827  24.908  24.509
22168W        W23033   2.411  25.057  23.620
22169W        W23034   2.430  24.037  23.214
22170W        W23035   1.892  22.262  22.285
22171W        W23036   3.573  21.890  23.007
22172W        W23037   1.261  23.525  22.170
22173W        W23038   3.427  22.862  23.160
22174W        W23039   2.119  24.032  22.037
22175W        W23040   3.055  24.232  24.785
22176W        W23041   2.709  24.933  22.252
22177W        W23042   1.324  22.608  25.158
22178W        W23043   1.144  23.192  24.399
22179W        W23044   3.236  24.687  24.676
22180W        W23045   2.336  22.637  25.053
22181W        W23046   0.180  23.108  24.830
22182W        W23047   1.940  23.585  24.556
22183W        W23048   0.297  24.343  23.213
22184W        W23049   0.444  23.640  24.103
22185W        W23050   2.761  23.926  24.453
22186W        W23051   2.533  25.306  25.264
22187W        W23052   2.429  23.045  24.817
22188W        W23053   2.706  25.099  23.222
22189W        W23054   1.708  24.819  24.545
22190W        W23055   1.193  25.174  23.814
22191W        W23056   2.998  24.345  24.233
22192W        W23057   2.048  24.417  25.370
22193W        W23058   0.653  24.370  23.709
22194W        W23059   2.999  24.129  23.354
22195W        W23060   2.640  25.195  24.105
22196W        W23061   0.618  24.924  23.975
22197W        W23062   1.639  22.976  25.185
22198W        W23063   2.090  25.142  22.696
22199W        W23064   1.398  24.397  25.334
22200W        W23065   1.524  24.635  22.711
22201W        W23066   0.745  23.375  21.970
22202W        W23067   0.084  25.461  28.869
22203W        W23068   0.460  24.354  28.392
22204W        W23069   3.165  24.084  26.162
22205W        W23070   3.295  25.169  28.189
22206W        W23071   1.213  25.160  25.715
22207W        W23072   1.296  23.312  26.698
22208W        W23073   0.811  23.160  26.862
22209W        W23074   1.802  23.975  26.296
22210W        W23075   1.477  25.067  28.651
22211W        W23076   0.126  22.628  28.614
22212W        W23077   0.888  21.908  28.416
22213W        W23078   2.582  22.296  27.303
22214W        W23079   2.231  23.167  25.873
22215W        W23080   2.801  22.601  28.964
22216W        W23081   0.167  22.393  28.089
22217W        W23082   0.266  25.012  29.110
22218W        W23083   1.788  24.402  25.842
22219W        W23084   0.220  23.185  27.535
22220W        W23085   1.113  23.076  28.772
22221W        W23086   3.572  22.935  27.271
22222W        W23087   3.336  23.978  28.130
22223W        W23088   1.644  23.311  27.157
22224W        W23089   2.190  24.650  27.526
22225W        W23090   0.690  24.084  27.758
22226W        W23091   0.049  23.612  27.329
22227W        W23092   1.085  23.584  28.521
22228W        W23093   3.356  23.367  28.775
22229W        W23094   0.972  24.811  27.220
22230W        W23095   2.093  24.500  28.354
22231W        W23096   1.313  23.140  27.579
22232W        W23097   1.605  23.924  27.222
22233W        W23098   2.602  24.697  29.070
22234W        W23099   1.681  24.017  29.080
22235W        W23100   1.662  23.733  28.558
22236W        W23101   0.071  23.124  29.080
22237W        W23102   2.903  24.659  28.679
22238W        W23103   0.484  22.241  26.677
22239W        W23104   1.011  24.499  27.676
22240W        W23105   3.474  24.282  26.966
22241W        W23106   2.887  22.682  27.533
22242W        W23107   3.172  22.635  25.628
22243W        W23108   3.637  23.436  27.934
22244W        W23109   1.604  25.143  27.687
22245W        W23110   3.378  24.609  26.125
22246W        W23111   0.507  25.395  25.879
22247W        W23112   0.900  25.441  26.555
22248W        W23113   0.697  22.195  27.981
22249W        W23114   3.320  23.213  28.256
22250W        W23115   2.725  23.635  26.715
22251W        W23116   2.691  23.323  25.742
22252W        W23117   1.899  24.467  27.882
22253W        W23118   1.705  22.797  27.081
22254W        W23119   2.305  24.884  28.075
22255W        W23120   3.176  23.675  26.497
22256W        W23121   2.078  22.333  26.513
22257W        W23122   0.735  25.027  26.196
22258W        W23123   0.106  22.526  26.795
22259W        W23124   2.892  23.133  27.269
22260W        W23125   0.350  24.750  27.184
22261W        W23126   1.691  25.100  26.054
22262W        W23127   3.083  23.126  25.518
22263W        W23128   0.106  24.884  27.682
22264W        W23129   0.897  24.456  28.162
22265W        W23130   1.270  23.816  26.781
22266W        W23131   1.292  22.221  27.874
22267W        W23132   3.521  21.983  27.171
22268W        W23133   0.740  23.855  25.639
22269W        W23134   0.395  22.888  25.818
22270W        W23135   0.457  24.844  26.612
22271W        W23136   1.588  24.327  26.860
22272W        W23137   2.920  25.186  28.574
22273W        W23138   1.846  22.828  26.258
22274W        W23139   3.229  25.226  27.030
22275W        W23140   2.906  23.079  28.628
22276W        W23141   3.619  24.735  26.762
22277W        W23142   2.246  24.027  28.246
22278W        W23143   0.012  23.578  26.452
22279W        W23144   1.123  23.993  28.025
22280W        W23145   2.327  23.257  26.403
22281W        W23146   2.204  23.747  26.507
22282W        W23147   0.547  23.167  27.981
22283W        W23148   0.532  23.043  28.903
22284W        W23149   0.422  21.960  27.062
22285W        W23150   2.190  22.307  27.623
22286W        W23151   1.838  22.492  28.786
22287W        W23152   2.193  22.641  25.964
22288W        W23153   3.376  25.034  28.718
22289W        W23154   2.343  22.115  28.757
22290W        W23155   3.362  24.416  28.879
22291W        W23156   2.792  22.583  28.475
22292W        W23157   2.592  22.521  26.745
22293W        W23158   2.985  23.655  29.149
22294W        W23159   0.725  25.231  27.135
22295W        W23160   1.383  22.948  26.121
22296W        W23161   0.952  22.232  28.785
22297W        W23162   3.004  22.716  26.466
22298W        W23163   3.371  23.198  26.411
22299W        W23164   1.114  25.415  28.882
22300W        W23165   1.040  21.951  26.117
22301W        W23166   3.361  22.485  27.152
22302W        W23167   3.511  24.734  25.597
22303W        W23168   0.418  23.937  27.299
22304W        W23169   2.335  22.524  25.529
22305W        W23170   3.469  24.856  27.249
22306W        W23171   3.508  22.050  27.999
22307W        W23172   1.953  23.262  28.553
22308W        W23173   2.046  24.601  26.256
22309W        W23174   2.446  23.895  28.996
22310W        W23175   2.120  21.872  27.305
22311W        W23176   0.732  22.775  27.368
22312W        W23177   0.286  23.975  28.142
22313W        W23178   2.145  25.168  26.848
22314W        W23179   3.339  22.765  27.720
22315W        W23180   1.976  25.112  28.487
22316W        W23181   3.319  24.171  25.692
22317W        W23182   1.754  23.654  26.753
22318W        W23183   3.606  22.165  28.494
22319W        W23184   1.755  24.000  28.088
22320W        W23185   1.972  22.886  27.533
22321W        W23186   2.824  23.184  26.371
22322W        W23187   3.111  22.917  26.013
22323W        W23188   2.920  24.957  26.402
22324W        W23189   2.754  24.560  27.198
22325W        W23190   2.650  23.639  26.176
22326W        W23191   2.083  23.849  27.162
22327W        W23192   2.964  23.637  27.229
22328W        W23193   0.339  22.652  27.653
22329W        W23194   3.117  23.704  28.480
22330W        W23195   3.468  25.322  27.626
22331W        W23196   1.398  24.766  27.028
22332W        W23197   2.405  25.299  28.352
22333W        W23198   2.399  22.629  28.116
22334W        W23199   1.606  25.337  28.177
22335W        W23200   3.303  22.291  26.643
22336W        W23201   3.094  23.610  27.944
22337W        W23202   0.077  22.931  27.982
22338W        W23203   2.937  22.726  27.000
22339W        W23204   3.348  22.877  28.777
22340W        W23205   2.233  24.576  26.995
22341W        W23206   1.489  25.167  26.608
22342W        W23207   0.604  22.347  25.866
22343W        W23208   1.708  22.001  27.676
22344W        W23209   0.736  25.121  25.524
22345W        W23210   1.110  23.587  26.275
22346W        W23211   1.764  24.216  28.588
22347W        W23212   1.594  22.574  26.578
22348W        W23213   2.950  22.171  27.006
22349W        W23214   2.670  25.453  27.334
22350W        W23215   2.082  25.101  27.674
22351W        W23216   1.478  24.138  27.635
22352W        W23217   3.248  24.861  27.761
22353W        W23218   0.942  22.364  26.530
22354W        W23219   1.464  24.661  27.490
22355W        W23220   0.947  22.592  25.555
22356W        W23221   1.748  23.201  27.949
22357W        W23222   2.596  22.067  27.819
22358W        W23223   0.016  23.910  27.704
22359W        W23224   1.720  23.728  25.862
22360W        W23225   0.988  22.043  25.632
22361W        W23226   1.726  23.124  26.683
22362W        W23227   2.696  22.100  28.382
22363W        W23228   1.284  24.112  28.491
22364W        W23229   2.088  23.894  28.708
22365W        W23230   2.705  23.924  28.601
22366W        W23231   1.989  22.064  29.106
22367W        W23232   1.211  22.680  27.499
22368W        W23233   0.637  22.636  26.897
22369W        W23234   0.423  25.348  26.573
22370W        W23235   1.755  24.678  28.698
22371W        W23236   0.790  24.163  26.057
22372W        W23237   2.470  23.548  27.278
22373W        W23238   2.750  23.347  27.677
22374W        W23239   1.955  24.021  27.611
22375W        W23240   2.425  24.395  25.743
22376W        W23241   2.097  22.416  27.071
22377W        W23242   3.576  22.694  26.339
22378W        W23243   0.070  25.283  28.370
22379W        W23244   0.487  24.509  27.902
22380W        W23245   0.054  25.355  26.134
22381W        W23246   1.953  22.625  27.940
22382W        W23247   1.316  24.648  25.789
22383W        W23248   3.221  25.030  25.975
22384W        W23249   2.196  23.683  25.989
22385W        W23250   1.039  22.874  26.506
22386W        W23251   1.871  22.784  25.558
22387W        W23252   2.455  24.349  28.736
22388W        W23253   2.808  22.255  26.353
22389W        W23254   0.138  22.103  25.801
22390W        W23255   1.424  24.422  28.091
22391W        W23256   1.223  24.338  27.183
22392W        W23257   0.965  24.290  25.581
22393W        W23258   0.206  24.531  26.349
22394W        W23259   0.710  23.601  28.791
22395W        W23260   1.414  22.161  28.977
22396W        W23261   2.123  22.303  28.333
22397W        W23262   1.318  22.071  26.614
22398W        W23263   2.377  22.148  26.119
22399W        W23264   0.322  22.080  27.696
22400W        W23265   0.370  23.043  27.066
22401W        W23266   3.059  22.151  27.472
22402W        W23267   0.481  22.649  26.286
22403W        W23268   3.052  22.337  27.902
22404W        W23269   3.448  23.540  25.587
22405W        W23270   0.740  22.298  27.406
22406W        W23271   1.854  22.870  28.346
22407W        W23272   0.002  22.560  25.824
22408W        W23273   0.788  23.949  28.385
22409W        W23274   2.146  23.347  27.564
22410W        W23275   2.013  25.426  25.860
22411W        W23276   0.159  23.933  25.557
22412W        W23277   0.894  24.344  28.683
22413W        W23278   0.415  23.511  28.314
22414W        W23279   1.406  23.616  28.108
22415W        W23280   3.174  21.975  28.370
22416W        W23281   3.572  23.585  28.361
22417W        W23282   3.560  23.785  26.047
22418W        W23283   2.423  24.117  26.146
22419W        W23284   2.897  25.417  25.841
22420W        W23285   2.074  23.407  28.983
22421W        W23286   0.404  24.374  29.023
22422W        W23287   3.610  22.296  28.975
22423W        W23288   3.328  23.224  27.596
22424W        W23289   1.636  25.354  29.073
22425W        W23290   1.491  21.983  25.800
22426W        W23291   3.030  24.582  25.743
22427W        W23292   0.799  22.675  28.629
22428W        W23293   1.233  24.669  28.491
22429W        W23294   3.359  22.660  28.289
22430W        W23295   2.570  25.319  26.257
22431W        W23296   2.809  23.938  27.624
22432W        W23297   1.059  22.354  28.291
22433W        W23298   1.528  23.423  29.048
22434W        W23299   1.031  24.602  26.242
22435W        W23300   2.786  24.100  26.506
22436W        W23301   0.554  22.726  28.230
22437W        W23302   1.883  24.788  26.694
22438W        W23303   3.633  23.348  26.875
22439W        W23304   1.855  21.981  28.594
22440W        W23305   2.635  24.686  27.673
22441W        W23306   2.938  25.030  27.381
22442W        W23307   2.157  24.832  25.809
22443W        W23308   0.167  24.724  28.651
22444W        W23309   0.910  22.716  27.889
22445W        W23310   0.880  22.064  26.999
22446W        W23311   2.501  22.906  27.691
22447W        W23312   1.299  24.077  25.891
22448W        W23313   3.297  24.019  27.390
22449W        W23314   0.624  24.777  28.813
22450W        W23315   3.011  25.459  26.610
22451W        W23316   1.110  22.479  27.055
22452W        W23317   0.879  23.972  27.145
22453W        W23318   1.192  25.383  27.895
22454W        W23319   3.259  25.479  28.927
22455W        W23320   2.418  23.667  27.860
22456W        W23321   0.267  23.465  25.775
22457W        W23322   3.401  25.123  26.472
22458W        W23323   3.238  22.447  26.091
22459W        W23324   1.377  21.966  28.494
22460W        W23325   3.083  24.768  26.952
22461W        W23326   3.112  23.324  26.857
22462W        W23327   1.229  22.997  27.073
22463W        W23328   1.474  23.259  28.397
22464W        W23329   2.585  24.412  28.260
22465W        W23330   1.235  22.866  28.372
22466W        W23331   1.214  25.332  26.988
22467W        W23332   0.531  25.291  28.622
22468W        W23333   0.643  24.652  25.752
22469W        W23334   3.160  24.410  26.562
22470W        W23335   0.764  23.202  28.448
22471W        W23336   3.537  23.132  25.929
22472W        W23337   1.282  24.189  26.400
22473W        W23338   2.381  23.571  28.481
22474W        W23339   2.272  23.199  28.025
22475W        W23340   0.832  23.571  28.054
22476W        W23341   3.042  25.459  27.883
22477W        W23342   2.833  22.093  28.877
22478W        W23343   0.497  22.243  28.464
22479W        W23344   0.836  23.266  27.517
22480W        W23345   1.205  23.080  25.639
22481W        W23346   0.008  24.839  28.184
22482W        W23347   1.593  23.548  27.627
22483W        W23348   1.416  22.573  25.732
22484W        W23349   0.551  23.389  26.513
22485W        W23350   0.322  25.241  27.950
22486W        W23351   3.117  23.467  26.058
22487W        W23352   3.212  22.383  28.744
22488W        W23353   2.648  24.592  26.707
22489W        W23354   0.246  23.516  28.884
22490W        W23355   3.212  21.980  26.180
22491W        W23356   2.732  24.455  26.191
22492W        W23357   1.634  23.513  26.276
22493W        W23358   2.821  22.317  25.799
22494W        W23359   2.886  22.924  27.985
22495W        W23360   0.595  23.517  27.192
22496W        W23361   0.889  24.456  26.841
22497W        W23362   2.652  23.076  26.806
22498W        W23363   1.675  22.455  27.502
22499W        W23364   3.637  24.366  28.013
22500W        W23365   3.555  22.353  27.574
22501W        W23366   0.094  25.183  26.950
22502W        W23367   0.603  24.370  26.486
22503W        W23368   0.518  21.987  29.039
22504W        W23369   1.637  24.840  29.141
22505W        W23370   3.392  23.808  26.931
22506W        W23371   2.746  23.985  25.811
22507W        W23372   2.041  25.506  28.023
22508W        W23373   2.898  24.228  29.060
22509W        W23374   1.713  21.938  26.340
22510W        W23375   2.426  22.807  27.199
22511W        W23376   0.112  24.394  27.531
22512W        W23377   1.365  22.356  26.172
22513W        W23378   1.169  23.840  29.021
22514W        W23379   2.163  22.821  26.735
22515W        W23380   2.368  24.231  27.857
22516W        W23381   0.522  24.836  28.292
22517W        W23382   1.113  24.819  29.015
22518W        W23383   0.964  22.616  26.029
22519W        W23384   2.481  22.758  26.354
22520W        W23385   2.439  24.866  28.591
22521W        W23386   1.124  23.458  27.190
22522W        W23387   0.779  25.156  28.055
22523W        W23388   3.524  25.273  25.656
22524W        W23389   0.387  23.945  28.652
22525W        W23390   2.382  24.207  27.340
22526W        W23391   0.818  23.856  26.582
22527W        W23392   1.189  24.863  27.977
22528W        W23393   1.567  22.282  27.018
22529W        W23394   0.178  24.266  25.948
22530W        W23395   1.697  23.217  25.818
22531W        W23396   0.343  23.766  26.837
22532W        W23397   1.633  22.408  28.301
22533W        W23398   3.305  22.117  25.728
22534W        W23399   3.398  23.863  28.827
22535W        W23400   2.052  25.120  28.979
22536W        W23401   3.610  24.214  28.501
22537W        W23402   3.018  25.012  29.112
22538W        W23403   0.757  25.468  27.590
22539W        W23404   3.616  24.090  26.464
22540W        W23405   2.146  23.357  26.977
22541W        W23406   1.913  21.969  26.867
22542W        W23407   0.972  24.953  26.704
22543W        W23408   1.471  22.694  27.929
22544W        W23409   1.171  22.063  27.398
22545W        W23410   0.234  24.885  25.946
22546W        W23411   2.050  24.249  26.664
22547W        W23412   0.925  25.044  28.543
22548W        W23413   0.402  23.867  26.239
22549W        W23414   0.287  22.410  27.238
22550W        W23415   1.835  24.375  27.295
22551W        W23416   0.087  22.229  26.315
22552W        W23417   2.751  23.435  28.242
22553W        W23418   2.628  22.821  25.814
22554W        W23419   3.145  24.493  27.462
22555W        W23420   1.806  24.977  27.293
22556W        W23421   1.218  25.081  26.204
22557W        W23422   2.500  21.984  25.634
22558W        W23423   0.300  25.244  27.375
22559W        W23424   2.497  23.002  29.010
22560W        W23425   0.480  22.532  29.009
22561W        W23426   0.211  23.132  26.342
22562W        W23427   0.902  23.121  26.067
22563W        W23428   2.665  23.448  28.884
22564W        W23429   1.008  23.729  27.593
22565W        W23430   2.482  22.015  26.713
22566W        W23431   1.613  25.446  27.216
22567W        W23432   2.827  24.908  28.153
22568W        W23433   2.411  25.057  27.264
22569W        W23434   2.430  24.037  26.858
22570W        W23435   1.892  22.262  25.929
22571W        W23436   3.573  21.890  26.651
22572W        W23437   1.261  23.525  25.814
22573W        W23438   3.427  22.862  26.804
22574W        W23439   2.119  24.032  25.681
22575W        W23440   3.055  24.232  28.429
22576W        W23441   2.709  24.933  25.896
22577W        W23442   1.324  22.608  28.802
22578W        W23443   1.144  23.192  28.043
22579W        W23444   3.236  24.687  28.320
22580W        W23445   2.336  22.637  28.697
22581W        W23446   0.180  23.108  28.474
22582W        W23447   1.940  23.585  28.200
22583W        W23448   0.297  24.343  26.857
22584W        W23449   0.444  23.640  27.747
22585W        W23450   2.761  23.926  28.097
22586W        W23451   2.533  25.306  28.908
22587W        W23452   2.429  23.045  28.461
22588W        W23453   2.706  25.099  26.866
22589W        W23454   1.708  24.819  28.189
22590W        W23455   1.193  25.174  27.458
22591W        W23456   2.998  24.345  27.877
22592W        W23457   2.048  24.417  29.014
22593W        W23458   0.653  24.370  27.353
22594W        W23459   2.999  24.129  26.998
22595W        W23460   2.640  25.195  27.749
22596W        W23461   0.618  24.924  27.619
22597W        W23462   1.639  22.976  28.829
22598W        W23463   2.090  25.142  26.340
22599W        W23464   1.398  24.397  28.978
22600W        W23465   1.524  24.635  26.355
22601W        W23466   0.745  23.375  25.614
22602W        W23467   0.084  29.105   3.359
22603W        W23468   0.460  27.998   2.882
22604W        W23469   3.165  27.728   0.652
22605W        W23470   3.295  28.813   2.679
22606W        W23471   1.213  28.804   0.205
22607W        W23472   1.296  26.956   1.188
22608W        W23473   0.811  26.804   1.352
22609W        W23474   1.802  27.619   0.786
22610W        W23475   1.477  28.711   3.141
22611W        W23476   0.126  26.272   3.104
22612W        W23477   0.888  25.552   2.906
22613W        W23478   2.582  25.940   1.793
22614W        W23479   2.231  26.811   0.363
22615W        W23480   2.801  26.245   3.454
22616W        W23481   0.167  26.037   2.579
22617W        W23482   0.266  28.656   3.600
22618W        W23483   1.788  28.046   0.332
22619W        W23484   0.220  26.829   2.025
22620W        W23485   1.113  26.720   3.262
22621W        W23486   3.572  26.579   1.761
22622W        W23487   3.336  27.622   2.620
22623W        W23488   1.644  26.955   1.647
22624W        W23489   2.190  28.294   2.016
22625W        W23490   0.690  27.728   2.248
22626W        W23491   0.049  27.256   1.819
22627W        W23492   1.085  27.228   3.011
22628W        W23493   3.356  27.011   3.265
22629W        W23494   0.972  28.455   1.710
22630W        W23495   2.093  28.144   2.844
22631W        W23496   1.313  26.784   2.069
22632W        W23497   1.605  27.568   1.712
22633W        W23498   2.602  28.341   3.560
22634W        W23499   1.681  27.661   3.570
22635W        W23500   1.662  27.377   3.048
22636W        W23501   0.071  26.768   3.570
22637W        W23502   2.903  28.303   3.169
22638W        W23503   0.484  25.885   1.167
22639W        W23504   1.011  28.143   2.166
22640W        W23505   3.474  27.926   1.456
22641W        W23506   2.887  26.326   2.023
22642W        W23507   3.172  26.279   0.118
22643W        W23508   3.637  27.080   2.424
22644W        W23509   1.604  28.787   2.177
22645W        W23510   3.378  28.253   0.615
22646W        W23511   0.507  29.039   0.369
22647W        W23512   0.900  29.085   1.045
22648W        W23513   0.697  25.839   2.471
22649W        W23514   3.320  26.857   2.746
22650W        W23515   2.725  27.279   1.205
22651W        W23516   2.691  26.967   0.232
22652W        W23517   1.899  28.111   2.372
22653W        W23518   1.705  26.441   1.571
22654W        W23519   2.305  28.528   2.565
22655W        W23520   3.176  27.319   0.987
22656W        W23521   2.078  25.977   1.003
22657W        W23522   0.735  28.671   0.686
22658W        W23523   0.106  26.170   1.285
22659W        W23524   2.892  26.777   1.759
22660W        W23525   0.350  28.394   1.674
22661W        W23526   1.691  28.744   0.544
22662W        W23527   3.083  26.770   0.008
22663W        W23528   0.106  28.528   2.172
22664W        W23529   0.897  28.100   2.652
22665W        W23530   1.270  27.460   1.271
22666W        W23531   1.292  25.865   2.364
22667W        W23532   3.521  25.627   1.661
22668W        W23533   0.740  27.499   0.129
22669W        W23534   0.395  26.532   0.308
22670W        W23535   0.457  28.488   1.102
22671W        W23536   1.588  27.971   1.350
22672W        W23537   2.920  28.830   3.064
22673W        W23538   1.846  26.472   0.748
22674W        W23539   3.229  28.870   1.520
22675W        W23540   2.906  26.723   3.118
22676W        W23541   3.619  28.379   1.252
22677W        W23542   2.246  27.671   2.736
22678W        W23543   0.012  27.222   0.942
22679W        W23544   1.123  27.637   2.515
22680W        W23545   2.327  26.901   0.893
22681W        W23546   2.204  27.391   0.997
22682W        W23547   0.547  26.811   2.471
22683W        W23548   0.532  26.687   3.393
22684W        W23549   0.422  25.604   1.552
22685W        W23550   2.190  25.951   2.113
22686W        W23551   1.838  26.136   3.276
22687W        W23552   2.193  26.285   0.454
22688W        W23553   3.376  28.678   3.208
22689W        W23554   2.343  25.759   3.247
22690W        W23555   3.362  28.060   3.369
22691W        W23556   2.792  26.227   2.965
22692W        W23557   2.592  26.165   1.235
22693W        W23558   2.985  27.299   3.639
22694W        W23559   0.725  28.875   1.625
22695W        W23560   1.383  26.592   0.611
22696W        W23561   0.952  25.876   3.275
22697W        W23562   3.004  26.360   0.956
22698W        W23563   3.371  26.842   0.901
22699W        W23564   1.114  29.059   3.372
22700W        W23565   1.040  25.595   0.607
22701W        W23566   3.361  26.129   1.642
22702W        W23567   3.511  28.378   0.087
22703W        W23568   0.418  27.581   1.789
22704W        W23569   2.335  26.168   0.019
22705W        W23570   3.469  28.500   1.739
22706W        W23571   3.508  25.694   2.489
22707W        W23572   1.953  26.906   3.043
22708W        W23573   2.046  28.245   0.746
22709W        W23574   2.446  27.539   3.486
22710W        W23575   2.120  25.516   1.795
22711W        W23576   0.732  26.419   1.858
22712W        W23577   0.286  27.619   2.632
22713W        W23578   2.145  28.812   1.338
22714W        W23579   3.339  26.409   2.210
22715W        W23580   1.976  28.756   2.977
22716W        W23581   3.319  27.815   0.182
22717W        W23582   1.754  27.298   1.243
22718W        W23583   3.606  25.809   2.984
22719W        W23584   1.755  27.644   2.578
22720W        W23585   1.972  26.530   2.023
22721W        W23586   2.824  26.828   0.861
22722W        W23587   3.111  26.561   0.503
22723W        W23588   2.920  28.601   0.892
22724W        W23589   2.754  28.204   1.688
22725W        W23590   2.650  27.283   0.666
22726W        W23591   2.083  27.493   1.652
22727W        W23592   2.964  27.281   1.719
22728W        W23593   0.339  26.296   2.143
22729W        W23594   3.117  27.348   2.970
22730W        W23595   3.468  28.966   2.116
22731W        W23596   1.398  28.410   1.518
22732W        W23597   2.405  28.943   2.842
22733W        W23598   2.399  26.273   2.606
22734W        W23599   1.606  28.981   2.667
22735W        W23600   3.303  25.935   1.133
22736W        W23601   3.094  27.254   2.434
22737W        W23602   0.077  26.575   2.472
22738W        W23603   2.937  26.370   1.490
22739W        W23604   3.348  26.521   3.267
22740W        W23605   2.233  28.220   1.485
22741W        W23606   1.489  28.811   1.098
22742W        W23607   0.604  25.991   0.356
22743W        W23608   1.708  25.645   2.166
22744W        W23609   0.736  28.765   0.014
22745W        W23610   1.110  27.231   0.765
22746W        W23611   1.764  27.860   3.078
22747W        W23612   1.594  26.218   1.068
22748W        W23613   2.950  25.815   1.496
22749W        W23614   2.670  29.097   1.824
22750W        W23615   2.082  28.745   2.164
22751W        W23616   1.478  27.782   2.125
22752W        W23617   3.248  28.505   2.251
22753W        W23618   0.942  26.008   1.020
22754W        W23619   1.464  28.305   1.980
22755W        W23620   0.947  26.236   0.045
22756W        W23621   1.748  26.845   2.439
22757W        W23622   2.596  25.711   2.309
22758W        W23623   0.016  27.554   2.194
22759W        W23624   1.720  27.372   0.352
22760W        W23625   0.988  25.687   0.122
22761W        W23626   1.726  26.768   1.173
22762W        W23627   2.696  25.744   2.872
22763W        W23628   1.284  27.756   2.981
22764W        W23629   2.088  27.538   3.198
22765W        W23630   2.705  27.568   3.091
22766W        W23631   1.989  25.708   3.596
22767W        W23632   1.211  26.324   1.989
22768W        W23633   0.637  26.280   1.387
22769W        W23634   0.423  28.992   1.063
22770W        W23635   1.755  28.322   3.188
22771W        W23636   0.790  27.807   0.547
22772W        W23637   2.470  27.192   1.768
22773W        W23638   2.750  26.991   2.167
22774W        W23639   1.955  27.665   2.101
22775W        W23640   2.425  28.039   0.233
22776W        W23641   2.097  26.060   1.561
22777W        W23642   3.576  26.338   0.829
22778W        W23643   0.070  28.927   2.860
22779W        W23644   0.487  28.153   2.392
22780W        W23645   0.054  28.999   0.624
22781W        W23646   1.953  26.269   2.430
22782W        W23647   1.316  28.292   0.279
22783W        W23648   3.221  28.674   0.465
22784W        W23649   2.196  27.327   0.479
22785W        W23650   1.039  26.518   0.996
22786W        W23651   1.871  26.428   0.048
22787W        W23652   2.455  27.993   3.226
22788W        W23653   2.808  25.899   0.843
22789W        W23654   0.138  25.747   0.291
22790W        W23655   1.424  28.066   2.581
22791W        W23656   1.223  27.982   1.673
22792W        W23657   0.965  27.934   0.071
22793W        W23658   0.206  28.175   0.839
22794W        W23659   0.710  27.245   3.281
22795W        W23660   1.414  25.805   3.467
22796W        W23661   2.123  25.947   2.823
22797W        W23662   1.318  25.715   1.104
22798W        W23663   2.377  25.792   0.609
22799W        W23664   0.322  25.724   2.186
22800W        W23665   0.370  26.687   1.556
22801W        W23666   3.059  25.795   1.962
22802W        W23667   0.481  26.293   0.776
22803W        W23668   3.052  25.981   2.392
22804W        W23669   3.448  27.184   0.077
22805W        W23670   0.740  25.942   1.896
22806W        W23671   1.854  26.514   2.836
22807W        W23672   0.002  26.204   0.314
22808W        W23673   0.788  27.593   2.875
22809W        W23674   2.146  26.991   2.054
22810W        W23675   2.013  29.070   0.350
22811W        W23676   0.159  27.577   0.047
22812W        W23677   0.894  27.988   3.173
22813W        W23678   0.415  27.155   2.804
22814W        W23679   1.406  27.260   2.598
22815W        W23680   3.174  25.619   2.860
22816W        W23681   3.572  27.229   2.851
22817W        W23682   3.560  27.429   0.537
22818W        W23683   2.423  27.761   0.636
22819W        W23684   2.897  29.061   0.331
22820W        W23685   2.074  27.051   3.473
22821W        W23686   0.404  28.018   3.513
22822W        W23687   3.610  25.940   3.465
22823W        W23688   3.328  26.868   2.086
22824W        W23689   1.636  28.998   3.563
22825W        W23690   1.491  25.627   0.290
22826W        W23691   3.030  28.226   0.233
22827W        W23692   0.799  26.319   3.119
22828W        W23693   1.233  28.313   2.981
22829W        W23694   3.359  26.304   2.779
22830W        W23695   2.570  28.963   0.747
22831W        W23696   2.809  27.582   2.114
22832W        W23697   1.059  25.998   2.781
22833W        W23698   1.528  27.067   3.538
22834W        W23699   1.031  28.246   0.732
22835W        W23700   2.786  27.744   0.996
22836W        W23701   0.554  26.370   2.720
22837W        W23702   1.883  28.432   1.184
22838W        W23703   3.633  26.992   1.365
22839W        W23704   1.855  25.625   3.084
22840W        W23705   2.635  28.330   2.163
22841W        W23706   2.938  28.674   1.871
22842W        W23707   2.157  28.476   0.299
22843W        W23708   0.167  28.368   3.141
22844W        W23709   0.910  26.360   2.379
22845W        W23710   0.880  25.708   1.489
22846W        W23711   2.501  26.550   2.181
22847W        W23712   1.299  27.721   0.381
22848W        W23713   3.297  27.663   1.880
22849W        W23714   0.624  28.421   3.303
22850W        W23715   3.011  29.103   1.100
22851W        W23716   1.110  26.123   1.545
22852W        W23717   0.879  27.616   1.635
22853W        W23718   1.192  29.027   2.385
22854W        W23719   3.259  29.123   3.417
22855W        W23720   2.418  27.311   2.350
22856W        W23721   0.267  27.109   0.265
22857W        W23722   3.401  28.767   0.962
22858W        W23723   3.238  26.091   0.581
22859W        W23724   1.377  25.610   2.984
22860W        W23725   3.083  28.412   1.442
22861W        W23726   3.112  26.968   1.347
22862W        W23727   1.229  26.641   1.563
22863W        W23728   1.474  26.903   2.887
22864W        W23729   2.585  28.056   2.750
22865W        W23730   1.235  26.510   2.862
22866W        W23731   1.214  28.976   1.478
22867W        W23732   0.531  28.935   3.112
22868W        W23733   0.643  28.296   0.242
22869W        W23734   3.160  28.054   1.052
22870W        W23735   0.764  26.846   2.938
22871W        W23736   3.537  26.776   0.419
22872W        W23737   1.282  27.833   0.890
22873W        W23738   2.381  27.215   2.971
22874W        W23739   2.272  26.843   2.515
22875W        W23740   0.832  27.215   2.544
22876W        W23741   3.042  29.103   2.373
22877W        W23742   2.833  25.737   3.367
22878W        W23743   0.497  25.887   2.954
22879W        W23744   0.836  26.910   2.007
22880W        W23745   1.205  26.724   0.129
22881W        W23746   0.008  28.483   2.674
22882W        W23747   1.593  27.192   2.117
22883W        W23748   1.416  26.217   0.222
22884W        W23749   0.551  27.033   1.003
22885W        W23750   0.322  28.885   2.440
22886W        W23751   3.117  27.111   0.548
22887W        W23752   3.212  26.027   3.234
22888W        W23753   2.648  28.236   1.197
22889W        W23754   0.246  27.160   3.374
22890W        W23755   3.212  25.624   0.670
22891W        W23756   2.732  28.099   0.681
22892W        W23757   1.634  27.157   0.766
22893W        W23758   2.821  25.961   0.289
22894W        W23759   2.886  26.568   2.475
22895W        W23760   0.595  27.161   1.682
22896W        W23761   0.889  28.100   1.331
22897W        W23762   2.652  26.720   1.296
22898W        W23763   1.675  26.099   1.992
22899W        W23764   3.637  28.010   2.503
22900W        W23765   3.555  25.997   2.064
22901W        W23766   0.094  28.827   1.440
22902W        W23767   0.603  28.014   0.976
22903W        W23768   0.518  25.631   3.529
22904W        W23769   1.637  28.484   3.631
22905W        W23770   3.392  27.452   1.421
22906W        W23771   2.746  27.629   0.301
22907W        W23772   2.041  29.150   2.513
22908W        W23773   2.898  27.872   3.550
22909W        W23774   1.713  25.582   0.830
22910W        W23775   2.426  26.451   1.689
22911W        W23776   0.112  28.038   2.021
22912W        W23777   1.365  26.000   0.662
22913W        W23778   1.169  27.484   3.511
22914W        W23779   2.163  26.465   1.225
22915W        W23780   2.368  27.875   2.347
22916W        W23781   0.522  28.480   2.782
22917W        W23782   1.113  28.463   3.505
22918W        W23783   0.964  26.260   0.519
22919W        W23784   2.481  26.402   0.844
22920W        W23785   2.439  28.510   3.081
22921W        W23786   1.124  27.102   1.680
22922W        W23787   0.779  28.800   2.545
22923W        W23788   3.524  28.917   0.146
22924W        W23789   0.387  27.589   3.142
22925W        W23790   2.382  27.851   1.830
22926W        W23791   0.818  27.500   1.072
22927W        W23792   1.189  28.507   2.467
22928W        W23793   1.567  25.926   1.508
22929W        W23794   0.178  27.910   0.438
22930W        W23795   1.697  26.861   0.308
22931W        W23796   0.343  27.410   1.327
22932W        W23797   1.633  26.052   2.791
22933W        W23798   3.305  25.761   0.218
22934W        W23799   3.398  27.507   3.317
22935W        W23800   2.052  28.764   3.469
22936W        W23801   3.610  27.858   2.991
22937W        W23802   3.018  28.656   3.602
22938W        W23803   0.757  29.112   2.080
22939W        W23804   3.616  27.734   0.954
22940W        W23805   2.146  27.001   1.467
22941W        W23806   1.913  25.613   1.357
22942W        W23807   0.972  28.597   1.194
22943W        W23808   1.471  26.338   2.419
22944W        W23809   1.171  25.707   1.888
22945W        W23810   0.234  28.529   0.436
22946W        W23811   2.050  27.893   1.154
22947W        W23812   0.925  28.688   3.033
22948W        W23813   0.402  27.511   0.729
22949W        W23814   0.287  26.054   1.728
22950W        W23815   1.835  28.019   1.785
22951W        W23816   0.087  25.873   0.805
22952W        W23817   2.751  27.079   2.732
22953W        W23818   2.628  26.465   0.304
22954W        W23819   3.145  28.137   1.952
22955W        W23820   1.806  28.621   1.783
22956W        W23821   1.218  28.725   0.694
22957W        W23822   2.500  25.628   0.124
22958W        W23823   0.300  28.888   1.865
22959W        W23824   2.497  26.646   3.500
22960W        W23825   0.480  26.176   3.499
22961W        W23826   0.211  26.776   0.832
22962W        W23827   0.902  26.765   0.557
22963W        W23828   2.665  27.092   3.374
22964W        W23829   1.008  27.373   2.083
22965W        W23830   2.482  25.659   1.203
22966W        W23831   1.613  29.090   1.706
22967W        W23832   2.827  28.552   2.643
22968W        W23833   2.411  28.701   1.754
22969W        W23834   2.430  27.681   1.348
22970W        W23835   1.892  25.906   0.419
22971W        W23836   3.573  25.534   1.141
22972W        W23837   1.261  27.169   0.304
22973W        W23838   3.427  26.506   1.294
22974W        W23839   2.119  27.676   0.171
22975W        W23840   3.055  27.876   2.919
22976W        W23841   2.709  28.577   0.386
22977W        W23842   1.324  26.252   3.292
22978W        W23843   1.144  26.836   2.533
22979W        W23844   3.236  28.331   2.810
22980W        W23845   2.336  26.281   3.187
22981W        W23846   0.180  26.752   2.964
22982W        W23847   1.940  27.229   2.690
22983W        W23848   0.297  27.987   1.347
22984W        W23849   0.444  27.284   2.237
22985W        W23850   2.761  27.570   2.587
22986W        W23851   2.533  28.950   3.398
22987W        W23852   2.429  26.689   2.951
22988W        W23853   2.706  28.743   1.356
22989W        W23854   1.708  28.463   2.679
22990W        W23855   1.193  28.818   1.948
22991W        W23856   2.998  27.989   2.367
22992W        W23857   2.048  28.061   3.504
22993W        W23858   0.653  28.014   1.843
22994W        W23859   2.999  27.773   1.488
22995W        W23860   2.640  28.839   2.239
22996W        W23861   0.618  28.568   2.109
22997W        W23862   1.639  26.620   3.319
22998W        W23863   2.090  28.786   0.830
22999W        W23864   1.398  28.041   3.468
23000W        W23865   1.524  28.279   0.845
23001W        W23866   0.745  27.019   0.104
23002W        W23867   0.084  29.105   7.003
23003W        W23868   0.460  27.998   6.526
23004W        W23869   3.165  27.728   4.296
23005W        W23870   3.295  28.813   6.323
23006W        W23871   1.213  28.804   3.849
23007W        W23872   1.296  26.956   4.832
23008W        W23873   0.811  26.804   4.996
23009W        W23874   1.802  27.619   4.430
23010W        W23875   1.477  28.711   6.785
23011W        W23876   0.126  26.272   6.748
23012W        W23877   0.888  25.552   6.550
23013W        W23878   2.582  25.940   5.437
23014W        W23879   2.231  26.811   4.007
23015W        W23880   2.801  26.245   7.098
23016W        W23881   0.167  26.037   6.223
23017W        W23882   0.266  28.656   7.244
23018W        W23883   1.788  28.046   3.976
23019W        W23884   0.220  26.829   5.669
23020W        W23885   1.113  26.720   6.906
23021W        W23886   3.572  26.579   5.405
23022W        W23887   3.336  27.622   6.264
23023W        W23888   1.644  26.955   5.291
23024W        W23889   2.190  28.294   5.660
23025W        W23890   0.690  27.728   5.892
23026W        W23891   0.049  27.256   5.463
23027W        W23892   1.085  27.228   6.655
23028W        W23893   3.356  27.011   6.909
23029W        W23894   0.972  28.455   5.354
23030W        W23895   2.093  28.144   6.488
23031W        W23896   1.313  26.784   5.713
23032W        W23897   1.605  27.568   5.356
23033W        W23898   2.602  28.341   7.204
23034W        W23899   1.681  27.661   7.214
23035W        W23900   1.662  27.377   6.692
23036W        W23901   0.071  26.768   7.214
23037W        W23902   2.903  28.303   6.813
23038W        W23903   0.484  25.885   4.811
23039W        W23904   1.011  28.143   5.810
23040W        W23905   3.474  27.926   5.100
23041W        W23906   2.887  26.326   5.667
23042W        W23907   3.172  26.279   3.762
23043W        W23908   3.637  27.080   6.068
23044W        W23909   1.604  28.787   5.821
23045W        W23910   3.378  28.253   4.259
23046W        W23911   0.507  29.039   4.013
23047W        W23912   0.900  29.085   4.689
23048W        W23913   0.697  25.839   6.115
23049W        W23914   3.320  26.857   6.390
23050W        W23915   2.725  27.279   4.849
23051W        W23916   2.691  26.967   3.876
23052W        W23917   1.899  28.111   6.016
23053W        W23918   1.705  26.441   5.215
23054W        W23919   2.305  28.528   6.209
23055W        W23920   3.176  27.319   4.631
23056W        W23921   2.078  25.977   4.647
23057W        W23922   0.735  28.671   4.330
23058W        W23923   0.106  26.170   4.929
23059W        W23924   2.892  26.777   5.403
23060W        W23925   0.350  28.394   5.318
23061W        W23926   1.691  28.744   4.188
23062W        W23927   3.083  26.770   3.652
23063W        W23928   0.106  28.528   5.816
23064W        W23929   0.897  28.100   6.296
23065W        W23930   1.270  27.460   4.915
23066W        W23931   1.292  25.865   6.008
23067W        W23932   3.521  25.627   5.305
23068W        W23933   0.740  27.499   3.773
23069W        W23934   0.395  26.532   3.952
23070W        W23935   0.457  28.488   4.746
23071W        W23936   1.588  27.971   4.994
23072W        W23937   2.920  28.830   6.708
23073W        W23938   1.846  26.472   4.392
23074W        W23939   3.229  28.870   5.164
23075W        W23940   2.906  26.723   6.762
23076W        W23941   3.619  28.379   4.896
23077W        W23942   2.246  27.671   6.380
23078W        W23943   0.012  27.222   4.586
23079W        W23944   1.123  27.637   6.159
23080W        W23945   2.327  26.901   4.537
23081W        W23946   2.204  27.391   4.641
23082W        W23947   0.547  26.811   6.115
23083W        W23948   0.532  26.687   7.037
23084W        W23949   0.422  25.604   5.196
23085W        W23950   2.190  25.951   5.757
23086W        W23951   1.838  26.136   6.920
23087W        W23952   2.193  26.285   4.098
23088W        W23953   3.376  28.678   6.852
23089W        W23954   2.343  25.759   6.891
23090W        W23955   3.362  28.060   7.013
23091W        W23956   2.792  26.227   6.609
23092W        W23957   2.592  26.165   4.879
23093W        W23958   2.985  27.299   7.283
23094W        W23959   0.725  28.875   5.269
23095W        W23960   1.383  26.592   4.255
23096W        W23961   0.952  25.876   6.919
23097W        W23962   3.004  26.360   4.600
23098W        W23963   1.114  29.059   7.016
23099W        W23964   1.040  25.595   4.251
23100W        W23965   3.361  26.129   5.286
23101W        W23966   3.511  28.378   3.731
23102W        W23967   0.418  27.581   5.433
23103W        W23968   2.335  26.168   3.663
23104W        W23969   3.469  28.500   5.383
23105W        W23970   3.508  25.694   6.133
23106W        W23971   1.953  26.906   6.687
23107W        W23972   2.046  28.245   4.390
23108W        W23973   2.446  27.539   7.130
23109W        W23974   2.120  25.516   5.439
23110W        W23975   0.732  26.419   5.502
23111W        W23976   0.286  27.619   6.276
23112W        W23977   2.145  28.812   4.982
23113W        W23978   3.339  26.409   5.854
23114W        W23979   1.976  28.756   6.621
23115W        W23980   3.319  27.815   3.826
23116W        W23981   1.754  27.298   4.887
23117W        W23982   3.606  25.809   6.628
23118W        W23983   1.755  27.644   6.222
23119W        W23984   1.972  26.530   5.667
23120W        W23985   2.824  26.828   4.505
23121W        W23986   3.111  26.561   4.147
23122W        W23987   2.920  28.601   4.536
23123W        W23988   2.754  28.204   5.332
23124W        W23989   2.650  27.283   4.310
23125W        W23990   2.083  27.493   5.296
23126W        W23991   2.964  27.281   5.363
23127W        W23992   0.339  26.296   5.787
23128W        W23993   3.117  27.348   6.614
23129W        W23994   3.468  28.966   5.760
23130W        W23995   1.398  28.410   5.162
23131W        W23996   2.405  28.943   6.486
23132W        W23997   2.399  26.273   6.250
23133W        W23998   1.606  28.981   6.311
23134W        W23999   3.303  25.935   4.777
23135W        W24000   3.094  27.254   6.078
23136W        W24001   0.077  26.575   6.116
23137W        W24002   2.937  26.370   5.134
23138W        W24003   3.348  26.521   6.911
23139W        W24004   2.233  28.220   5.129
23140W        W24005   1.489  28.811   4.742
23141W        W24006   0.604  25.991   4.000
23142W        W24007   1.708  25.645   5.810
23143W        W24008   0.736  28.765   3.658
23144W        W24009   1.110  27.231   4.409
23145W        W24010   1.764  27.860   6.722
23146W        W24011   1.594  26.218   4.712
23147W        W24012   2.950  25.815   5.140
23148W        W24013   2.670  29.097   5.468
23149W        W24014   2.082  28.745   5.808
23150W        W24015   1.478  27.782   5.769
23151W        W24016   3.248  28.505   5.895
23152W        W24017   0.942  26.008   4.664
23153W        W24018   1.464  28.305   5.624
23154W        W24019   0.947  26.236   3.689
23155W        W24020   1.748  26.845   6.083
23156W        W24021   2.596  25.711   5.953
23157W        W24022   0.016  27.554   5.838
23158W        W24023   1.720  27.372   3.996
23159W        W24024   0.988  25.687   3.766
23160W        W24025   1.726  26.768   4.817
23161W        W24026   2.696  25.744   6.516
23162W        W24027   1.284  27.756   6.625
23163W        W24028   2.088  27.538   6.842
23164W        W24029   2.705  27.568   6.735
23165W        W24030   1.989  25.708   7.240
23166W        W24031   1.211  26.324   5.633
23167W        W24032   0.637  26.280   5.031
23168W        W24033   0.423  28.992   4.707
23169W        W24034   1.755  28.322   6.832
23170W        W24035   0.790  27.807   4.191
23171W        W24036   2.470  27.192   5.412
23172W        W24037   2.750  26.991   5.811
23173W        W24038   1.955  27.665   5.745
23174W        W24039   2.425  28.039   3.877
23175W        W24040   2.097  26.060   5.205
23176W        W24041   3.576  26.338   4.473
23177W        W24042   0.070  28.927   6.504
23178W        W24043   0.487  28.153   6.036
23179W        W24044   0.054  28.999   4.268
23180W        W24045   1.953  26.269   6.074
23181W        W24046   1.316  28.292   3.923
23182W        W24047   3.221  28.674   4.109
23183W        W24048   2.196  27.327   4.123
23184W        W24049   1.039  26.518   4.640
23185W        W24050   1.871  26.428   3.692
23186W        W24051   2.455  27.993   6.870
23187W        W24052   2.808  25.899   4.487
23188W        W24053   0.138  25.747   3.935
23189W        W24054   1.424  28.066   6.225
23190W        W24055   1.223  27.982   5.317
23191W        W24056   0.965  27.934   3.715
23192W        W24057   0.206  28.175   4.483
23193W        W24058   0.710  27.245   6.925
23194W        W24059   1.414  25.805   7.111
23195W        W24060   2.123  25.947   6.467
23196W        W24061   1.318  25.715   4.748
23197W        W24062   2.377  25.792   4.253
23198W        W24063   0.322  25.724   5.830
23199W        W24064   0.370  26.687   5.200
23200W        W24065   3.059  25.795   5.606
23201W        W24066   0.481  26.293   4.420
23202W        W24067   3.052  25.981   6.036
23203W        W24068   3.448  27.184   3.721
23204W        W24069   0.740  25.942   5.540
23205W        W24070   1.854  26.514   6.480
23206W        W24071   0.002  26.204   3.958
23207W        W24072   0.788  27.593   6.519
23208W        W24073   2.146  26.991   5.698
23209W        W24074   2.013  29.070   3.994
23210W        W24075   0.159  27.577   3.691
23211W        W24076   0.894  27.988   6.817
23212W        W24077   0.415  27.155   6.448
23213W        W24078   1.406  27.260   6.242
23214W        W24079   3.174  25.619   6.504
23215W        W24080   3.572  27.229   6.495
23216W        W24081   3.560  27.429   4.181
23217W        W24082   2.423  27.761   4.280
23218W        W24083   2.897  29.061   3.975
23219W        W24084   2.074  27.051   7.117
23220W        W24085   0.404  28.018   7.157
23221W        W24086   3.610  25.940   7.109
23222W        W24087   3.328  26.868   5.730
23223W        W24088   1.636  28.998   7.207
23224W        W24089   1.491  25.627   3.934
23225W        W24090   3.030  28.226   3.877
23226W        W24091   0.799  26.319   6.763
23227W        W24092   1.233  28.313   6.625
23228W        W24093   3.359  26.304   6.423
23229W        W24094   2.570  28.963   4.391
23230W        W24095   2.809  27.582   5.758
23231W        W24096   1.059  25.998   6.425
23232W        W24097   1.528  27.067   7.182
23233W        W24098   1.031  28.246   4.376
23234W        W24099   2.786  27.744   4.640
23235W        W24100   0.554  26.370   6.364
23236W        W24101   1.883  28.432   4.828
23237W        W24102   3.633  26.992   5.009
23238W        W24103   1.855  25.625   6.728
23239W        W24104   2.635  28.330   5.807
23240W        W24105   2.938  28.674   5.515
23241W        W24106   2.157  28.476   3.943
23242W        W24107   0.167  28.368   6.785
23243W        W24108   0.910  26.360   6.023
23244W        W24109   0.880  25.708   5.133
23245W        W24110   2.501  26.550   5.825
23246W        W24111   1.299  27.721   4.025
23247W        W24112   3.297  27.663   5.524
23248W        W24113   0.624  28.421   6.947
23249W        W24114   3.011  29.103   4.744
23250W        W24115   1.110  26.123   5.189
23251W        W24116   0.879  27.616   5.279
23252W        W24117   1.192  29.027   6.029
23253W        W24118   3.259  29.123   7.061
23254W        W24119   2.418  27.311   5.994
23255W        W24120   0.267  27.109   3.909
23256W        W24121   3.401  28.767   4.606
23257W        W24122   3.238  26.091   4.225
23258W        W24123   1.377  25.610   6.628
23259W        W24124   3.083  28.412   5.086
23260W        W24125   3.112  26.968   4.991
23261W        W24126   1.229  26.641   5.207
23262W        W24127   1.474  26.903   6.531
23263W        W24128   2.585  28.056   6.394
23264W        W24129   1.235  26.510   6.506
23265W        W24130   1.214  28.976   5.122
23266W        W24131   0.531  28.935   6.756
23267W        W24132   0.643  28.296   3.886
23268W        W24133   3.160  28.054   4.696
23269W        W24134   0.764  26.846   6.582
23270W        W24135   3.537  26.776   4.063
23271W        W24136   1.282  27.833   4.534
23272W        W24137   2.381  27.215   6.615
23273W        W24138   2.272  26.843   6.159
23274W        W24139   0.832  27.215   6.188
23275W        W24140   3.042  29.103   6.017
23276W        W24141   2.833  25.737   7.011
23277W        W24142   0.497  25.887   6.598
23278W        W24143   0.836  26.910   5.651
23279W        W24144   1.205  26.724   3.773
23280W        W24145   0.008  28.483   6.318
23281W        W24146   1.593  27.192   5.761
23282W        W24147   1.416  26.217   3.866
23283W        W24148   0.551  27.033   4.647
23284W        W24149   0.322  28.885   6.084
23285W        W24150   3.117  27.111   4.192
23286W        W24151   3.212  26.027   6.878
23287W        W24152   2.648  28.236   4.841
23288W        W24153   0.246  27.160   7.018
23289W        W24154   3.212  25.624   4.314
23290W        W24155   2.732  28.099   4.325
23291W        W24156   1.634  27.157   4.410
23292W        W24157   2.821  25.961   3.933
23293W        W24158   2.886  26.568   6.119
23294W        W24159   0.595  27.161   5.326
23295W        W24160   0.889  28.100   4.975
23296W        W24161   2.652  26.720   4.940
23297W        W24162   1.675  26.099   5.636
23298W        W24163   3.637  28.010   6.147
23299W        W24164   3.555  25.997   5.708
23300W        W24165   0.094  28.827   5.084
23301W        W24166   0.603  28.014   4.620
23302W        W24167   0.518  25.631   7.173
23303W        W24168   1.637  28.484   7.275
23304W        W24169   3.392  27.452   5.065
23305W        W24170   2.746  27.629   3.945
23306W        W24171   2.041  29.150   6.157
23307W        W24172   2.898  27.872   7.194
23308W        W24173   1.713  25.582   4.474
23309W        W24174   2.426  26.451   5.333
23310W        W24175   0.112  28.038   5.665
23311W        W24176   1.365  26.000   4.306
23312W        W24177   1.169  27.484   7.155
23313W        W24178   2.163  26.465   4.869
23314W        W24179   2.368  27.875   5.991
23315W        W24180   0.522  28.480   6.426
23316W        W24181   1.113  28.463   7.149
23317W        W24182   0.964  26.260   4.163
23318W        W24183   2.481  26.402   4.488
23319W        W24184   2.439  28.510   6.725
23320W        W24185   1.124  27.102   5.324
23321W        W24186   0.779  28.800   6.189
23322W        W24187   3.524  28.917   3.790
23323W        W24188   0.387  27.589   6.786
23324W        W24189   2.382  27.851   5.474
23325W        W24190   0.818  27.500   4.716
23326W        W24191   1.189  28.507   6.111
23327W        W24192   1.567  25.926   5.152
23328W        W24193   0.178  27.910   4.082
23329W        W24194   1.697  26.861   3.952
23330W        W24195   0.343  27.410   4.971
23331W        W24196   1.633  26.052   6.435
23332W        W24197   3.305  25.761   3.862
23333W        W24198   3.398  27.507   6.961
23334W        W24199   2.052  28.764   7.113
23335W        W24200   3.610  27.858   6.635
23336W        W24201   3.018  28.656   7.246
23337W        W24202   0.757  29.112   5.724
23338W        W24203   3.616  27.734   4.598
23339W        W24204   2.146  27.001   5.111
23340W        W24205   1.913  25.613   5.001
23341W        W24206   0.972  28.597   4.838
23342W        W24207   1.471  26.338   6.063
23343W        W24208   1.171  25.707   5.532
23344W        W24209   0.234  28.529   4.080
23345W        W24210   2.050  27.893   4.798
23346W        W24211   0.925  28.688   6.677
23347W        W24212   0.402  27.511   4.373
23348W        W24213   0.287  26.054   5.372
23349W        W24214   1.835  28.019   5.429
23350W        W24215   0.087  25.873   4.449
23351W        W24216   2.751  27.079   6.376
23352W        W24217   2.628  26.465   3.948
23353W        W24218   3.145  28.137   5.596
23354W        W24219   1.806  28.621   5.427
23355W        W24220   1.218  28.725   4.338
23356W        W24221   2.500  25.628   3.768
23357W        W24222   0.300  28.888   5.509
23358W        W24223   2.497  26.646   7.144
23359W        W24224   0.480  26.176   7.143
23360W        W24225   0.211  26.776   4.476
23361W        W24226   0.902  26.765   4.201
23362W        W24227   2.665  27.092   7.018
23363W        W24228   1.008  27.373   5.727
23364W        W24229   2.482  25.659   4.847
23365W        W24230   1.613  29.090   5.350
23366W        W24231   2.827  28.552   6.287
23367W        W24232   2.411  28.701   5.398
23368W        W24233   2.430  27.681   4.992
23369W        W24234   1.892  25.906   4.063
23370W        W24235   3.573  25.534   4.785
23371W        W24236   1.261  27.169   3.948
23372W        W24237   3.427  26.506   4.938
23373W        W24238   2.119  27.676   3.815
23374W        W24239   3.055  27.876   6.563
23375W        W24240   2.709  28.577   4.030
23376W        W24241   1.324  26.252   6.936
23377W        W24242   1.144  26.836   6.177
23378W        W24243   3.236  28.331   6.454
23379W        W24244   2.336  26.281   6.831
23380W        W24245   0.180  26.752   6.608
23381W        W24246   1.940  27.229   6.334
23382W        W24247   0.297  27.987   4.991
23383W        W24248   0.444  27.284   5.881
23384W        W24249   2.761  27.570   6.231
23385W        W24250   2.533  28.950   7.042
23386W        W24251   2.429  26.689   6.595
23387W        W24252   2.706  28.743   5.000
23388W        W24253   1.708  28.463   6.323
23389W        W24254   1.193  28.818   5.592
23390W        W24255   2.998  27.989   6.011
23391W        W24256   2.048  28.061   7.148
23392W        W24257   0.653  28.014   5.487
23393W        W24258   2.999  27.773   5.132
23394W        W24259   2.640  28.839   5.883
23395W        W24260   0.618  28.568   5.753
23396W        W24261   1.639  26.620   6.963
23397W        W24262   2.090  28.786   4.474
23398W        W24263   1.398  28.041   7.112
23399W        W24264   1.524  28.279   4.489
23400W        W24265   0.745  27.019   3.748
23401W        W24266   0.084  29.105  10.648
23402W        W24267   0.460  27.998  10.171
23403W        W24268   3.165  27.728   7.941
23404W        W24269   3.295  28.813   9.968
23405W        W24270   1.213  28.804   7.494
23406W        W24271   1.296  26.956   8.477
23407W        W24272   0.811  26.804   8.641
23408W        W24273   1.802  27.619   8.075
23409W        W24274   1.477  28.711  10.430
23410W        W24275   0.126  26.272  10.393
23411W        W24276   0.888  25.552  10.195
23412W        W24277   2.582  25.940   9.082
23413W        W24278   2.231  26.811   7.652
23414W        W24279   2.801  26.245  10.743
23415W        W24280   0.167  26.037   9.868
23416W        W24281   0.266  28.656  10.889
23417W        W24282   1.788  28.046   7.621
23418W        W24283   0.220  26.829   9.314
23419W        W24284   1.113  26.720  10.551
23420W        W24285   3.572  26.579   9.050
23421W        W24286   3.336  27.622   9.909
23422W        W24287   1.644  26.955   8.936
23423W        W24288   2.190  28.294   9.305
23424W        W24289   0.690  27.728   9.537
23425W        W24290   0.049  27.256   9.108
23426W        W24291   1.085  27.228  10.300
23427W        W24292   3.356  27.011  10.554
23428W        W24293   0.972  28.455   8.999
23429W        W24294   2.093  28.144  10.133
23430W        W24295   1.313  26.784   9.358
23431W        W24296   1.605  27.568   9.001
23432W        W24297   2.602  28.341  10.849
23433W        W24298   1.681  27.661  10.859
23434W        W24299   1.662  27.377  10.337
23435W        W24300   0.071  26.768  10.859
23436W        W24301   2.903  28.303  10.458
23437W        W24302   0.484  25.885   8.456
23438W        W24303   1.011  28.143   9.455
23439W        W24304   3.474  27.926   8.745
23440W        W24305   2.887  26.326   9.312
23441W        W24306   3.172  26.279   7.407
23442W        W24307   3.637  27.080   9.713
23443W        W24308   1.604  28.787   9.466
23444W        W24309   3.378  28.253   7.904
23445W        W24310   0.507  29.039   7.658
23446W        W24311   0.900  29.085   8.334
23447W        W24312   0.697  25.839   9.760
23448W        W24313   3.320  26.857  10.035
23449W        W24314   2.725  27.279   8.494
23450W        W24315   2.691  26.967   7.521
23451W        W24316   1.899  28.111   9.661
23452W        W24317   1.705  26.441   8.860
23453W        W24318   2.305  28.528   9.854
23454W        W24319   3.176  27.319   8.276
23455W        W24320   2.078  25.977   8.292
23456W        W24321   0.735  28.671   7.975
23457W        W24322   0.106  26.170   8.574
23458W        W24323   2.892  26.777   9.048
23459W        W24324   0.350  28.394   8.963
23460W        W24325   1.691  28.744   7.833
23461W        W24326   3.083  26.770   7.297
23462W        W24327   0.106  28.528   9.461
23463W        W24328   0.897  28.100   9.941
23464W        W24329   1.270  27.460   8.560
23465W        W24330   1.292  25.865   9.653
23466W        W24331   3.521  25.627   8.950
23467W        W24332   0.740  27.499   7.418
23468W        W24333   0.395  26.532   7.597
23469W        W24334   0.457  28.488   8.391
23470W        W24335   1.588  27.971   8.639
23471W        W24336   2.920  28.830  10.353
23472W        W24337   1.846  26.472   8.037
23473W        W24338   3.229  28.870   8.809
23474W        W24339   2.906  26.723  10.407
23475W        W24340   3.619  28.379   8.541
23476W        W24341   2.246  27.671  10.025
23477W        W24342   0.012  27.222   8.231
23478W        W24343   1.123  27.637   9.804
23479W        W24344   2.327  26.901   8.182
23480W        W24345   2.204  27.391   8.286
23481W        W24346   0.547  26.811   9.760
23482W        W24347   0.532  26.687  10.682
23483W        W24348   0.422  25.604   8.841
23484W        W24349   2.190  25.951   9.402
23485W        W24350   1.838  26.136  10.565
23486W        W24351   2.193  26.285   7.743
23487W        W24352   3.376  28.678  10.497
23488W        W24353   2.343  25.759  10.536
23489W        W24354   3.362  28.060  10.658
23490W        W24355   2.792  26.227  10.254
23491W        W24356   2.592  26.165   8.524
23492W        W24357   2.985  27.299  10.928
23493W        W24358   0.725  28.875   8.914
23494W        W24359   1.383  26.592   7.900
23495W        W24360   0.952  25.876  10.564
23496W        W24361   3.004  26.360   8.245
23497W        W24362   3.371  26.842   8.190
23498W        W24363   1.114  29.059  10.661
23499W        W24364   1.040  25.595   7.896
23500W        W24365   3.361  26.129   8.931
23501W        W24366   3.511  28.378   7.376
23502W        W24367   0.418  27.581   9.078
23503W        W24368   2.335  26.168   7.308
23504W        W24369   3.469  28.500   9.028
23505W        W24370   3.508  25.694   9.778
23506W        W24371   1.953  26.906  10.332
23507W        W24372   2.046  28.245   8.035
23508W        W24373   2.446  27.539  10.775
23509W        W24374   2.120  25.516   9.084
23510W        W24375   0.732  26.419   9.147
23511W        W24376   0.286  27.619   9.921
23512W        W24377   2.145  28.812   8.627
23513W        W24378   3.339  26.409   9.499
23514W        W24379   1.976  28.756  10.266
23515W        W24380   3.319  27.815   7.471
23516W        W24381   1.754  27.298   8.532
23517W        W24382   3.606  25.809  10.273
23518W        W24383   1.755  27.644   9.867
23519W        W24384   1.972  26.530   9.312
23520W        W24385   2.824  26.828   8.150
23521W        W24386   3.111  26.561   7.792
23522W        W24387   2.920  28.601   8.181
23523W        W24388   2.754  28.204   8.977
23524W        W24389   2.650  27.283   7.955
23525W        W24390   2.083  27.493   8.941
23526W        W24391   2.964  27.281   9.008
23527W        W24392   0.339  26.296   9.432
23528W        W24393   3.117  27.348  10.259
23529W        W24394   3.468  28.966   9.405
23530W        W24395   1.398  28.410   8.807
23531W        W24396   2.405  28.943  10.131
23532W        W24397   2.399  26.273   9.895
23533W        W24398   1.606  28.981   9.956
23534W        W24399   3.303  25.935   8.422
23535W        W24400   3.094  27.254   9.723
23536W        W24401   0.077  26.575   9.761
23537W        W24402   2.937  26.370   8.779
23538W        W24403   3.348  26.521  10.556
23539W        W24404   2.233  28.220   8.774
23540W        W24405   1.489  28.811   8.387
23541W        W24406   0.604  25.991   7.645
23542W        W24407   1.708  25.645   9.455
23543W        W24408   0.736  28.765   7.303
23544W        W24409   1.110  27.231   8.054
23545W        W24410   1.764  27.860  10.367
23546W        W24411   1.594  26.218   8.357
23547W        W24412   2.950  25.815   8.785
23548W        W24413   2.670  29.097   9.113
23549W        W24414   2.082  28.745   9.453
23550W        W24415   1.478  27.782   9.414
23551W        W24416   3.248  28.505   9.540
23552W        W24417   0.942  26.008   8.309
23553W        W24418   1.464  28.305   9.269
23554W        W24419   0.947  26.236   7.334
23555W        W24420   1.748  26.845   9.728
23556W        W24421   2.596  25.711   9.598
23557W        W24422   0.016  27.554   9.483
23558W        W24423   1.720  27.372   7.641
23559W        W24424   0.988  25.687   7.411
23560W        W24425   1.726  26.768   8.462
23561W        W24426   2.696  25.744  10.161
23562W        W24427   1.284  27.756  10.270
23563W        W24428   2.088  27.538  10.487
23564W        W24429   2.705  27.568  10.380
23565W        W24430   1.989  25.708  10.885
23566W        W24431   1.211  26.324   9.278
23567W        W24432   0.637  26.280   8.676
23568W        W24433   0.423  28.992   8.352
23569W        W24434   1.755  28.322  10.477
23570W        W24435   0.790  27.807   7.836
23571W        W24436   2.470  27.192   9.057
23572W        W24437   2.750  26.991   9.456
23573W        W24438   1.955  27.665   9.390
23574W        W24439   2.425  28.039   7.522
23575W        W24440   2.097  26.060   8.850
23576W        W24441   3.576  26.338   8.118
23577W        W24442   0.070  28.927  10.149
23578W        W24443   0.487  28.153   9.681
23579W        W24444   0.054  28.999   7.913
23580W        W24445   1.953  26.269   9.719
23581W        W24446   1.316  28.292   7.568
23582W        W24447   3.221  28.674   7.754
23583W        W24448   2.196  27.327   7.768
23584W        W24449   1.039  26.518   8.285
23585W        W24450   1.871  26.428   7.337
23586W        W24451   2.455  27.993  10.515
23587W        W24452   2.808  25.899   8.132
23588W        W24453   0.138  25.747   7.580
23589W        W24454   1.424  28.066   9.870
23590W        W24455   1.223  27.982   8.962
23591W        W24456   0.965  27.934   7.360
23592W        W24457   0.206  28.175   8.128
23593W        W24458   0.710  27.245  10.570
23594W        W24459   1.414  25.805  10.756
23595W        W24460   2.123  25.947  10.112
23596W        W24461   1.318  25.715   8.393
23597W        W24462   2.377  25.792   7.898
23598W        W24463   0.322  25.724   9.475
23599W        W24464   0.370  26.687   8.845
23600W        W24465   3.059  25.795   9.251
23601W        W24466   0.481  26.293   8.065
23602W        W24467   3.052  25.981   9.681
23603W        W24468   3.448  27.184   7.366
23604W        W24469   0.740  25.942   9.185
23605W        W24470   1.854  26.514  10.125
23606W        W24471   0.002  26.204   7.603
23607W        W24472   0.788  27.593  10.164
23608W        W24473   2.146  26.991   9.343
23609W        W24474   2.013  29.070   7.639
23610W        W24475   0.159  27.577   7.336
23611W        W24476   0.894  27.988  10.462
23612W        W24477   0.415  27.155  10.093
23613W        W24478   1.406  27.260   9.887
23614W        W24479   3.174  25.619  10.149
23615W        W24480   3.572  27.229  10.140
23616W        W24481   3.560  27.429   7.826
23617W        W24482   2.423  27.761   7.925
23618W        W24483   2.897  29.061   7.620
23619W        W24484   2.074  27.051  10.762
23620W        W24485   0.404  28.018  10.802
23621W        W24486   3.610  25.940  10.754
23622W        W24487   3.328  26.868   9.375
23623W        W24488   1.636  28.998  10.852
23624W        W24489   1.491  25.627   7.579
23625W        W24490   3.030  28.226   7.522
23626W        W24491   0.799  26.319  10.408
23627W        W24492   1.233  28.313  10.270
23628W        W24493   3.359  26.304  10.068
23629W        W24494   2.570  28.963   8.036
23630W        W24495   2.809  27.582   9.403
23631W        W24496   1.059  25.998  10.070
23632W        W24497   1.528  27.067  10.827
23633W        W24498   1.031  28.246   8.021
23634W        W24499   2.786  27.744   8.285
23635W        W24500   0.554  26.370  10.009
23636W        W24501   1.883  28.432   8.473
23637W        W24502   3.633  26.992   8.654
23638W        W24503   1.855  25.625  10.373
23639W        W24504   2.635  28.330   9.452
23640W        W24505   2.938  28.674   9.160
23641W        W24506   2.157  28.476   7.588
23642W        W24507   0.167  28.368  10.430
23643W        W24508   0.910  26.360   9.668
23644W        W24509   0.880  25.708   8.778
23645W        W24510   2.501  26.550   9.470
23646W        W24511   1.299  27.721   7.670
23647W        W24512   3.297  27.663   9.169
23648W        W24513   0.624  28.421  10.592
23649W        W24514   3.011  29.103   8.389
23650W        W24515   1.110  26.123   8.834
23651W        W24516   0.879  27.616   8.924
23652W        W24517   1.192  29.027   9.674
23653W        W24518   3.259  29.123  10.706
23654W        W24519   2.418  27.311   9.639
23655W        W24520   0.267  27.109   7.554
23656W        W24521   3.401  28.767   8.251
23657W        W24522   3.238  26.091   7.870
23658W        W24523   1.377  25.610  10.273
23659W        W24524   3.083  28.412   8.731
23660W        W24525   3.112  26.968   8.636
23661W        W24526   1.229  26.641   8.852
23662W        W24527   1.474  26.903  10.176
23663W        W24528   2.585  28.056  10.039
23664W        W24529   1.235  26.510  10.151
23665W        W24530   1.214  28.976   8.767
23666W        W24531   0.531  28.935  10.401
23667W        W24532   0.643  28.296   7.531
23668W        W24533   3.160  28.054   8.341
23669W        W24534   0.764  26.846  10.227
23670W        W24535   3.537  26.776   7.708
23671W        W24536   1.282  27.833   8.179
23672W        W24537   2.381  27.215  10.260
23673W        W24538   2.272  26.843   9.804
23674W        W24539   0.832  27.215   9.833
23675W        W24540   3.042  29.103   9.662
23676W        W24541   2.833  25.737  10.656
23677W        W24542   0.497  25.887  10.243
23678W        W24543   0.836  26.910   9.296
23679W        W24544   1.205  26.724   7.418
23680W        W24545   0.008  28.483   9.963
23681W        W24546   1.593  27.192   9.406
23682W        W24547   1.416  26.217   7.511
23683W        W24548   0.551  27.033   8.292
23684W        W24549   0.322  28.885   9.729
23685W        W24550   3.117  27.111   7.837
23686W        W24551   3.212  26.027  10.523
23687W        W24552   2.648  28.236   8.486
23688W        W24553   0.246  27.160  10.663
23689W        W24554   3.212  25.624   7.959
23690W        W24555   2.732  28.099   7.970
23691W        W24556   1.634  27.157   8.055
23692W        W24557   2.821  25.961   7.578
23693W        W24558   2.886  26.568   9.764
23694W        W24559   0.595  27.161   8.971
23695W        W24560   0.889  28.100   8.620
23696W        W24561   2.652  26.720   8.585
23697W        W24562   1.675  26.099   9.281
23698W        W24563   3.637  28.010   9.792
23699W        W24564   3.555  25.997   9.353
23700W        W24565   0.094  28.827   8.729
23701W        W24566   0.603  28.014   8.265
23702W        W24567   0.518  25.631  10.818
23703W        W24568   1.637  28.484  10.920
23704W        W24569   3.392  27.452   8.710
23705W        W24570   2.746  27.629   7.590
23706W        W24571   2.041  29.150   9.802
23707W        W24572   2.898  27.872  10.839
23708W        W24573   1.713  25.582   8.119
23709W        W24574   2.426  26.451   8.978
23710W        W24575   0.112  28.038   9.310
23711W        W24576   1.365  26.000   7.951
23712W        W24577   1.169  27.484  10.800
23713W        W24578   2.163  26.465   8.514
23714W        W24579   2.368  27.875   9.636
23715W        W24580   0.522  28.480  10.071
23716W        W24581   1.113  28.463  10.794
23717W        W24582   0.964  26.260   7.808
23718W        W24583   2.481  26.402   8.133
23719W        W24584   2.439  28.510  10.370
23720W        W24585   1.124  27.102   8.969
23721W        W24586   0.779  28.800   9.834
23722W        W24587   3.524  28.917   7.435
23723W        W24588   0.387  27.589  10.431
23724W        W24589   2.382  27.851   9.119
23725W        W24590   0.818  27.500   8.361
23726W        W24591   1.189  28.507   9.756
23727W        W24592   1.567  25.926   8.797
23728W        W24593   0.178  27.910   7.727
23729W        W24594   1.697  26.861   7.597
23730W        W24595   0.343  27.410   8.616
23731W        W24596   1.633  26.052  10.080
23732W        W24597   3.305  25.761   7.507
23733W        W24598   3.398  27.507  10.606
23734W        W24599   2.052  28.764  10.758
23735W        W24600   3.610  27.858  10.280
23736W        W24601   3.018  28.656  10.891
23737W        W24602   0.757  29.112   9.369
23738W        W24603   3.616  27.734   8.243
23739W        W24604   2.146  27.001   8.756
23740W        W24605   1.913  25.613   8.646
23741W        W24606   0.972  28.597   8.483
23742W        W24607   1.471  26.338   9.708
23743W        W24608   1.171  25.707   9.177
23744W        W24609   0.234  28.529   7.725
23745W        W24610   2.050  27.893   8.443
23746W        W24611   0.925  28.688  10.322
23747W        W24612   0.402  27.511   8.018
23748W        W24613   0.287  26.054   9.017
23749W        W24614   1.835  28.019   9.074
23750W        W24615   0.087  25.873   8.094
23751W        W24616   2.751  27.079  10.021
23752W        W24617   2.628  26.465   7.593
23753W        W24618   3.145  28.137   9.241
23754W        W24619   1.806  28.621   9.072
23755W        W24620   1.218  28.725   7.983
23756W        W24621   2.500  25.628   7.413
23757W        W24622   0.300  28.888   9.154
23758W        W24623   2.497  26.646  10.789
23759W        W24624   0.480  26.176  10.788
23760W        W24625   0.211  26.776   8.121
23761W        W24626   0.902  26.765   7.846
23762W        W24627   2.665  27.092  10.663
23763W        W24628   1.008  27.373   9.372
23764W        W24629   2.482  25.659   8.492
23765W        W24630   1.613  29.090   8.995
23766W        W24631   2.827  28.552   9.932
23767W        W24632   2.411  28.701   9.043
23768W        W24633   2.430  27.681   8.637
23769W        W24634   1.892  25.906   7.708
23770W        W24635   3.573  25.534   8.430
23771W        W24636   1.261  27.169   7.593
23772W        W24637   3.427  26.506   8.583
23773W        W24638   2.119  27.676   7.460
23774W        W24639   3.055  27.876  10.208
23775W        W24640   2.709  28.577   7.675
23776W        W24641   1.324  26.252  10.581
23777W        W24642   1.144  26.836   9.822
23778W        W24643   3.236  28.331  10.099
23779W        W24644   2.336  26.281  10.476
23780W        W24645   0.180  26.752  10.253
23781W        W24646   1.940  27.229   9.979
23782W        W24647   0.297  27.987   8.636
23783W        W24648   0.444  27.284   9.526
23784W        W24649   2.761  27.570   9.876
23785W        W24650   2.533  28.950  10.687
23786W        W24651   2.429  26.689  10.240
23787W        W24652   2.706  28.743   8.645
23788W        W24653   1.708  28.463   9.968
23789W        W24654   1.193  28.818   9.237
23790W        W24655   2.998  27.989   9.656
23791W        W24656   2.048  28.061  10.793
23792W        W24657   0.653  28.014   9.132
23793W        W24658   2.999  27.773   8.777
23794W        W24659   2.640  28.839   9.528
23795W        W24660   0.618  28.568   9.398
23796W        W24661   1.639  26.620  10.608
23797W        W24662   2.090  28.786   8.119
23798W        W24663   1.398  28.041  10.757
23799W        W24664   1.524  28.279   8.134
23800W        W24665   0.745  27.019   7.393
23801W        W24666   0.084  29.105  14.292
23802W        W24667   0.460  27.998  13.815
23803W        W24668   3.165  27.728  11.585
23804W        W24669   3.295  28.813  13.612
23805W        W24670   1.213  28.804  11.138
23806W        W24671   1.296  26.956  12.121
23807W        W24672   0.811  26.804  12.285
23808W        W24673   1.802  27.619  11.719
23809W        W24674   1.477  28.711  14.074
23810W        W24675   0.126  26.272  14.037
23811W        W24676   0.888  25.552  13.839
23812W        W24677   2.582  25.940  12.726
23813W        W24678   2.231  26.811  11.296
23814W        W24679   2.801  26.245  14.387
23815W        W24680   0.167  26.037  13.512
23816W        W24681   0.266  28.656  14.533
23817W        W24682   1.788  28.046  11.265
23818W        W24683   0.220  26.829  12.958
23819W        W24684   1.113  26.720  14.195
23820W        W24685   3.572  26.579  12.694
23821W        W24686   3.336  27.622  13.553
23822W        W24687   1.644  26.955  12.580
23823W        W24688   2.190  28.294  12.949
23824W        W24689   0.690  27.728  13.181
23825W        W24690   0.049  27.256  12.752
23826W        W24691   1.085  27.228  13.944
23827W        W24692   3.356  27.011  14.198
23828W        W24693   0.972  28.455  12.643
23829W        W24694   2.093  28.144  13.777
23830W        W24695   1.313  26.784  13.002
23831W        W24696   1.605  27.568  12.645
23832W        W24697   2.602  28.341  14.493
23833W        W24698   1.681  27.661  14.503
23834W        W24699   1.662  27.377  13.981
23835W        W24700   0.071  26.768  14.503
23836W        W24701   2.903  28.303  14.102
23837W        W24702   0.484  25.885  12.100
23838W        W24703   1.011  28.143  13.099
23839W        W24704   3.474  27.926  12.389
23840W        W24705   2.887  26.326  12.956
23841W        W24706   3.172  26.279  11.051
23842W        W24707   3.637  27.080  13.357
23843W        W24708   1.604  28.787  13.110
23844W        W24709   3.378  28.253  11.548
23845W        W24710   0.507  29.039  11.302
23846W        W24711   0.900  29.085  11.978
23847W        W24712   0.697  25.839  13.404
23848W        W24713   3.320  26.857  13.679
23849W        W24714   2.725  27.279  12.138
23850W        W24715   2.691  26.967  11.165
23851W        W24716   1.899  28.111  13.305
23852W        W24717   1.705  26.441  12.504
23853W        W24718   2.305  28.528  13.498
23854W        W24719   3.176  27.319  11.920
23855W        W24720   2.078  25.977  11.936
23856W        W24721   0.735  28.671  11.619
23857W        W24722   0.106  26.170  12.218
23858W        W24723   2.892  26.777  12.692
23859W        W24724   0.350  28.394  12.607
23860W        W24725   1.691  28.744  11.477
23861W        W24726   3.083  26.770  10.941
23862W        W24727   0.106  28.528  13.105
23863W        W24728   0.897  28.100  13.585
23864W        W24729   1.270  27.460  12.204
23865W        W24730   1.292  25.865  13.297
23866W        W24731   3.521  25.627  12.594
23867W        W24732   0.740  27.499  11.062
23868W        W24733   0.395  26.532  11.241
23869W        W24734   0.457  28.488  12.035
23870W        W24735   1.588  27.971  12.283
23871W        W24736   2.920  28.830  13.997
23872W        W24737   1.846  26.472  11.681
23873W        W24738   3.229  28.870  12.453
23874W        W24739   2.906  26.723  14.051
23875W        W24740   3.619  28.379  12.185
23876W        W24741   2.246  27.671  13.669
23877W        W24742   0.012  27.222  11.875
23878W        W24743   1.123  27.637  13.448
23879W        W24744   2.327  26.901  11.826
23880W        W24745   2.204  27.391  11.930
23881W        W24746   0.547  26.811  13.404
23882W        W24747   0.532  26.687  14.326
23883W        W24748   0.422  25.604  12.485
23884W        W24749   2.190  25.951  13.046
23885W        W24750   1.838  26.136  14.209
23886W        W24751   2.193  26.285  11.387
23887W        W24752   3.376  28.678  14.141
23888W        W24753   2.343  25.759  14.180
23889W        W24754   3.362  28.060  14.302
23890W        W24755   2.792  26.227  13.898
23891W        W24756   2.592  26.165  12.168
23892W        W24757   2.985  27.299  14.572
23893W        W24758   0.725  28.875  12.558
23894W        W24759   1.383  26.592  11.544
23895W        W24760   0.952  25.876  14.208
23896W        W24761   3.004  26.360  11.889
23897W        W24762   3.371  26.842  11.834
23898W        W24763   1.114  29.059  14.305
23899W        W24764   1.040  25.595  11.540
23900W        W24765   3.361  26.129  12.575
23901W        W24766   3.511  28.378  11.020
23902W        W24767   0.418  27.581  12.722
23903W        W24768   2.335  26.168  10.952
23904W        W24769   3.469  28.500  12.672
23905W        W24770   3.508  25.694  13.422
23906W        W24771   1.953  26.906  13.976
23907W        W24772   2.046  28.245  11.679
23908W        W24773   2.446  27.539  14.419
23909W        W24774   2.120  25.516  12.728
23910W        W24775   0.732  26.419  12.791
23911W        W24776   0.286  27.619  13.565
23912W        W24777   2.145  28.812  12.271
23913W        W24778   3.339  26.409  13.143
23914W        W24779   1.976  28.756  13.910
23915W        W24780   3.319  27.815  11.115
23916W        W24781   1.754  27.298  12.176
23917W        W24782   3.606  25.809  13.917
23918W        W24783   1.755  27.644  13.511
23919W        W24784   1.972  26.530  12.956
23920W        W24785   2.824  26.828  11.794
23921W        W24786   3.111  26.561  11.436
23922W        W24787   2.920  28.601  11.825
23923W        W24788   2.754  28.204  12.621
23924W        W24789   2.650  27.283  11.599
23925W        W24790   2.083  27.493  12.585
23926W        W24791   2.964  27.281  12.652
23927W        W24792   0.339  26.296  13.076
23928W        W24793   3.117  27.348  13.903
23929W        W24794   3.468  28.966  13.049
23930W        W24795   1.398  28.410  12.451
23931W        W24796   2.405  28.943  13.775
23932W        W24797   2.399  26.273  13.539
23933W        W24798   1.606  28.981  13.600
23934W        W24799   3.303  25.935  12.066
23935W        W24800   3.094  27.254  13.367
23936W        W24801   0.077  26.575  13.405
23937W        W24802   2.937  26.370  12.423
23938W        W24803   3.348  26.521  14.200
23939W        W24804   2.233  28.220  12.418
23940W        W24805   1.489  28.811  12.031
23941W        W24806   0.604  25.991  11.289
23942W        W24807   1.708  25.645  13.099
23943W        W24808   0.736  28.765  10.947
23944W        W24809   1.110  27.231  11.698
23945W        W24810   1.764  27.860  14.011
23946W        W24811   1.594  26.218  12.001
23947W        W24812   2.950  25.815  12.429
23948W        W24813   2.670  29.097  12.757
23949W        W24814   2.082  28.745  13.097
23950W        W24815   1.478  27.782  13.058
23951W        W24816   3.248  28.505  13.184
23952W        W24817   0.942  26.008  11.953
23953W        W24818   1.464  28.305  12.913
23954W        W24819   0.947  26.236  10.978
23955W        W24820   1.748  26.845  13.372
23956W        W24821   2.596  25.711  13.242
23957W        W24822   0.016  27.554  13.127
23958W        W24823   1.720  27.372  11.285
23959W        W24824   0.988  25.687  11.055
23960W        W24825   1.726  26.768  12.106
23961W        W24826   2.696  25.744  13.805
23962W        W24827   1.284  27.756  13.914
23963W        W24828   2.088  27.538  14.131
23964W        W24829   2.705  27.568  14.024
23965W        W24830   1.989  25.708  14.529
23966W        W24831   1.211  26.324  12.922
23967W        W24832   0.637  26.280  12.320
23968W        W24833   0.423  28.992  11.996
23969W        W24834   1.755  28.322  14.121
23970W        W24835   0.790  27.807  11.480
23971W        W24836   2.470  27.192  12.701
23972W        W24837   2.750  26.991  13.100
23973W        W24838   1.955  27.665  13.034
23974W        W24839   2.425  28.039  11.166
23975W        W24840   2.097  26.060  12.494
23976W        W24841   3.576  26.338  11.762
23977W        W24842   0.070  28.927  13.793
23978W        W24843   0.487  28.153  13.325
23979W        W24844   0.054  28.999  11.557
23980W        W24845   1.953  26.269  13.363
23981W        W24846   1.316  28.292  11.212
23982W        W24847   3.221  28.674  11.398
23983W        W24848   2.196  27.327  11.412
23984W        W24849   1.039  26.518  11.929
23985W        W24850   1.871  26.428  10.981
23986W        W24851   2.455  27.993  14.159
23987W        W24852   2.808  25.899  11.776
23988W        W24853   0.138  25.747  11.224
23989W        W24854   1.424  28.066  13.514
23990W        W24855   1.223  27.982  12.606
23991W        W24856   0.965  27.934  11.004
23992W        W24857   0.206  28.175  11.772
23993W        W24858   0.710  27.245  14.214
23994W        W24859   1.414  25.805  14.400
23995W        W24860   2.123  25.947  13.756
23996W        W24861   1.318  25.715  12.037
23997W        W24862   2.377  25.792  11.542
23998W        W24863   0.322  25.724  13.119
23999W        W24864   0.370  26.687  12.489
24000W        W24865   3.059  25.795  12.895
24001W        W24866   0.481  26.293  11.709
24002W        W24867   3.052  25.981  13.325
24003W        W24868   3.448  27.184  11.010
24004W        W24869   0.740  25.942  12.829
24005W        W24870   1.854  26.514  13.769
24006W        W24871   0.002  26.204  11.247
24007W        W24872   0.788  27.593  13.808
24008W        W24873   2.146  26.991  12.987
24009W        W24874   2.013  29.070  11.283
24010W        W24875   0.159  27.577  10.980
24011W        W24876   0.894  27.988  14.106
24012W        W24877   0.415  27.155  13.737
24013W        W24878   1.406  27.260  13.531
24014W        W24879   3.174  25.619  13.793
24015W        W24880   3.572  27.229  13.784
24016W        W24881   3.560  27.429  11.470
24017W        W24882   2.423  27.761  11.569
24018W        W24883   2.897  29.061  11.264
24019W        W24884   2.074  27.051  14.406
24020W        W24885   0.404  28.018  14.446
24021W        W24886   3.610  25.940  14.398
24022W        W24887   3.328  26.868  13.019
24023W        W24888   1.636  28.998  14.496
24024W        W24889   1.491  25.627  11.223
24025W        W24890   3.030  28.226  11.166
24026W        W24891   0.799  26.319  14.052
24027W        W24892   1.233  28.313  13.914
24028W        W24893   3.359  26.304  13.712
24029W        W24894   2.570  28.963  11.680
24030W        W24895   2.809  27.582  13.047
24031W        W24896   1.059  25.998  13.714
24032W        W24897   1.528  27.067  14.471
24033W        W24898   1.031  28.246  11.665
24034W        W24899   2.786  27.744  11.929
24035W        W24900   0.554  26.370  13.653
24036W        W24901   1.883  28.432  12.117
24037W        W24902   3.633  26.992  12.298
24038W        W24903   1.855  25.625  14.017
24039W        W24904   2.635  28.330  13.096
24040W        W24905   2.938  28.674  12.804
24041W        W24906   2.157  28.476  11.232
24042W        W24907   0.167  28.368  14.074
24043W        W24908   0.910  26.360  13.312
24044W        W24909   0.880  25.708  12.422
24045W        W24910   2.501  26.550  13.114
24046W        W24911   1.299  27.721  11.314
24047W        W24912   3.297  27.663  12.813
24048W        W24913   0.624  28.421  14.236
24049W        W24914   3.011  29.103  12.033
24050W        W24915   1.110  26.123  12.478
24051W        W24916   0.879  27.616  12.568
24052W        W24917   1.192  29.027  13.318
24053W        W24918   3.259  29.123  14.350
24054W        W24919   2.418  27.311  13.283
24055W        W24920   0.267  27.109  11.198
24056W        W24921   3.401  28.767  11.895
24057W        W24922   3.238  26.091  11.514
24058W        W24923   1.377  25.610  13.917
24059W        W24924   3.083  28.412  12.375
24060W        W24925   3.112  26.968  12.280
24061W        W24926   1.229  26.641  12.496
24062W        W24927   1.474  26.903  13.820
24063W        W24928   2.585  28.056  13.683
24064W        W24929   1.235  26.510  13.795
24065W        W24930   1.214  28.976  12.411
24066W        W24931   0.531  28.935  14.045
24067W        W24932   0.643  28.296  11.175
24068W        W24933   3.160  28.054  11.985
24069W        W24934   0.764  26.846  13.871
24070W        W24935   3.537  26.776  11.352
24071W        W24936   1.282  27.833  11.823
24072W        W24937   2.381  27.215  13.904
24073W        W24938   2.272  26.843  13.448
24074W        W24939   0.832  27.215  13.477
24075W        W24940   3.042  29.103  13.306
24076W        W24941   2.833  25.737  14.300
24077W        W24942   0.497  25.887  13.887
24078W        W24943   0.836  26.910  12.940
24079W        W24944   1.205  26.724  11.062
24080W        W24945   0.008  28.483  13.607
24081W        W24946   1.593  27.192  13.050
24082W        W24947   1.416  26.217  11.155
24083W        W24948   0.551  27.033  11.936
24084W        W24949   0.322  28.885  13.373
24085W        W24950   3.117  27.111  11.481
24086W        W24951   3.212  26.027  14.167
24087W        W24952   2.648  28.236  12.130
24088W        W24953   0.246  27.160  14.307
24089W        W24954   3.212  25.624  11.603
24090W        W24955   2.732  28.099  11.614
24091W        W24956   1.634  27.157  11.699
24092W        W24957   2.821  25.961  11.222
24093W        W24958   2.886  26.568  13.408
24094W        W24959   0.595  27.161  12.615
24095W        W24960   0.889  28.100  12.264
24096W        W24961   2.652  26.720  12.229
24097W        W24962   1.675  26.099  12.925
24098W        W24963   3.637  28.010  13.436
24099W        W24964   3.555  25.997  12.997
24100W        W24965   0.094  28.827  12.373
24101W        W24966   0.603  28.014  11.909
24102W        W24967   0.518  25.631  14.462
24103W        W24968   1.637  28.484  14.564
24104W        W24969   3.392  27.452  12.354
24105W        W24970   2.746  27.629  11.234
24106W        W24971   2.041  29.150  13.446
24107W        W24972   2.898  27.872  14.483
24108W        W24973   1.713  25.582  11.763
24109W        W24974   2.426  26.451  12.622
24110W        W24975   0.112  28.038  12.954
24111W        W24976   1.365  26.000  11.595
24112W        W24977   1.169  27.484  14.444
24113W        W24978   2.163  26.465  12.158
24114W        W24979   2.368  27.875  13.280
24115W        W24980   0.522  28.480  13.715
24116W        W24981   1.113  28.463  14.438
24117W        W24982   0.964  26.260  11.452
24118W        W24983   2.481  26.402  11.777
24119W        W24984   2.439  28.510  14.014
24120W        W24985   1.124  27.102  12.613
24121W        W24986   0.779  28.800  13.478
24122W        W24987   3.524  28.917  11.079
24123W        W24988   0.387  27.589  14.075
24124W        W24989   2.382  27.851  12.763
24125W        W24990   0.818  27.500  12.005
24126W        W24991   1.189  28.507  13.400
24127W        W24992   1.567  25.926  12.441
24128W        W24993   0.178  27.910  11.371
24129W        W24994   1.697  26.861  11.241
24130W        W24995   0.343  27.410  12.260
24131W        W24996   1.633  26.052  13.724
24132W        W24997   3.305  25.761  11.151
24133W        W24998   3.398  27.507  14.250
24134W        W24999   2.052  28.764  14.402
24135W        W25000   3.610  27.858  13.924
24136W        W25001   3.018  28.656  14.535
24137W        W25002   0.757  29.112  13.013
24138W        W25003   3.616  27.734  11.887
24139W        W25004   2.146  27.001  12.400
24140W        W25005   1.913  25.613  12.290
24141W        W25006   0.972  28.597  12.127
24142W        W25007   1.471  26.338  13.352
24143W        W25008   1.171  25.707  12.821
24144W        W25009   0.234  28.529  11.369
24145W        W25010   2.050  27.893  12.087
24146W        W25011   0.925  28.688  13.966
24147W        W25012   0.402  27.511  11.662
24148W        W25013   0.287  26.054  12.661
24149W        W25014   1.835  28.019  12.718
24150W        W25015   0.087  25.873  11.738
24151W        W25016   2.751  27.079  13.665
24152W        W25017   2.628  26.465  11.237
24153W        W25018   3.145  28.137  12.885
24154W        W25019   1.806  28.621  12.716
24155W        W25020   1.218  28.725  11.627
24156W        W25021   2.500  25.628  11.057
24157W        W25022   0.300  28.888  12.798
24158W        W25023   2.497  26.646  14.433
24159W        W25024   0.480  26.176  14.432
24160W        W25025   0.211  26.776  11.765
24161W        W25026   0.902  26.765  11.490
24162W        W25027   2.665  27.092  14.307
24163W        W25028   1.008  27.373  13.016
24164W        W25029   2.482  25.659  12.136
24165W        W25030   1.613  29.090  12.639
24166W        W25031   2.827  28.552  13.576
24167W        W25032   2.411  28.701  12.687
24168W        W25033   2.430  27.681  12.281
24169W        W25034   1.892  25.906  11.352
24170W        W25035   3.573  25.534  12.074
24171W        W25036   1.261  27.169  11.237
24172W        W25037   3.427  26.506  12.227
24173W        W25038   2.119  27.676  11.104
24174W        W25039   3.055  27.876  13.852
24175W        W25040   2.709  28.577  11.319
24176W        W25041   1.324  26.252  14.225
24177W        W25042   1.144  26.836  13.466
24178W        W25043   3.236  28.331  13.743
24179W        W25044   2.336  26.281  14.120
24180W        W25045   0.180  26.752  13.897
24181W        W25046   1.940  27.229  13.623
24182W        W25047   0.297  27.987  12.280
24183W        W25048   0.444  27.284  13.170
24184W        W25049   2.761  27.570  13.520
24185W        W25050   2.533  28.950  14.331
24186W        W25051   2.429  26.689  13.884
24187W        W25052   2.706  28.743  12.289
24188W        W25053   1.708  28.463  13.612
24189W        W25054   1.193  28.818  12.881
24190W        W25055   2.998  27.989  13.300
24191W        W25056   2.048  28.061  14.437
24192W        W25057   0.653  28.014  12.776
24193W        W25058   2.999  27.773  12.421
24194W        W25059   2.640  28.839  13.172
24195W        W25060   0.618  28.568  13.042
24196W        W25061   1.639  26.620  14.252
24197W        W25062   2.090  28.786  11.763
24198W        W25063   1.398  28.041  14.401
24199W        W25064   1.524  28.279  11.778
24200W        W25065   0.745  27.019  11.037
24201W        W25066   0.084  29.105  17.936
24202W        W25067   0.460  27.998  17.459
24203W        W25068   3.165  27.728  15.229
24204W        W25069   3.295  28.813  17.256
24205W        W25070   1.213  28.804  14.782
24206W        W25071   1.296  26.956  15.765
24207W        W25072   0.811  26.804  15.929
24208W        W25073   1.802  27.619  15.363
24209W        W25074   1.477  28.711  17.718
24210W        W25075   0.126  26.272  17.681
24211W        W25076   0.888  25.552  17.483
24212W        W25077   2.582  25.940  16.370
24213W        W25078   2.231  26.811  14.940
24214W        W25079   2.801  26.245  18.031
24215W        W25080   0.167  26.037  17.156
24216W        W25081   0.266  28.656  18.177
24217W        W25082   1.788  28.046  14.909
24218W        W25083   0.220  26.829  16.602
24219W        W25084   1.113  26.720  17.839
24220W        W25085   3.572  26.579  16.338
24221W        W25086   3.336  27.622  17.197
24222W        W25087   1.644  26.955  16.224
24223W        W25088   2.190  28.294  16.593
24224W        W25089   0.690  27.728  16.825
24225W        W25090   0.049  27.256  16.396
24226W        W25091   1.085  27.228  17.588
24227W        W25092   3.356  27.011  17.842
24228W        W25093   0.972  28.455  16.287
24229W        W25094   2.093  28.144  17.421
24230W        W25095   1.313  26.784  16.646
24231W        W25096   1.605  27.568  16.289
24232W        W25097   2.602  28.341  18.137
24233W        W25098   1.681  27.661  18.147
24234W        W25099   1.662  27.377  17.625
24235W        W25100   0.071  26.768  18.147
24236W        W25101   2.903  28.303  17.746
24237W        W25102   0.484  25.885  15.744
24238W        W25103   1.011  28.143  16.743
24239W        W25104   3.474  27.926  16.033
24240W        W25105   2.887  26.326  16.600
24241W        W25106   3.172  26.279  14.695
24242W        W25107   3.637  27.080  17.001
24243W        W25108   1.604  28.787  16.754
24244W        W25109   3.378  28.253  15.192
24245W        W25110   0.507  29.039  14.946
24246W        W25111   0.900  29.085  15.622
24247W        W25112   0.697  25.839  17.048
24248W        W25113   3.320  26.857  17.323
24249W        W25114   2.725  27.279  15.782
24250W        W25115   2.691  26.967  14.809
24251W        W25116   1.899  28.111  16.949
24252W        W25117   1.705  26.441  16.148
24253W        W25118   2.305  28.528  17.142
24254W        W25119   3.176  27.319  15.564
24255W        W25120   2.078  25.977  15.580
24256W        W25121   0.735  28.671  15.263
24257W        W25122   0.106  26.170  15.862
24258W        W25123   2.892  26.777  16.336
24259W        W25124   0.350  28.394  16.251
24260W        W25125   1.691  28.744  15.121
24261W        W25126   3.083  26.770  14.585
24262W        W25127   0.106  28.528  16.749
24263W        W25128   0.897  28.100  17.229
24264W        W25129   1.270  27.460  15.848
24265W        W25130   1.292  25.865  16.941
24266W        W25131   3.521  25.627  16.238
24267W        W25132   0.740  27.499  14.706
24268W        W25133   0.395  26.532  14.885
24269W        W25134   0.457  28.488  15.679
24270W        W25135   1.588  27.971  15.927
24271W        W25136   2.920  28.830  17.641
24272W        W25137   1.846  26.472  15.325
24273W        W25138   3.229  28.870  16.097
24274W        W25139   2.906  26.723  17.695
24275W        W25140   3.619  28.379  15.829
24276W        W25141   2.246  27.671  17.313
24277W        W25142   0.012  27.222  15.519
24278W        W25143   1.123  27.637  17.092
24279W        W25144   2.327  26.901  15.470
24280W        W25145   2.204  27.391  15.574
24281W        W25146   0.547  26.811  17.048
24282W        W25147   0.532  26.687  17.970
24283W        W25148   0.422  25.604  16.129
24284W        W25149   2.190  25.951  16.690
24285W        W25150   1.838  26.136  17.853
24286W        W25151   2.193  26.285  15.031
24287W        W25152   3.376  28.678  17.785
24288W        W25153   2.343  25.759  17.824
24289W        W25154   3.362  28.060  17.946
24290W        W25155   2.792  26.227  17.542
24291W        W25156   2.592  26.165  15.812
24292W        W25157   2.985  27.299  18.216
24293W        W25158   0.725  28.875  16.202
24294W        W25159   1.383  26.592  15.188
24295W        W25160   0.952  25.876  17.852
24296W        W25161   3.004  26.360  15.533
24297W        W25162   3.371  26.842  15.478
24298W        W25163   1.114  29.059  17.949
24299W        W25164   1.040  25.595  15.184
24300W        W25165   3.361  26.129  16.219
24301W        W25166   3.511  28.378  14.664
24302W        W25167   0.418  27.581  16.366
24303W        W25168   2.335  26.168  14.596
24304W        W25169   3.469  28.500  16.316
24305W        W25170   3.508  25.694  17.066
24306W        W25171   1.953  26.906  17.620
24307W        W25172   2.046  28.245  15.323
24308W        W25173   2.446  27.539  18.063
24309W        W25174   2.120  25.516  16.372
24310W        W25175   0.732  26.419  16.435
24311W        W25176   0.286  27.619  17.209
24312W        W25177   2.145  28.812  15.915
24313W        W25178   3.339  26.409  16.787
24314W        W25179   1.976  28.756  17.554
24315W        W25180   3.319  27.815  14.759
24316W        W25181   1.754  27.298  15.820
24317W        W25182   3.606  25.809  17.561
24318W        W25183   1.755  27.644  17.155
24319W        W25184   1.972  26.530  16.600
24320W        W25185   2.824  26.828  15.438
24321W        W25186   3.111  26.561  15.080
24322W        W25187   2.920  28.601  15.469
24323W        W25188   2.754  28.204  16.265
24324W        W25189   2.650  27.283  15.243
24325W        W25190   2.083  27.493  16.229
24326W        W25191   2.964  27.281  16.296
24327W        W25192   0.339  26.296  16.720
24328W        W25193   3.117  27.348  17.547
24329W        W25194   3.468  28.966  16.693
24330W        W25195   1.398  28.410  16.095
24331W        W25196   2.405  28.943  17.419
24332W        W25197   2.399  26.273  17.183
24333W        W25198   1.606  28.981  17.244
24334W        W25199   3.303  25.935  15.710
24335W        W25200   3.094  27.254  17.011
24336W        W25201   0.077  26.575  17.049
24337W        W25202   2.937  26.370  16.067
24338W        W25203   3.348  26.521  17.844
24339W        W25204   2.233  28.220  16.062
24340W        W25205   1.489  28.811  15.675
24341W        W25206   0.604  25.991  14.933
24342W        W25207   1.708  25.645  16.743
24343W        W25208   0.736  28.765  14.591
24344W        W25209   1.110  27.231  15.342
24345W        W25210   1.764  27.860  17.655
24346W        W25211   1.594  26.218  15.645
24347W        W25212   2.950  25.815  16.073
24348W        W25213   2.670  29.097  16.401
24349W        W25214   2.082  28.745  16.741
24350W        W25215   1.478  27.782  16.702
24351W        W25216   3.248  28.505  16.828
24352W        W25217   0.942  26.008  15.597
24353W        W25218   1.464  28.305  16.557
24354W        W25219   0.947  26.236  14.622
24355W        W25220   1.748  26.845  17.016
24356W        W25221   2.596  25.711  16.886
24357W        W25222   0.016  27.554  16.771
24358W        W25223   1.720  27.372  14.929
24359W        W25224   0.988  25.687  14.699
24360W        W25225   1.726  26.768  15.750
24361W        W25226   2.696  25.744  17.449
24362W        W25227   1.284  27.756  17.558
24363W        W25228   2.088  27.538  17.775
24364W        W25229   2.705  27.568  17.668
24365W        W25230   1.989  25.708  18.173
24366W        W25231   1.211  26.324  16.566
24367W        W25232   0.637  26.280  15.964
24368W        W25233   0.423  28.992  15.640
24369W        W25234   1.755  28.322  17.765
24370W        W25235   0.790  27.807  15.124
24371W        W25236   2.470  27.192  16.345
24372W        W25237   2.750  26.991  16.744
24373W        W25238   1.955  27.665  16.678
24374W        W25239   2.425  28.039  14.810
24375W        W25240   2.097  26.060  16.138
24376W        W25241   3.576  26.338  15.406
24377W        W25242   0.070  28.927  17.437
24378W        W25243   0.487  28.153  16.969
24379W        W25244   0.054  28.999  15.201
24380W        W25245   1.953  26.269  17.007
24381W        W25246   1.316  28.292  14.856
24382W        W25247   3.221  28.674  15.042
24383W        W25248   2.196  27.327  15.056
24384W        W25249   1.039  26.518  15.573
24385W        W25250   1.871  26.428  14.625
24386W        W25251   2.455  27.993  17.803
24387W        W25252   2.808  25.899  15.420
24388W        W25253   0.138  25.747  14.868
24389W        W25254   1.424  28.066  17.158
24390W        W25255   1.223  27.982  16.250
24391W        W25256   0.965  27.934  14.648
24392W        W25257   0.206  28.175  15.416
24393W        W25258   0.710  27.245  17.858
24394W        W25259   1.414  25.805  18.044
24395W        W25260   2.123  25.947  17.400
24396W        W25261   1.318  25.715  15.681
24397W        W25262   2.377  25.792  15.186
24398W        W25263   0.322  25.724  16.763
24399W        W25264   0.370  26.687  16.133
24400W        W25265   3.059  25.795  16.539
24401W        W25266   0.481  26.293  15.353
24402W        W25267   3.052  25.981  16.969
24403W        W25268   3.448  27.184  14.654
24404W        W25269   0.740  25.942  16.473
24405W        W25270   1.854  26.514  17.413
24406W        W25271   0.002  26.204  14.891
24407W        W25272   0.788  27.593  17.452
24408W        W25273   2.146  26.991  16.631
24409W        W25274   2.013  29.070  14.927
24410W        W25275   0.159  27.577  14.624
24411W        W25276   0.894  27.988  17.750
24412W        W25277   0.415  27.155  17.381
24413W        W25278   1.406  27.260  17.175
24414W        W25279   3.174  25.619  17.437
24415W        W25280   3.572  27.229  17.428
24416W        W25281   3.560  27.429  15.114
24417W        W25282   2.423  27.761  15.213
24418W        W25283   2.897  29.061  14.908
24419W        W25284   2.074  27.051  18.050
24420W        W25285   0.404  28.018  18.090
24421W        W25286   3.610  25.940  18.042
24422W        W25287   3.328  26.868  16.663
24423W        W25288   1.636  28.998  18.140
24424W        W25289   1.491  25.627  14.867
24425W        W25290   3.030  28.226  14.810
24426W        W25291   0.799  26.319  17.696
24427W        W25292   1.233  28.313  17.558
24428W        W25293   3.359  26.304  17.356
24429W        W25294   2.570  28.963  15.324
24430W        W25295   2.809  27.582  16.691
24431W        W25296   1.059  25.998  17.358
24432W        W25297   1.528  27.067  18.115
24433W        W25298   1.031  28.246  15.309
24434W        W25299   2.786  27.744  15.573
24435W        W25300   0.554  26.370  17.297
24436W        W25301   1.883  28.432  15.761
24437W        W25302   3.633  26.992  15.942
24438W        W25303   1.855  25.625  17.661
24439W        W25304   2.635  28.330  16.740
24440W        W25305   2.938  28.674  16.448
24441W        W25306   2.157  28.476  14.876
24442W        W25307   0.167  28.368  17.718
24443W        W25308   0.910  26.360  16.956
24444W        W25309   0.880  25.708  16.066
24445W        W25310   2.501  26.550  16.758
24446W        W25311   1.299  27.721  14.958
24447W        W25312   3.297  27.663  16.457
24448W        W25313   0.624  28.421  17.880
24449W        W25314   3.011  29.103  15.677
24450W        W25315   1.110  26.123  16.122
24451W        W25316   0.879  27.616  16.212
24452W        W25317   1.192  29.027  16.962
24453W        W25318   3.259  29.123  17.994
24454W        W25319   2.418  27.311  16.927
24455W        W25320   0.267  27.109  14.842
24456W        W25321   3.401  28.767  15.539
24457W        W25322   3.238  26.091  15.158
24458W        W25323   1.377  25.610  17.561
24459W        W25324   3.083  28.412  16.019
24460W        W25325   3.112  26.968  15.924
24461W        W25326   1.229  26.641  16.140
24462W        W25327   1.474  26.903  17.464
24463W        W25328   2.585  28.056  17.327
24464W        W25329   1.235  26.510  17.439
24465W        W25330   1.214  28.976  16.055
24466W        W25331   0.531  28.935  17.689
24467W        W25332   0.643  28.296  14.819
24468W        W25333   3.160  28.054  15.629
24469W        W25334   0.764  26.846  17.515
24470W        W25335   3.537  26.776  14.996
24471W        W25336   1.282  27.833  15.467
24472W        W25337   2.381  27.215  17.548
24473W        W25338   2.272  26.843  17.092
24474W        W25339   0.832  27.215  17.121
24475W        W25340   3.042  29.103  16.950
24476W        W25341   2.833  25.737  17.944
24477W        W25342   0.497  25.887  17.531
24478W        W25343   0.836  26.910  16.584
24479W        W25344   1.205  26.724  14.706
24480W        W25345   0.008  28.483  17.251
24481W        W25346   1.593  27.192  16.694
24482W        W25347   1.416  26.217  14.799
24483W        W25348   0.551  27.033  15.580
24484W        W25349   0.322  28.885  17.017
24485W        W25350   3.117  27.111  15.125
24486W        W25351   3.212  26.027  17.811
24487W        W25352   2.648  28.236  15.774
24488W        W25353   0.246  27.160  17.951
24489W        W25354   3.212  25.624  15.247
24490W        W25355   2.732  28.099  15.258
24491W        W25356   1.634  27.157  15.343
24492W        W25357   2.821  25.961  14.866
24493W        W25358   2.886  26.568  17.052
24494W        W25359   0.595  27.161  16.259
24495W        W25360   0.889  28.100  15.908
24496W        W25361   2.652  26.720  15.873
24497W        W25362   1.675  26.099  16.569
24498W        W25363   3.637  28.010  17.080
24499W        W25364   3.555  25.997  16.641
24500W        W25365   0.094  28.827  16.017
24501W        W25366   0.603  28.014  15.553
24502W        W25367   0.518  25.631  18.106
24503W        W25368   1.637  28.484  18.208
24504W        W25369   3.392  27.452  15.998
24505W        W25370   2.746  27.629  14.878
24506W        W25371   2.041  29.150  17.090
24507W        W25372   2.898  27.872  18.127
24508W        W25373   1.713  25.582  15.407
24509W        W25374   2.426  26.451  16.266
24510W        W25375   0.112  28.038  16.598
24511W        W25376   1.365  26.000  15.239
24512W        W25377   1.169  27.484  18.088
24513W        W25378   2.163  26.465  15.802
24514W        W25379   2.368  27.875  16.924
24515W        W25380   0.522  28.480  17.359
24516W        W25381   1.113  28.463  18.082
24517W        W25382   0.964  26.260  15.096
24518W        W25383   2.481  26.402  15.421
24519W        W25384   2.439  28.510  17.658
24520W        W25385   1.124  27.102  16.257
24521W        W25386   0.779  28.800  17.122
24522W        W25387   3.524  28.917  14.723
24523W        W25388   0.387  27.589  17.719
24524W        W25389   2.382  27.851  16.407
24525W        W25390   0.818  27.500  15.649
24526W        W25391   1.189  28.507  17.044
24527W        W25392   1.567  25.926  16.085
24528W        W25393   0.178  27.910  15.015
24529W        W25394   1.697  26.861  14.885
24530W        W25395   0.343  27.410  15.904
24531W        W25396   1.633  26.052  17.368
24532W        W25397   3.305  25.761  14.795
24533W        W25398   3.398  27.507  17.894
24534W        W25399   2.052  28.764  18.046
24535W        W25400   3.610  27.858  17.568
24536W        W25401   3.018  28.656  18.179
24537W        W25402   0.757  29.112  16.657
24538W        W25403   3.616  27.734  15.531
24539W        W25404   2.146  27.001  16.044
24540W        W25405   1.913  25.613  15.934
24541W        W25406   0.972  28.597  15.771
24542W        W25407   1.471  26.338  16.996
24543W        W25408   1.171  25.707  16.465
24544W        W25409   0.234  28.529  15.013
24545W        W25410   2.050  27.893  15.731
24546W        W25411   0.925  28.688  17.610
24547W        W25412   0.402  27.511  15.306
24548W        W25413   0.287  26.054  16.305
24549W        W25414   1.835  28.019  16.362
24550W        W25415   0.087  25.873  15.382
24551W        W25416   2.751  27.079  17.309
24552W        W25417   2.628  26.465  14.881
24553W        W25418   3.145  28.137  16.529
24554W        W25419   1.806  28.621  16.360
24555W        W25420   1.218  28.725  15.271
24556W        W25421   2.500  25.628  14.701
24557W        W25422   0.300  28.888  16.442
24558W        W25423   2.497  26.646  18.077
24559W        W25424   0.480  26.176  18.076
24560W        W25425   0.211  26.776  15.409
24561W        W25426   0.902  26.765  15.134
24562W        W25427   2.665  27.092  17.951
24563W        W25428   1.008  27.373  16.660
24564W        W25429   2.482  25.659  15.780
24565W        W25430   1.613  29.090  16.283
24566W        W25431   2.827  28.552  17.220
24567W        W25432   2.411  28.701  16.331
24568W        W25433   2.430  27.681  15.925
24569W        W25434   1.892  25.906  14.996
24570W        W25435   3.573  25.534  15.718
24571W        W25436   1.261  27.169  14.881
24572W        W25437   3.427  26.506  15.871
24573W        W25438   2.119  27.676  14.748
24574W        W25439   3.055  27.876  17.496
24575W        W25440   2.709  28.577  14.963
24576W        W25441   1.324  26.252  17.869
24577W        W25442   1.144  26.836  17.110
24578W        W25443   3.236  28.331  17.387
24579W        W25444   2.336  26.281  17.764
24580W        W25445   0.180  26.752  17.541
24581W        W25446   1.940  27.229  17.267
24582W        W25447   0.297  27.987  15.924
24583W        W25448   0.444  27.284  16.814
24584W        W25449   2.761  27.570  17.164
24585W        W25450   2.533  28.950  17.975
24586W        W25451   2.429  26.689  17.528
24587W        W25452   2.706  28.743  15.933
24588W        W25453   1.708  28.463  17.256
24589W        W25454   1.193  28.818  16.525
24590W        W25455   2.998  27.989  16.944
24591W        W25456   2.048  28.061  18.081
24592W        W25457   0.653  28.014  16.420
24593W        W25458   2.999  27.773  16.065
24594W        W25459   2.640  28.839  16.816
24595W        W25460   0.618  28.568  16.686
24596W        W25461   1.639  26.620  17.896
24597W        W25462   2.090  28.786  15.407
24598W        W25463   1.398  28.041  18.045
24599W        W25464   1.524  28.279  15.422
24600W        W25465   0.745  27.019  14.681
24601W        W25466   0.084  29.105  21.580
24602W        W25467   0.460  27.998  21.103
24603W        W25468   3.165  27.728  18.873
24604W        W25469   3.295  28.813  20.900
24605W        W25470   1.213  28.804  18.426
24606W        W25471   1.296  26.956  19.409
24607W        W25472   0.811  26.804  19.573
24608W        W25473   1.802  27.619  19.007
24609W        W25474   1.477  28.711  21.362
24610W        W25475   0.126  26.272  21.325
24611W        W25476   0.888  25.552  21.127
24612W        W25477   2.582  25.940  20.014
24613W        W25478   2.231  26.811  18.584
24614W        W25479   2.801  26.245  21.675
24615W        W25480   0.167  26.037  20.800
24616W        W25481   0.266  28.656  21.821
24617W        W25482   1.788  28.046  18.553
24618W        W25483   0.220  26.829  20.246
24619W        W25484   1.113  26.720  21.483
24620W        W25485   3.572  26.579  19.982
24621W        W25486   3.336  27.622  20.841
24622W        W25487   1.644  26.955  19.868
24623W        W25488   2.190  28.294  20.237
24624W        W25489   0.690  27.728  20.469
24625W        W25490   0.049  27.256  20.040
24626W        W25491   1.085  27.228  21.232
24627W        W25492   3.356  27.011  21.486
24628W        W25493   0.972  28.455  19.931
24629W        W25494   2.093  28.144  21.065
24630W        W25495   1.313  26.784  20.290
24631W        W25496   1.605  27.568  19.933
24632W        W25497   2.602  28.341  21.781
24633W        W25498   1.681  27.661  21.791
24634W        W25499   1.662  27.377  21.269
24635W        W25500   0.071  26.768  21.791
24636W        W25501   2.903  28.303  21.390
24637W        W25502   0.484  25.885  19.388
24638W        W25503   1.011  28.143  20.387
24639W        W25504   3.474  27.926  19.677
24640W        W25505   2.887  26.326  20.244
24641W        W25506   3.172  26.279  18.339
24642W        W25507   3.637  27.080  20.645
24643W        W25508   1.604  28.787  20.398
24644W        W25509   3.378  28.253  18.836
24645W        W25510   0.507  29.039  18.590
24646W        W25511   0.900  29.085  19.266
24647W        W25512   0.697  25.839  20.692
24648W        W25513   3.320  26.857  20.967
24649W        W25514   2.725  27.279  19.426
24650W        W25515   2.691  26.967  18.453
24651W        W25516   1.899  28.111  20.593
24652W        W25517   1.705  26.441  19.792
24653W        W25518   2.305  28.528  20.786
24654W        W25519   3.176  27.319  19.208
24655W        W25520   2.078  25.977  19.224
24656W        W25521   0.735  28.671  18.907
24657W        W25522   0.106  26.170  19.506
24658W        W25523   2.892  26.777  19.980
24659W        W25524   0.350  28.394  19.895
24660W        W25525   1.691  28.744  18.765
24661W        W25526   3.083  26.770  18.229
24662W        W25527   0.106  28.528  20.393
24663W        W25528   0.897  28.100  20.873
24664W        W25529   1.270  27.460  19.492
24665W        W25530   1.292  25.865  20.585
24666W        W25531   3.521  25.627  19.882
24667W        W25532   0.740  27.499  18.350
24668W        W25533   0.395  26.532  18.529
24669W        W25534   0.457  28.488  19.323
24670W        W25535   1.588  27.971  19.571
24671W        W25536   2.920  28.830  21.285
24672W        W25537   1.846  26.472  18.969
24673W        W25538   3.229  28.870  19.741
24674W        W25539   2.906  26.723  21.339
24675W        W25540   3.619  28.379  19.473
24676W        W25541   2.246  27.671  20.957
24677W        W25542   0.012  27.222  19.163
24678W        W25543   1.123  27.637  20.736
24679W        W25544   2.327  26.901  19.114
24680W        W25545   2.204  27.391  19.218
24681W        W25546   0.547  26.811  20.692
24682W        W25547   0.532  26.687  21.614
24683W        W25548   0.422  25.604  19.773
24684W        W25549   2.190  25.951  20.334
24685W        W25550   1.838  26.136  21.497
24686W        W25551   2.193  26.285  18.675
24687W        W25552   3.376  28.678  21.429
24688W        W25553   2.343  25.759  21.468
24689W        W25554   3.362  28.060  21.590
24690W        W25555   2.792  26.227  21.186
24691W        W25556   2.592  26.165  19.456
24692W        W25557   2.985  27.299  21.860
24693W        W25558   0.725  28.875  19.846
24694W        W25559   1.383  26.592  18.832
24695W        W25560   0.952  25.876  21.496
24696W        W25561   3.004  26.360  19.177
24697W        W25562   3.371  26.842  19.122
24698W        W25563   1.114  29.059  21.593
24699W        W25564   1.040  25.595  18.828
24700W        W25565   3.361  26.129  19.863
24701W        W25566   3.511  28.378  18.308
24702W        W25567   0.418  27.581  20.010
24703W        W25568   2.335  26.168  18.240
24704W        W25569   3.469  28.500  19.960
24705W        W25570   3.508  25.694  20.710
24706W        W25571   1.953  26.906  21.264
24707W        W25572   2.046  28.245  18.967
24708W        W25573   2.446  27.539  21.707
24709W        W25574   2.120  25.516  20.016
24710W        W25575   0.732  26.419  20.079
24711W        W25576   0.286  27.619  20.853
24712W        W25577   2.145  28.812  19.559
24713W        W25578   3.339  26.409  20.431
24714W        W25579   1.976  28.756  21.198
24715W        W25580   3.319  27.815  18.403
24716W        W25581   1.754  27.298  19.464
24717W        W25582   3.606  25.809  21.205
24718W        W25583   1.755  27.644  20.799
24719W        W25584   1.972  26.530  20.244
24720W        W25585   2.824  26.828  19.082
24721W        W25586   3.111  26.561  18.724
24722W        W25587   2.920  28.601  19.113
24723W        W25588   2.754  28.204  19.909
24724W        W25589   2.650  27.283  18.887
24725W        W25590   2.083  27.493  19.873
24726W        W25591   2.964  27.281  19.940
24727W        W25592   0.339  26.296  20.364
24728W        W25593   3.117  27.348  21.191
24729W        W25594   3.468  28.966  20.337
24730W        W25595   1.398  28.410  19.739
24731W        W25596   2.405  28.943  21.063
24732W        W25597   2.399  26.273  20.827
24733W        W25598   1.606  28.981  20.888
24734W        W25599   3.303  25.935  19.354
24735W        W25600   3.094  27.254  20.655
24736W        W25601   0.077  26.575  20.693
24737W        W25602   2.937  26.370  19.711
24738W        W25603   3.348  26.521  21.488
24739W        W25604   2.233  28.220  19.706
24740W        W25605   1.489  28.811  19.319
24741W        W25606   0.604  25.991  18.577
24742W        W25607   1.708  25.645  20.387
24743W        W25608   0.736  28.765  18.235
24744W        W25609   1.110  27.231  18.986
24745W        W25610   1.764  27.860  21.299
24746W        W25611   1.594  26.218  19.289
24747W        W25612   2.950  25.815  19.717
24748W        W25613   2.670  29.097  20.045
24749W        W25614   2.082  28.745  20.385
24750W        W25615   1.478  27.782  20.346
24751W        W25616   3.248  28.505  20.472
24752W        W25617   0.942  26.008  19.241
24753W        W25618   1.464  28.305  20.201
24754W        W25619   0.947  26.236  18.266
24755W        W25620   1.748  26.845  20.660
24756W        W25621   2.596  25.711  20.530
24757W        W25622   0.016  27.554  20.415
24758W        W25623   1.720  27.372  18.573
24759W        W25624   0.988  25.687  18.343
24760W        W25625   1.726  26.768  19.394
24761W        W25626   2.696  25.744  21.093
24762W        W25627   1.284  27.756  21.202
24763W        W25628   2.088  27.538  21.419
24764W        W25629   2.705  27.568  21.312
24765W        W25630   1.989  25.708  21.817
24766W        W25631   1.211  26.324  20.210
24767W        W25632   0.637  26.280  19.608
24768W        W25633   0.423  28.992  19.284
24769W        W25634   1.755  28.322  21.409
24770W        W25635   0.790  27.807  18.768
24771W        W25636   2.470  27.192  19.989
24772W        W25637   2.750  26.991  20.388
24773W        W25638   1.955  27.665  20.322
24774W        W25639   2.425  28.039  18.454
24775W        W25640   2.097  26.060  19.782
24776W        W25641   3.576  26.338  19.050
24777W        W25642   0.070  28.927  21.081
24778W        W25643   0.487  28.153  20.613
24779W        W25644   0.054  28.999  18.845
24780W        W25645   1.953  26.269  20.651
24781W        W25646   1.316  28.292  18.500
24782W        W25647   3.221  28.674  18.686
24783W        W25648   2.196  27.327  18.700
24784W        W25649   1.039  26.518  19.217
24785W        W25650   1.871  26.428  18.269
24786W        W25651   2.455  27.993  21.447
24787W        W25652   2.808  25.899  19.064
24788W        W25653   0.138  25.747  18.512
24789W        W25654   1.424  28.066  20.802
24790W        W25655   1.223  27.982  19.894
24791W        W25656   0.965  27.934  18.292
24792W        W25657   0.206  28.175  19.060
24793W        W25658   0.710  27.245  21.502
24794W        W25659   1.414  25.805  21.688
24795W        W25660   2.123  25.947  21.044
24796W        W25661   1.318  25.715  19.325
24797W        W25662   2.377  25.792  18.830
24798W        W25663   0.322  25.724  20.407
24799W        W25664   0.370  26.687  19.777
24800W        W25665   3.059  25.795  20.183
24801W        W25666   0.481  26.293  18.997
24802W        W25667   3.052  25.981  20.613
24803W        W25668   3.448  27.184  18.298
24804W        W25669   0.740  25.942  20.117
24805W        W25670   1.854  26.514  21.057
24806W        W25671   0.002  26.204  18.535
24807W        W25672   0.788  27.593  21.096
24808W        W25673   2.146  26.991  20.275
24809W        W25674   2.013  29.070  18.571
24810W        W25675   0.159  27.577  18.268
24811W        W25676   0.894  27.988  21.394
24812W        W25677   0.415  27.155  21.025
24813W        W25678   1.406  27.260  20.819
24814W        W25679   3.174  25.619  21.081
24815W        W25680   3.572  27.229  21.072
24816W        W25681   3.560  27.429  18.758
24817W        W25682   2.423  27.761  18.857
24818W        W25683   2.897  29.061  18.552
24819W        W25684   2.074  27.051  21.694
24820W        W25685   0.404  28.018  21.734
24821W        W25686   3.610  25.940  21.686
24822W        W25687   3.328  26.868  20.307
24823W        W25688   1.636  28.998  21.784
24824W        W25689   1.491  25.627  18.511
24825W        W25690   3.030  28.226  18.454
24826W        W25691   0.799  26.319  21.340
24827W        W25692   1.233  28.313  21.202
24828W        W25693   3.359  26.304  21.000
24829W        W25694   2.570  28.963  18.968
24830W        W25695   2.809  27.582  20.335
24831W        W25696   1.059  25.998  21.002
24832W        W25697   1.528  27.067  21.759
24833W        W25698   1.031  28.246  18.953
24834W        W25699   2.786  27.744  19.217
24835W        W25700   0.554  26.370  20.941
24836W        W25701   1.883  28.432  19.405
24837W        W25702   3.633  26.992  19.586
24838W        W25703   1.855  25.625  21.305
24839W        W25704   2.635  28.330  20.384
24840W        W25705   2.938  28.674  20.092
24841W        W25706   2.157  28.476  18.520
24842W        W25707   0.167  28.368  21.362
24843W        W25708   0.910  26.360  20.600
24844W        W25709   0.880  25.708  19.710
24845W        W25710   2.501  26.550  20.402
24846W        W25711   1.299  27.721  18.602
24847W        W25712   3.297  27.663  20.101
24848W        W25713   0.624  28.421  21.524
24849W        W25714   3.011  29.103  19.321
24850W        W25715   1.110  26.123  19.766
24851W        W25716   0.879  27.616  19.856
24852W        W25717   1.192  29.027  20.606
24853W        W25718   3.259  29.123  21.638
24854W        W25719   2.418  27.311  20.571
24855W        W25720   0.267  27.109  18.486
24856W        W25721   3.401  28.767  19.183
24857W        W25722   3.238  26.091  18.802
24858W        W25723   1.377  25.610  21.205
24859W        W25724   3.083  28.412  19.663
24860W        W25725   3.112  26.968  19.568
24861W        W25726   1.229  26.641  19.784
24862W        W25727   1.474  26.903  21.108
24863W        W25728   2.585  28.056  20.971
24864W        W25729   1.235  26.510  21.083
24865W        W25730   1.214  28.976  19.699
24866W        W25731   0.531  28.935  21.333
24867W        W25732   0.643  28.296  18.463
24868W        W25733   3.160  28.054  19.273
24869W        W25734   0.764  26.846  21.159
24870W        W25735   3.537  26.776  18.640
24871W        W25736   1.282  27.833  19.111
24872W        W25737   2.381  27.215  21.192
24873W        W25738   2.272  26.843  20.736
24874W        W25739   0.832  27.215  20.765
24875W        W25740   3.042  29.103  20.594
24876W        W25741   2.833  25.737  21.588
24877W        W25742   0.497  25.887  21.175
24878W        W25743   0.836  26.910  20.228
24879W        W25744   1.205  26.724  18.350
24880W        W25745   0.008  28.483  20.895
24881W        W25746   1.593  27.192  20.338
24882W        W25747   1.416  26.217  18.443
24883W        W25748   0.551  27.033  19.224
24884W        W25749   0.322  28.885  20.661
24885W        W25750   3.117  27.111  18.769
24886W        W25751   3.212  26.027  21.455
24887W        W25752   2.648  28.236  19.418
24888W        W25753   0.246  27.160  21.595
24889W        W25754   3.212  25.624  18.891
24890W        W25755   2.732  28.099  18.902
24891W        W25756   1.634  27.157  18.987
24892W        W25757   2.821  25.961  18.510
24893W        W25758   2.886  26.568  20.696
24894W        W25759   0.595  27.161  19.903
24895W        W25760   0.889  28.100  19.552
24896W        W25761   2.652  26.720  19.517
24897W        W25762   1.675  26.099  20.213
24898W        W25763   3.637  28.010  20.724
24899W        W25764   3.555  25.997  20.285
24900W        W25765   0.094  28.827  19.661
24901W        W25766   0.603  28.014  19.197
24902W        W25767   0.518  25.631  21.750
24903W        W25768   1.637  28.484  21.852
24904W        W25769   3.392  27.452  19.642
24905W        W25770   2.746  27.629  18.522
24906W        W25771   2.041  29.150  20.734
24907W        W25772   2.898  27.872  21.771
24908W        W25773   1.713  25.582  19.051
24909W        W25774   2.426  26.451  19.910
24910W        W25775   0.112  28.038  20.242
24911W        W25776   1.365  26.000  18.883
24912W        W25777   1.169  27.484  21.732
24913W        W25778   2.163  26.465  19.446
24914W        W25779   2.368  27.875  20.568
24915W        W25780   0.522  28.480  21.003
24916W        W25781   1.113  28.463  21.726
24917W        W25782   0.964  26.260  18.740
24918W        W25783   2.481  26.402  19.065
24919W        W25784   2.439  28.510  21.302
24920W        W25785   1.124  27.102  19.901
24921W        W25786   0.779  28.800  20.766
24922W        W25787   3.524  28.917  18.367
24923W        W25788   0.387  27.589  21.363
24924W        W25789   2.382  27.851  20.051
24925W        W25790   0.818  27.500  19.293
24926W        W25791   1.189  28.507  20.688
24927W        W25792   1.567  25.926  19.729
24928W        W25793   0.178  27.910  18.659
24929W        W25794   1.697  26.861  18.529
24930W        W25795   0.343  27.410  19.548
24931W        W25796   1.633  26.052  21.012
24932W        W25797   3.305  25.761  18.439
24933W        W25798   3.398  27.507  21.538
24934W        W25799   2.052  28.764  21.690
24935W        W25800   3.610  27.858  21.212
24936W        W25801   3.018  28.656  21.823
24937W        W25802   0.757  29.112  20.301
24938W        W25803   3.616  27.734  19.175
24939W        W25804   2.146  27.001  19.688
24940W        W25805   1.913  25.613  19.578
24941W        W25806   0.972  28.597  19.415
24942W        W25807   1.471  26.338  20.640
24943W        W25808   1.171  25.707  20.109
24944W        W25809   0.234  28.529  18.657
24945W        W25810   2.050  27.893  19.375
24946W        W25811   0.925  28.688  21.254
24947W        W25812   0.402  27.511  18.950
24948W        W25813   0.287  26.054  19.949
24949W        W25814   1.835  28.019  20.006
24950W        W25815   0.087  25.873  19.026
24951W        W25816   2.751  27.079  20.953
24952W        W25817   2.628  26.465  18.525
24953W        W25818   3.145  28.137  20.173
24954W        W25819   1.806  28.621  20.004
24955W        W25820   1.218  28.725  18.915
24956W        W25821   2.500  25.628  18.345
24957W        W25822   0.300  28.888  20.086
24958W        W25823   2.497  26.646  21.721
24959W        W25824   0.480  26.176  21.720
24960W        W25825   0.211  26.776  19.053
24961W        W25826   0.902  26.765  18.778
24962W        W25827   2.665  27.092  21.595
24963W        W25828   1.008  27.373  20.304
24964W        W25829   2.482  25.659  19.424
24965W        W25830   1.613  29.090  19.927
24966W        W25831   2.827  28.552  20.864
24967W        W25832   2.411  28.701  19.975
24968W        W25833   2.430  27.681  19.569
24969W        W25834   1.892  25.906  18.640
24970W        W25835   3.573  25.534  19.362
24971W        W25836   1.261  27.169  18.525
24972W        W25837   3.427  26.506  19.515
24973W        W25838   2.119  27.676  18.392
24974W        W25839   3.055  27.876  21.140
24975W        W25840   2.709  28.577  18.607
24976W        W25841   1.324  26.252  21.513
24977W        W25842   1.144  26.836  20.754
24978W        W25843   3.236  28.331  21.031
24979W        W25844   2.336  26.281  21.408
24980W        W25845   0.180  26.752  21.185
24981W        W25846   1.940  27.229  20.911
24982W        W25847   0.297  27.987  19.568
24983W        W25848   0.444  27.284  20.458
24984W        W25849   2.761  27.570  20.808
24985W        W25850   2.533  28.950  21.619
24986W        W25851   2.429  26.689  21.172
24987W        W25852   2.706  28.743  19.577
24988W        W25853   1.708  28.463  20.900
24989W        W25854   1.193  28.818  20.169
24990W        W25855   2.998  27.989  20.588
24991W        W25856   2.048  28.061  21.725
24992W        W25857   0.653  28.014  20.064
24993W        W25858   2.999  27.773  19.709
24994W        W25859   2.640  28.839  20.460
24995W        W25860   0.618  28.568  20.330
24996W        W25861   1.639  26.620  21.540
24997W        W25862   2.090  28.786  19.051
24998W        W25863   1.398  28.041  21.689
24999W        W25864   1.524  28.279  19.066
25000W        W25865   0.745  27.019  18.325
25001W        W25866   0.084  29.105  25.225
25002W        W25867   0.460  27.998  24.748
25003W        W25868   3.165  27.728  22.518
25004W        W25869   3.295  28.813  24.545
25005W        W25870   1.213  28.804  22.071
25006W        W25871   1.296  26.956  23.054
25007W        W25872   0.811  26.804  23.218
25008W        W25873   1.802  27.619  22.652
25009W        W25874   1.477  28.711  25.007
25010W        W25875   0.126  26.272  24.970
25011W        W25876   0.888  25.552  24.772
25012W        W25877   2.582  25.940  23.659
25013W        W25878   2.231  26.811  22.229
25014W        W25879   2.801  26.245  25.320
25015W        W25880   0.167  26.037  24.445
25016W        W25881   0.266  28.656  25.466
25017W        W25882   1.788  28.046  22.198
25018W        W25883   0.220  26.829  23.891
25019W        W25884   1.113  26.720  25.128
25020W        W25885   3.572  26.579  23.627
25021W        W25886   3.336  27.622  24.486
25022W        W25887   1.644  26.955  23.513
25023W        W25888   2.190  28.294  23.882
25024W        W25889   0.690  27.728  24.114
25025W        W25890   0.049  27.256  23.685
25026W        W25891   1.085  27.228  24.877
25027W        W25892   3.356  27.011  25.131
25028W        W25893   0.972  28.455  23.576
25029W        W25894   2.093  28.144  24.710
25030W        W25895   1.313  26.784  23.935
25031W        W25896   1.605  27.568  23.578
25032W        W25897   2.602  28.341  25.426
25033W        W25898   1.681  27.661  25.436
25034W        W25899   1.662  27.377  24.914
25035W        W25900   0.071  26.768  25.436
25036W        W25901   2.903  28.303  25.035
25037W        W25902   0.484  25.885  23.033
25038W        W25903   1.011  28.143  24.032
25039W        W25904   3.474  27.926  23.322
25040W        W25905   2.887  26.326  23.889
25041W        W25906   3.172  26.279  21.984
25042W        W25907   3.637  27.080  24.290
25043W        W25908   1.604  28.787  24.043
25044W        W25909   3.378  28.253  22.481
25045W        W25910   0.507  29.039  22.235
25046W        W25911   0.900  29.085  22.911
25047W        W25912   0.697  25.839  24.337
25048W        W25913   3.320  26.857  24.612
25049W        W25914   2.725  27.279  23.071
25050W        W25915   2.691  26.967  22.098
25051W        W25916   1.899  28.111  24.238
25052W        W25917   1.705  26.441  23.437
25053W        W25918   2.305  28.528  24.431
25054W        W25919   3.176  27.319  22.853
25055W        W25920   2.078  25.977  22.869
25056W        W25921   0.735  28.671  22.552
25057W        W25922   0.106  26.170  23.151
25058W        W25923   2.892  26.777  23.625
25059W        W25924   0.350  28.394  23.540
25060W        W25925   1.691  28.744  22.410
25061W        W25926   3.083  26.770  21.874
25062W        W25927   0.106  28.528  24.038
25063W        W25928   0.897  28.100  24.518
25064W        W25929   1.270  27.460  23.137
25065W        W25930   1.292  25.865  24.230
25066W        W25931   3.521  25.627  23.527
25067W        W25932   0.740  27.499  21.995
25068W        W25933   0.395  26.532  22.174
25069W        W25934   0.457  28.488  22.968
25070W        W25935   1.588  27.971  23.216
25071W        W25936   2.920  28.830  24.930
25072W        W25937   1.846  26.472  22.614
25073W        W25938   3.229  28.870  23.386
25074W        W25939   2.906  26.723  24.984
25075W        W25940   3.619  28.379  23.118
25076W        W25941   2.246  27.671  24.602
25077W        W25942   0.012  27.222  22.808
25078W        W25943   1.123  27.637  24.381
25079W        W25944   2.327  26.901  22.759
25080W        W25945   2.204  27.391  22.863
25081W        W25946   0.547  26.811  24.337
25082W        W25947   0.532  26.687  25.259
25083W        W25948   0.422  25.604  23.418
25084W        W25949   2.190  25.951  23.979
25085W        W25950   1.838  26.136  25.142
25086W        W25951   2.193  26.285  22.320
25087W        W25952   3.376  28.678  25.074
25088W        W25953   2.343  25.759  25.113
25089W        W25954   3.362  28.060  25.235
25090W        W25955   2.792  26.227  24.831
25091W        W25956   2.592  26.165  23.101
25092W        W25957   2.985  27.299  25.505
25093W        W25958   0.725  28.875  23.491
25094W        W25959   1.383  26.592  22.477
25095W        W25960   0.952  25.876  25.141
25096W        W25961   3.004  26.360  22.822
25097W        W25962   3.371  26.842  22.767
25098W        W25963   1.114  29.059  25.238
25099W        W25964   1.040  25.595  22.473
25100W        W25965   3.361  26.129  23.508
25101W        W25966   3.511  28.378  21.953
25102W        W25967   0.418  27.581  23.655
25103W        W25968   2.335  26.168  21.885
25104W        W25969   3.469  28.500  23.605
25105W        W25970   3.508  25.694  24.355
25106W        W25971   1.953  26.906  24.909
25107W        W25972   2.046  28.245  22.612
25108W        W25973   2.446  27.539  25.352
25109W        W25974   2.120  25.516  23.661
25110W        W25975   0.732  26.419  23.724
25111W        W25976   0.286  27.619  24.498
25112W        W25977   2.145  28.812  23.204
25113W        W25978   3.339  26.409  24.076
25114W        W25979   1.976  28.756  24.843
25115W        W25980   3.319  27.815  22.048
25116W        W25981   1.754  27.298  23.109
25117W        W25982   3.606  25.809  24.850
25118W        W25983   1.755  27.644  24.444
25119W        W25984   1.972  26.530  23.889
25120W        W25985   2.824  26.828  22.727
25121W        W25986   3.111  26.561  22.369
25122W        W25987   2.920  28.601  22.758
25123W        W25988   2.754  28.204  23.554
25124W        W25989   2.650  27.283  22.532
25125W        W25990   2.083  27.493  23.518
25126W        W25991   2.964  27.281  23.585
25127W        W25992   0.339  26.296  24.009
25128W        W25993   3.117  27.348  24.836
25129W        W25994   3.468  28.966  23.982
25130W        W25995   1.398  28.410  23.384
25131W        W25996   2.405  28.943  24.708
25132W        W25997   2.399  26.273  24.472
25133W        W25998   1.606  28.981  24.533
25134W        W25999   3.303  25.935  22.999
25135W        W26000   3.094  27.254  24.300
25136W        W26001   0.077  26.575  24.338
25137W        W26002   2.937  26.370  23.356
25138W        W26003   3.348  26.521  25.133
25139W        W26004   2.233  28.220  23.351
25140W        W26005   1.489  28.811  22.964
25141W        W26006   0.604  25.991  22.222
25142W        W26007   1.708  25.645  24.032
25143W        W26008   0.736  28.765  21.880
25144W        W26009   1.110  27.231  22.631
25145W        W26010   1.764  27.860  24.944
25146W        W26011   1.594  26.218  22.934
25147W        W26012   2.950  25.815  23.362
25148W        W26013   2.670  29.097  23.690
25149W        W26014   2.082  28.745  24.030
25150W        W26015   1.478  27.782  23.991
25151W        W26016   3.248  28.505  24.117
25152W        W26017   0.942  26.008  22.886
25153W        W26018   1.464  28.305  23.846
25154W        W26019   0.947  26.236  21.911
25155W        W26020   1.748  26.845  24.305
25156W        W26021   2.596  25.711  24.175
25157W        W26022   0.016  27.554  24.060
25158W        W26023   1.720  27.372  22.218
25159W        W26024   0.988  25.687  21.988
25160W        W26025   1.726  26.768  23.039
25161W        W26026   2.696  25.744  24.738
25162W        W26027   1.284  27.756  24.847
25163W        W26028   2.088  27.538  25.064
25164W        W26029   2.705  27.568  24.957
25165W        W26030   1.989  25.708  25.462
25166W        W26031   1.211  26.324  23.855
25167W        W26032   0.637  26.280  23.253
25168W        W26033   0.423  28.992  22.929
25169W        W26034   1.755  28.322  25.054
25170W        W26035   0.790  27.807  22.413
25171W        W26036   2.470  27.192  23.634
25172W        W26037   2.750  26.991  24.033
25173W        W26038   1.955  27.665  23.967
25174W        W26039   2.425  28.039  22.099
25175W        W26040   2.097  26.060  23.427
25176W        W26041   3.576  26.338  22.695
25177W        W26042   0.070  28.927  24.726
25178W        W26043   0.487  28.153  24.258
25179W        W26044   0.054  28.999  22.490
25180W        W26045   1.953  26.269  24.296
25181W        W26046   1.316  28.292  22.145
25182W        W26047   3.221  28.674  22.331
25183W        W26048   2.196  27.327  22.345
25184W        W26049   1.039  26.518  22.862
25185W        W26050   1.871  26.428  21.914
25186W        W26051   2.455  27.993  25.092
25187W        W26052   2.808  25.899  22.709
25188W        W26053   0.138  25.747  22.157
25189W        W26054   1.424  28.066  24.447
25190W        W26055   1.223  27.982  23.539
25191W        W26056   0.965  27.934  21.937
25192W        W26057   0.206  28.175  22.705
25193W        W26058   0.710  27.245  25.147
25194W        W26059   1.414  25.805  25.333
25195W        W26060   2.123  25.947  24.689
25196W        W26061   1.318  25.715  22.970
25197W        W26062   2.377  25.792  22.475
25198W        W26063   0.322  25.724  24.052
25199W        W26064   0.370  26.687  23.422
25200W        W26065   3.059  25.795  23.828
25201W        W26066   0.481  26.293  22.642
25202W        W26067   3.052  25.981  24.258
25203W        W26068   3.448  27.184  21.943
25204W        W26069   0.740  25.942  23.762
25205W        W26070   1.854  26.514  24.702
25206W        W26071   0.002  26.204  22.180
25207W        W26072   0.788  27.593  24.741
25208W        W26073   2.146  26.991  23.920
25209W        W26074   2.013  29.070  22.216
25210W        W26075   0.159  27.577  21.913
25211W        W26076   0.894  27.988  25.039
25212W        W26077   0.415  27.155  24.670
25213W        W26078   1.406  27.260  24.464
25214W        W26079   3.174  25.619  24.726
25215W        W26080   3.572  27.229  24.717
25216W        W26081   3.560  27.429  22.403
25217W        W26082   2.423  27.761  22.502
25218W        W26083   2.897  29.061  22.197
25219W        W26084   2.074  27.051  25.339
25220W        W26085   0.404  28.018  25.379
25221W        W26086   3.610  25.940  25.331
25222W        W26087   3.328  26.868  23.952
25223W        W26088   1.636  28.998  25.429
25224W        W26089   1.491  25.627  22.156
25225W        W26090   3.030  28.226  22.099
25226W        W26091   0.799  26.319  24.985
25227W        W26092   1.233  28.313  24.847
25228W        W26093   3.359  26.304  24.645
25229W        W26094   2.570  28.963  22.613
25230W        W26095   2.809  27.582  23.980
25231W        W26096   1.059  25.998  24.647
25232W        W26097   1.528  27.067  25.404
25233W        W26098   1.031  28.246  22.598
25234W        W26099   2.786  27.744  22.862
25235W        W26100   0.554  26.370  24.586
25236W        W26101   1.883  28.432  23.050
25237W        W26102   3.633  26.992  23.231
25238W        W26103   1.855  25.625  24.950
25239W        W26104   2.635  28.330  24.029
25240W        W26105   2.938  28.674  23.737
25241W        W26106   2.157  28.476  22.165
25242W        W26107   0.167  28.368  25.007
25243W        W26108   0.910  26.360  24.245
25244W        W26109   0.880  25.708  23.355
25245W        W26110   2.501  26.550  24.047
25246W        W26111   1.299  27.721  22.247
25247W        W26112   3.297  27.663  23.746
25248W        W26113   0.624  28.421  25.169
25249W        W26114   3.011  29.103  22.966
25250W        W26115   1.110  26.123  23.411
25251W        W26116   0.879  27.616  23.501
25252W        W26117   1.192  29.027  24.251
25253W        W26118   3.259  29.123  25.283
25254W        W26119   2.418  27.311  24.216
25255W        W26120   0.267  27.109  22.131
25256W        W26121   3.401  28.767  22.828
25257W        W26122   3.238  26.091  22.447
25258W        W26123   1.377  25.610  24.850
25259W        W26124   3.083  28.412  23.308
25260W        W26125   3.112  26.968  23.213
25261W        W26126   1.229  26.641  23.429
25262W        W26127   1.474  26.903  24.753
25263W        W26128   2.585  28.056  24.616
25264W        W26129   1.235  26.510  24.728
25265W        W26130   1.214  28.976  23.344
25266W        W26131   0.531  28.935  24.978
25267W        W26132   0.643  28.296  22.108
25268W        W26133   3.160  28.054  22.918
25269W        W26134   0.764  26.846  24.804
25270W        W26135   3.537  26.776  22.285
25271W        W26136   1.282  27.833  22.756
25272W        W26137   2.381  27.215  24.837
25273W        W26138   2.272  26.843  24.381
25274W        W26139   0.832  27.215  24.410
25275W        W26140   3.042  29.103  24.239
25276W        W26141   2.833  25.737  25.233
25277W        W26142   0.497  25.887  24.820
25278W        W26143   0.836  26.910  23.873
25279W        W26144   1.205  26.724  21.995
25280W        W26145   0.008  28.483  24.540
25281W        W26146   1.593  27.192  23.983
25282W        W26147   1.416  26.217  22.088
25283W        W26148   0.551  27.033  22.869
25284W        W26149   0.322  28.885  24.306
25285W        W26150   3.117  27.111  22.414
25286W        W26151   3.212  26.027  25.100
25287W        W26152   2.648  28.236  23.063
25288W        W26153   0.246  27.160  25.240
25289W        W26154   3.212  25.624  22.536
25290W        W26155   2.732  28.099  22.547
25291W        W26156   1.634  27.157  22.632
25292W        W26157   2.821  25.961  22.155
25293W        W26158   2.886  26.568  24.341
25294W        W26159   0.595  27.161  23.548
25295W        W26160   0.889  28.100  23.197
25296W        W26161   2.652  26.720  23.162
25297W        W26162   1.675  26.099  23.858
25298W        W26163   3.637  28.010  24.369
25299W        W26164   3.555  25.997  23.930
25300W        W26165   0.094  28.827  23.306
25301W        W26166   0.603  28.014  22.842
25302W        W26167   0.518  25.631  25.395
25303W        W26168   1.637  28.484  25.497
25304W        W26169   3.392  27.452  23.287
25305W        W26170   2.746  27.629  22.167
25306W        W26171   2.041  29.150  24.379
25307W        W26172   2.898  27.872  25.416
25308W        W26173   1.713  25.582  22.696
25309W        W26174   2.426  26.451  23.555
25310W        W26175   0.112  28.038  23.887
25311W        W26176   1.365  26.000  22.528
25312W        W26177   1.169  27.484  25.377
25313W        W26178   2.163  26.465  23.091
25314W        W26179   2.368  27.875  24.213
25315W        W26180   0.522  28.480  24.648
25316W        W26181   1.113  28.463  25.371
25317W        W26182   0.964  26.260  22.385
25318W        W26183   2.481  26.402  22.710
25319W        W26184   2.439  28.510  24.947
25320W        W26185   1.124  27.102  23.546
25321W        W26186   0.779  28.800  24.411
25322W        W26187   3.524  28.917  22.012
25323W        W26188   0.387  27.589  25.008
25324W        W26189   2.382  27.851  23.696
25325W        W26190   0.818  27.500  22.938
25326W        W26191   1.189  28.507  24.333
25327W        W26192   1.567  25.926  23.374
25328W        W26193   0.178  27.910  22.304
25329W        W26194   1.697  26.861  22.174
25330W        W26195   0.343  27.410  23.193
25331W        W26196   1.633  26.052  24.657
25332W        W26197   3.305  25.761  22.084
25333W        W26198   3.398  27.507  25.183
25334W        W26199   2.052  28.764  25.335
25335W        W26200   3.610  27.858  24.857
25336W        W26201   3.018  28.656  25.468
25337W        W26202   0.757  29.112  23.946
25338W        W26203   3.616  27.734  22.820
25339W        W26204   2.146  27.001  23.333
25340W        W26205   1.913  25.613  23.223
25341W        W26206   0.972  28.597  23.060
25342W        W26207   1.471  26.338  24.285
25343W        W26208   1.171  25.707  23.754
25344W        W26209   0.234  28.529  22.302
25345W        W26210   2.050  27.893  23.020
25346W        W26211   0.925  28.688  24.899
25347W        W26212   0.402  27.511  22.595
25348W        W26213   0.287  26.054  23.594
25349W        W26214   1.835  28.019  23.651
25350W        W26215   0.087  25.873  22.671
25351W        W26216   2.751  27.079  24.598
25352W        W26217   2.628  26.465  22.170
25353W        W26218   3.145  28.137  23.818
25354W        W26219   1.806  28.621  23.649
25355W        W26220   1.218  28.725  22.560
25356W        W26221   2.500  25.628  21.990
25357W        W26222   0.300  28.888  23.731
25358W        W26223   2.497  26.646  25.366
25359W        W26224   0.480  26.176  25.365
25360W        W26225   0.211  26.776  22.698
25361W        W26226   0.902  26.765  22.423
25362W        W26227   2.665  27.092  25.240
25363W        W26228   1.008  27.373  23.949
25364W        W26229   2.482  25.659  23.069
25365W        W26230   1.613  29.090  23.572
25366W        W26231   2.827  28.552  24.509
25367W        W26232   2.411  28.701  23.620
25368W        W26233   2.430  27.681  23.214
25369W        W26234   1.892  25.906  22.285
25370W        W26235   3.573  25.534  23.007
25371W        W26236   1.261  27.169  22.170
25372W        W26237   3.427  26.506  23.160
25373W        W26238   2.119  27.676  22.037
25374W        W26239   3.055  27.876  24.785
25375W        W26240   2.709  28.577  22.252
25376W        W26241   1.324  26.252  25.158
25377W        W26242   1.144  26.836  24.399
25378W        W26243   3.236  28.331  24.676
25379W        W26244   2.336  26.281  25.053
25380W        W26245   0.180  26.752  24.830
25381W        W26246   1.940  27.229  24.556
25382W        W26247   0.297  27.987  23.213
25383W        W26248   0.444  27.284  24.103
25384W        W26249   2.761  27.570  24.453
25385W        W26250   2.533  28.950  25.264
25386W        W26251   2.429  26.689  24.817
25387W        W26252   2.706  28.743  23.222
25388W        W26253   1.708  28.463  24.545
25389W        W26254   1.193  28.818  23.814
25390W        W26255   2.998  27.989  24.233
25391W        W26256   2.048  28.061  25.370
25392W        W26257   0.653  28.014  23.709
25393W        W26258   2.999  27.773  23.354
25394W        W26259   2.640  28.839  24.105
25395W        W26260   0.618  28.568  23.975
25396W        W26261   1.639  26.620  25.185
25397W        W26262   2.090  28.786  22.696
25398W        W26263   1.398  28.041  25.334
25399W        W26264   1.524  28.279  22.711
25400W        W26265   0.745  27.019  21.970
25401W        W26266   0.084  29.105  28.869
25402W        W26267   0.460  27.998  28.392
25403W        W26268   3.165  27.728  26.162
25404W        W26269   3.295  28.813  28.189
25405W        W26270   1.213  28.804  25.715
25406W        W26271   1.296  26.956  26.698
25407W        W26272   0.811  26.804  26.862
25408W        W26273   1.802  27.619  26.296
25409W        W26274   1.477  28.711  28.651
25410W        W26275   0.126  26.272  28.614
25411W        W26276   0.888  25.552  28.416
25412W        W26277   2.582  25.940  27.303
25413W        W26278   2.231  26.811  25.873
25414W        W26279   2.801  26.245  28.964
25415W        W26280   0.167  26.037  28.089
25416W        W26281   0.266  28.656  29.110
25417W        W26282   1.788  28.046  25.842
25418W        W26283   0.220  26.829  27.535
25419W        W26284   1.113  26.720  28.772
25420W        W26285   3.572  26.579  27.271
25421W        W26286   3.336  27.622  28.130
25422W        W26287   1.644  26.955  27.157
25423W        W26288   2.190  28.294  27.526
25424W        W26289   0.690  27.728  27.758
25425W        W26290   0.049  27.256  27.329
25426W        W26291   1.085  27.228  28.521
25427W        W26292   3.356  27.011  28.775
25428W        W26293   0.972  28.455  27.220
25429W        W26294   2.093  28.144  28.354
25430W        W26295   1.313  26.784  27.579
25431W        W26296   1.605  27.568  27.222
25432W        W26297   2.602  28.341  29.070
25433W        W26298   1.681  27.661  29.080
25434W        W26299   1.662  27.377  28.558
25435W        W26300   0.071  26.768  29.080
25436W        W26301   2.903  28.303  28.679
25437W        W26302   0.484  25.885  26.677
25438W        W26303   1.011  28.143  27.676
25439W        W26304   3.474  27.926  26.966
25440W        W26305   2.887  26.326  27.533
25441W        W26306   3.172  26.279  25.628
25442W        W26307   3.637  27.080  27.934
25443W        W26308   1.604  28.787  27.687
25444W        W26309   3.378  28.253  26.125
25445W        W26310   0.507  29.039  25.879
25446W        W26311   0.900  29.085  26.555
25447W        W26312   0.697  25.839  27.981
25448W        W26313   3.320  26.857  28.256
25449W        W26314   2.725  27.279  26.715
25450W        W26315   2.691  26.967  25.742
25451W        W26316   1.899  28.111  27.882
25452W        W26317   1.705  26.441  27.081
25453W        W26318   2.305  28.528  28.075
25454W        W26319   3.176  27.319  26.497
25455W        W26320   2.078  25.977  26.513
25456W        W26321   0.735  28.671  26.196
25457W        W26322   0.106  26.170  26.795
25458W        W26323   2.892  26.777  27.269
25459W        W26324   0.350  28.394  27.184
25460W        W26325   1.691  28.744  26.054
25461W        W26326   3.083  26.770  25.518
25462W        W26327   0.106  28.528  27.682
25463W        W26328   0.897  28.100  28.162
25464W        W26329   1.270  27.460  26.781
25465W        W26330   1.292  25.865  27.874
25466W        W26331   3.521  25.627  27.171
25467W        W26332   0.740  27.499  25.639
25468W        W26333   0.395  26.532  25.818
25469W        W26334   0.457  28.488  26.612
25470W        W26335   1.588  27.971  26.860
25471W        W26336   2.920  28.830  28.574
25472W        W26337   1.846  26.472  26.258
25473W        W26338   3.229  28.870  27.030
25474W        W26339   2.906  26.723  28.628
25475W        W26340   3.619  28.379  26.762
25476W        W26341   2.246  27.671  28.246
25477W        W26342   0.012  27.222  26.452
25478W        W26343   1.123  27.637  28.025
25479W        W26344   2.327  26.901  26.403
25480W        W26345   2.204  27.391  26.507
25481W        W26346   0.547  26.811  27.981
25482W        W26347   0.532  26.687  28.903
25483W        W26348   0.422  25.604  27.062
25484W        W26349   2.190  25.951  27.623
25485W        W26350   1.838  26.136  28.786
25486W        W26351   2.193  26.285  25.964
25487W        W26352   3.376  28.678  28.718
25488W        W26353   2.343  25.759  28.757
25489W        W26354   3.362  28.060  28.879
25490W        W26355   2.792  26.227  28.475
25491W        W26356   2.592  26.165  26.745
25492W        W26357   2.985  27.299  29.149
25493W        W26358   0.725  28.875  27.135
25494W        W26359   1.383  26.592  26.121
25495W        W26360   0.952  25.876  28.785
25496W        W26361   3.004  26.360  26.466
25497W        W26362   3.371  26.842  26.411
25498W        W26363   1.114  29.059  28.882
25499W        W26364   1.040  25.595  26.117
25500W        W26365   3.361  26.129  27.152
25501W        W26366   3.511  28.378  25.597
25502W        W26367   0.418  27.581  27.299
25503W        W26368   2.335  26.168  25.529
25504W        W26369   3.469  28.500  27.249
25505W        W26370   3.508  25.694  27.999
25506W        W26371   1.953  26.906  28.553
25507W        W26372   2.046  28.245  26.256
25508W        W26373   2.446  27.539  28.996
25509W        W26374   2.120  25.516  27.305
25510W        W26375   0.732  26.419  27.368
25511W        W26376   0.286  27.619  28.142
25512W        W26377   2.145  28.812  26.848
25513W        W26378   3.339  26.409  27.720
25514W        W26379   1.976  28.756  28.487
25515W        W26380   3.319  27.815  25.692
25516W        W26381   1.754  27.298  26.753
25517W        W26382   3.606  25.809  28.494
25518W        W26383   1.755  27.644  28.088
25519W        W26384   1.972  26.530  27.533
25520W        W26385   2.824  26.828  26.371
25521W        W26386   3.111  26.561  26.013
25522W        W26387   2.920  28.601  26.402
25523W        W26388   2.754  28.204  27.198
25524W        W26389   2.650  27.283  26.176
25525W        W26390   2.083  27.493  27.162
25526W        W26391   2.964  27.281  27.229
25527W        W26392   0.339  26.296  27.653
25528W        W26393   3.117  27.348  28.480
25529W        W26394   3.468  28.966  27.626
25530W        W26395   1.398  28.410  27.028
25531W        W26396   2.405  28.943  28.352
25532W        W26397   2.399  26.273  28.116
25533W        W26398   1.606  28.981  28.177
25534W        W26399   3.303  25.935  26.643
25535W        W26400   3.094  27.254  27.944
25536W        W26401   0.077  26.575  27.982
25537W        W26402   2.937  26.370  27.000
25538W        W26403   3.348  26.521  28.777
25539W        W26404   2.233  28.220  26.995
25540W        W26405   1.489  28.811  26.608
25541W        W26406   0.604  25.991  25.866
25542W        W26407   1.708  25.645  27.676
25543W        W26408   0.736  28.765  25.524
25544W        W26409   1.110  27.231  26.275
25545W        W26410   1.764  27.860  28.588
25546W        W26411   1.594  26.218  26.578
25547W        W26412   2.950  25.815  27.006
25548W        W26413   2.670  29.097  27.334
25549W        W26414   2.082  28.745  27.674
25550W        W26415   1.478  27.782  27.635
25551W        W26416   3.248  28.505  27.761
25552W        W26417   0.942  26.008  26.530
25553W        W26418   1.464  28.305  27.490
25554W        W26419   0.947  26.236  25.555
25555W        W26420   1.748  26.845  27.949
25556W        W26421   2.596  25.711  27.819
25557W        W26422   0.016  27.554  27.704
25558W        W26423   1.720  27.372  25.862
25559W        W26424   0.988  25.687  25.632
25560W        W26425   1.726  26.768  26.683
25561W        W26426   2.696  25.744  28.382
25562W        W26427   1.284  27.756  28.491
25563W        W26428   2.088  27.538  28.708
25564W        W26429   2.705  27.568  28.601
25565W        W26430   1.989  25.708  29.106
25566W        W26431   1.211  26.324  27.499
25567W        W26432   0.637  26.280  26.897
25568W        W26433   0.423  28.992  26.573
25569W        W26434   1.755  28.322  28.698
25570W        W26435   0.790  27.807  26.057
25571W        W26436   2.470  27.192  27.278
25572W        W26437   2.750  26.991  27.677
25573W        W26438   1.955  27.665  27.611
25574W        W26439   2.425  28.039  25.743
25575W        W26440   2.097  26.060  27.071
25576W        W26441   3.576  26.338  26.339
25577W        W26442   0.070  28.927  28.370
25578W        W26443   0.487  28.153  27.902
25579W        W26444   0.054  28.999  26.134
25580W        W26445   1.953  26.269  27.940
25581W        W26446   1.316  28.292  25.789
25582W        W26447   3.221  28.674  25.975
25583W        W26448   2.196  27.327  25.989
25584W        W26449   1.039  26.518  26.506
25585W        W26450   1.871  26.428  25.558
25586W        W26451   2.455  27.993  28.736
25587W        W26452   2.808  25.899  26.353
25588W        W26453   0.138  25.747  25.801
25589W        W26454   1.424  28.066  28.091
25590W        W26455   1.223  27.982  27.183
25591W        W26456   0.965  27.934  25.581
25592W        W26457   0.206  28.175  26.349
25593W        W26458   0.710  27.245  28.791
25594W        W26459   1.414  25.805  28.977
25595W        W26460   2.123  25.947  28.333
25596W        W26461   1.318  25.715  26.614
25597W        W26462   2.377  25.792  26.119
25598W        W26463   0.322  25.724  27.696
25599W        W26464   0.370  26.687  27.066
25600W        W26465   3.059  25.795  27.472
25601W        W26466   0.481  26.293  26.286
25602W        W26467   3.052  25.981  27.902
25603W        W26468   3.448  27.184  25.587
25604W        W26469   0.740  25.942  27.406
25605W        W26470   1.854  26.514  28.346
25606W        W26471   0.002  26.204  25.824
25607W        W26472   0.788  27.593  28.385
25608W        W26473   2.146  26.991  27.564
25609W        W26474   2.013  29.070  25.860
25610W        W26475   0.159  27.577  25.557
25611W        W26476   0.894  27.988  28.683
25612W        W26477   0.415  27.155  28.314
25613W        W26478   1.406  27.260  28.108
25614W        W26479   3.174  25.619  28.370
25615W        W26480   3.572  27.229  28.361
25616W        W26481   3.560  27.429  26.047
25617W        W26482   2.423  27.761  26.146
25618W        W26483   2.897  29.061  25.841
25619W        W26484   2.074  27.051  28.983
25620W        W26485   0.404  28.018  29.023
25621W        W26486   3.610  25.940  28.975
25622W        W26487   3.328  26.868  27.596
25623W        W26488   1.636  28.998  29.073
25624W        W26489   1.491  25.627  25.800
25625W        W26490   3.030  28.226  25.743
25626W        W26491   0.799  26.319  28.629
25627W        W26492   1.233  28.313  28.491
25628W        W26493   3.359  26.304  28.289
25629W        W26494   2.570  28.963  26.257
25630W        W26495   2.809  27.582  27.624
25631W        W26496   1.059  25.998  28.291
25632W        W26497   1.528  27.067  29.048
25633W        W26498   1.031  28.246  26.242
25634W        W26499   2.786  27.744  26.506
25635W        W26500   0.554  26.370  28.230
25636W        W26501   1.883  28.432  26.694
25637W        W26502   3.633  26.992  26.875
25638W        W26503   1.855  25.625  28.594
25639W        W26504   2.635  28.330  27.673
25640W        W26505   2.938  28.674  27.381
25641W        W26506   2.157  28.476  25.809
25642W        W26507   0.167  28.368  28.651
25643W        W26508   0.910  26.360  27.889
25644W        W26509   0.880  25.708  26.999
25645W        W26510   2.501  26.550  27.691
25646W        W26511   1.299  27.721  25.891
25647W        W26512   3.297  27.663  27.390
25648W        W26513   0.624  28.421  28.813
25649W        W26514   3.011  29.103  26.610
25650W        W26515   1.110  26.123  27.055
25651W        W26516   0.879  27.616  27.145
25652W        W26517   1.192  29.027  27.895
25653W        W26518   3.259  29.123  28.927
25654W        W26519   2.418  27.311  27.860
25655W        W26520   0.267  27.109  25.775
25656W        W26521   3.401  28.767  26.472
25657W        W26522   3.238  26.091  26.091
25658W        W26523   1.377  25.610  28.494
25659W        W26524   3.083  28.412  26.952
25660W        W26525   3.112  26.968  26.857
25661W        W26526   1.229  26.641  27.073
25662W        W26527   1.474  26.903  28.397
25663W        W26528   2.585  28.056  28.260
25664W        W26529   1.235  26.510  28.372
25665W        W26530   1.214  28.976  26.988
25666W        W26531   0.531  28.935  28.622
25667W        W26532   0.643  28.296  25.752
25668W        W26533   3.160  28.054  26.562
25669W        W26534   0.764  26.846  28.448
25670W        W26535   3.537  26.776  25.929
25671W        W26536   1.282  27.833  26.400
25672W        W26537   2.381  27.215  28.481
25673W        W26538   2.272  26.843  28.025
25674W        W26539   0.832  27.215  28.054
25675W        W26540   3.042  29.103  27.883
25676W        W26541   2.833  25.737  28.877
25677W        W26542   0.497  25.887  28.464
25678W        W26543   0.836  26.910  27.517
25679W        W26544   1.205  26.724  25.639
25680W        W26545   0.008  28.483  28.184
25681W        W26546   1.593  27.192  27.627
25682W        W26547   1.416  26.217  25.732
25683W        W26548   0.551  27.033  26.513
25684W        W26549   0.322  28.885  27.950
25685W        W26550   3.117  27.111  26.058
25686W        W26551   3.212  26.027  28.744
25687W        W26552   2.648  28.236  26.707
25688W        W26553   0.246  27.160  28.884
25689W        W26554   3.212  25.624  26.180
25690W        W26555   2.732  28.099  26.191
25691W        W26556   1.634  27.157  26.276
25692W        W26557   2.821  25.961  25.799
25693W        W26558   2.886  26.568  27.985
25694W        W26559   0.595  27.161  27.192
25695W        W26560   0.889  28.100  26.841
25696W        W26561   2.652  26.720  26.806
25697W        W26562   1.675  26.099  27.502
25698W        W26563   3.637  28.010  28.013
25699W        W26564   3.555  25.997  27.574
25700W        W26565   0.094  28.827  26.950
25701W        W26566   0.603  28.014  26.486
25702W        W26567   0.518  25.631  29.039
25703W        W26568   1.637  28.484  29.141
25704W        W26569   3.392  27.452  26.931
25705W        W26570   2.746  27.629  25.811
25706W        W26571   2.898  27.872  29.060
25707W        W26572   1.713  25.582  26.340
25708W        W26573   2.426  26.451  27.199
25709W        W26574   0.112  28.038  27.531
25710W        W26575   1.365  26.000  26.172
25711W        W26576   1.169  27.484  29.021
25712W        W26577   2.163  26.465  26.735
25713W        W26578   2.368  27.875  27.857
25714W        W26579   0.522  28.480  28.292
25715W        W26580   1.113  28.463  29.015
25716W        W26581   0.964  26.260  26.029
25717W        W26582   2.481  26.402  26.354
25718W        W26583   2.439  28.510  28.591
25719W        W26584   1.124  27.102  27.190
25720W        W26585   0.779  28.800  28.055
25721W        W26586   3.524  28.917  25.656
25722W        W26587   0.387  27.589  28.652
25723W        W26588   2.382  27.851  27.340
25724W        W26589   0.818  27.500  26.582
25725W        W26590   1.189  28.507  27.977
25726W        W26591   1.567  25.926  27.018
25727W        W26592   0.178  27.910  25.948
25728W        W26593   1.697  26.861  25.818
25729W        W26594   0.343  27.410  26.837
25730W        W26595   1.633  26.052  28.301
25731W        W26596   3.305  25.761  25.728
25732W        W26597   3.398  27.507  28.827
25733W        W26598   2.052  28.764  28.979
25734W        W26599   3.610  27.858  28.501
25735W        W26600   3.018  28.656  29.112
25736W        W26601   0.757  29.112  27.590
25737W        W26602   3.616  27.734  26.464
25738W        W26603   2.146  27.001  26.977
25739W        W26604   1.913  25.613  26.867
25740W        W26605   0.972  28.597  26.704
25741W        W26606   1.471  26.338  27.929
25742W        W26607   1.171  25.707  27.398
25743W        W26608   0.234  28.529  25.946
25744W        W26609   2.050  27.893  26.664
25745W        W26610   0.925  28.688  28.543
25746W        W26611   0.402  27.511  26.239
25747W        W26612   0.287  26.054  27.238
25748W        W26613   1.835  28.019  27.295
25749W        W26614   0.087  25.873  26.315
25750W        W26615   2.751  27.079  28.242
25751W        W26616   2.628  26.465  25.814
25752W        W26617   3.145  28.137  27.462
25753W        W26618   1.806  28.621  27.293
25754W        W26619   1.218  28.725  26.204
25755W        W26620   2.500  25.628  25.634
25756W        W26621   0.300  28.888  27.375
25757W        W26622   2.497  26.646  29.010
25758W        W26623   0.480  26.176  29.009
25759W        W26624   0.211  26.776  26.342
25760W        W26625   0.902  26.765  26.067
25761W        W26626   2.665  27.092  28.884
25762W        W26627   1.008  27.373  27.593
25763W        W26628   2.482  25.659  26.713
25764W        W26629   1.613  29.090  27.216
25765W        W26630   2.827  28.552  28.153
25766W        W26631   2.411  28.701  27.264
25767W        W26632   2.430  27.681  26.858
25768W        W26633   1.892  25.906  25.929
25769W        W26634   3.573  25.534  26.651
25770W        W26635   1.261  27.169  25.814
25771W        W26636   3.427  26.506  26.804
25772W        W26637   2.119  27.676  25.681
25773W        W26638   3.055  27.876  28.429
25774W        W26639   2.709  28.577  25.896
25775W        W26640   1.324  26.252  28.802
25776W        W26641   1.144  26.836  28.043
25777W        W26642   3.236  28.331  28.320
25778W        W26643   2.336  26.281  28.697
25779W        W26644   0.180  26.752  28.474
25780W        W26645   1.940  27.229  28.200
25781W        W26646   0.297  27.987  26.857
25782W        W26647   0.444  27.284  27.747
25783W        W26648   2.761  27.570  28.097
25784W        W26649   2.533  28.950  28.908
25785W        W26650   2.429  26.689  28.461
25786W        W26651   2.706  28.743  26.866
25787W        W26652   1.708  28.463  28.189
25788W        W26653   1.193  28.818  27.458
25789W        W26654   2.998  27.989  27.877
25790W        W26655   2.048  28.061  29.014
25791W        W26656   0.653  28.014  27.353
25792W        W26657   2.999  27.773  26.998
25793W        W26658   2.640  28.839  27.749
25794W        W26659   0.618  28.568  27.619
25795W        W26660   1.639  26.620  28.829
25796W        W26661   2.090  28.786  26.340
25797W        W26662   1.398  28.041  28.978
25798W        W26663   1.524  28.279  26.355
25799W        W26664   0.745  27.019  25.614
25800W        W26665   3.728   3.595   3.359
25801W        W26666   4.104   2.488   2.882
25802W        W26667   6.809   2.218   0.652
25803W        W26668   6.939   3.303   2.679
25804W        W26669   4.857   3.294   0.205
25805W        W26670   4.940   1.446   1.188
25806W        W26671   4.455   1.294   1.352
25807W        W26672   5.446   2.109   0.786
25808W        W26673   5.121   3.201   3.141
25809W        W26674   3.770   0.762   3.104
25810W        W26675   4.532   0.042   2.906
25811W        W26676   6.226   0.430   1.793
25812W        W26677   5.875   1.301   0.363
25813W        W26678   6.445   0.735   3.454
25814W        W26679   3.811   0.527   2.579
25815W        W26680   3.910   3.146   3.600
25816W        W26681   5.432   2.536   0.332
25817W        W26682   3.864   1.319   2.025
25818W        W26683   4.757   1.210   3.262
25819W        W26684   7.216   1.069   1.761
25820W        W26685   6.980   2.112   2.620
25821W        W26686   5.288   1.445   1.647
25822W        W26687   5.834   2.784   2.016
25823W        W26688   4.334   2.218   2.248
25824W        W26689   3.693   1.746   1.819
25825W        W26690   4.729   1.718   3.011
25826W        W26691   7.000   1.501   3.265
25827W        W26692   4.616   2.945   1.710
25828W        W26693   5.737   2.634   2.844
25829W        W26694   4.957   1.274   2.069
25830W        W26695   5.249   2.058   1.712
25831W        W26696   6.246   2.831   3.560
25832W        W26697   5.325   2.151   3.570
25833W        W26698   5.306   1.867   3.048
25834W        W26699   3.715   1.258   3.570
25835W        W26700   6.547   2.793   3.169
25836W        W26701   4.128   0.375   1.167
25837W        W26702   4.655   2.633   2.166
25838W        W26703   7.118   2.416   1.456
25839W        W26704   6.531   0.816   2.023
25840W        W26705   6.816   0.769   0.118
25841W        W26706   7.281   1.570   2.424
25842W        W26707   5.248   3.277   2.177
25843W        W26708   7.022   2.743   0.615
25844W        W26709   4.151   3.529   0.369
25845W        W26710   4.544   3.575   1.045
25846W        W26711   4.341   0.329   2.471
25847W        W26712   6.964   1.347   2.746
25848W        W26713   6.369   1.769   1.205
25849W        W26714   6.335   1.457   0.232
25850W        W26715   5.543   2.601   2.372
25851W        W26716   5.349   0.931   1.571
25852W        W26717   5.949   3.018   2.565
25853W        W26718   6.820   1.809   0.987
25854W        W26719   5.722   0.467   1.003
25855W        W26720   4.379   3.161   0.686
25856W        W26721   3.750   0.660   1.285
25857W        W26722   6.536   1.267   1.759
25858W        W26723   3.994   2.884   1.674
25859W        W26724   5.335   3.234   0.544
25860W        W26725   6.727   1.260   0.008
25861W        W26726   3.750   3.018   2.172
25862W        W26727   4.541   2.590   2.652
25863W        W26728   4.914   1.950   1.271
25864W        W26729   4.936   0.355   2.364
25865W        W26730   7.165   0.117   1.661
25866W        W26731   4.384   1.989   0.129
25867W        W26732   4.039   1.022   0.308
25868W        W26733   4.101   2.978   1.102
25869W        W26734   5.232   2.461   1.350
25870W        W26735   6.564   3.320   3.064
25871W        W26736   5.490   0.962   0.748
25872W        W26737   6.873   3.360   1.520
25873W        W26738   6.550   1.213   3.118
25874W        W26739   7.263   2.869   1.252
25875W        W26740   5.890   2.161   2.736
25876W        W26741   3.656   1.712   0.942
25877W        W26742   4.767   2.127   2.515
25878W        W26743   5.971   1.391   0.893
25879W        W26744   5.848   1.881   0.997
25880W        W26745   4.191   1.301   2.471
25881W        W26746   4.176   1.177   3.393
25882W        W26747   4.066   0.094   1.552
25883W        W26748   5.834   0.441   2.113
25884W        W26749   5.482   0.626   3.276
25885W        W26750   5.837   0.775   0.454
25886W        W26751   7.020   3.168   3.208
25887W        W26752   5.987   0.249   3.247
25888W        W26753   7.006   2.550   3.369
25889W        W26754   6.436   0.717   2.965
25890W        W26755   6.236   0.655   1.235
25891W        W26756   6.629   1.789   3.639
25892W        W26757   4.369   3.365   1.625
25893W        W26758   5.027   1.082   0.611
25894W        W26759   4.596   0.366   3.275
25895W        W26760   6.648   0.850   0.956
25896W        W26761   7.015   1.332   0.901
25897W        W26762   4.758   3.549   3.372
25898W        W26763   4.684   0.085   0.607
25899W        W26764   7.005   0.619   1.642
25900W        W26765   7.155   2.868   0.087
25901W        W26766   4.062   2.071   1.789
25902W        W26767   5.979   0.658   0.019
25903W        W26768   7.113   2.990   1.739
25904W        W26769   7.152   0.184   2.489
25905W        W26770   5.597   1.396   3.043
25906W        W26771   5.690   2.735   0.746
25907W        W26772   6.090   2.029   3.486
25908W        W26773   5.764   0.006   1.795
25909W        W26774   4.376   0.909   1.858
25910W        W26775   3.930   2.109   2.632
25911W        W26776   5.789   3.302   1.338
25912W        W26777   6.983   0.899   2.210
25913W        W26778   5.620   3.246   2.977
25914W        W26779   6.963   2.305   0.182
25915W        W26780   5.398   1.788   1.243
25916W        W26781   7.250   0.299   2.984
25917W        W26782   5.399   2.134   2.578
25918W        W26783   5.616   1.020   2.023
25919W        W26784   6.468   1.318   0.861
25920W        W26785   6.755   1.051   0.503
25921W        W26786   6.564   3.091   0.892
25922W        W26787   6.398   2.694   1.688
25923W        W26788   6.294   1.773   0.666
25924W        W26789   5.727   1.983   1.652
25925W        W26790   6.608   1.771   1.719
25926W        W26791   3.983   0.786   2.143
25927W        W26792   6.761   1.838   2.970
25928W        W26793   7.112   3.456   2.116
25929W        W26794   5.042   2.900   1.518
25930W        W26795   6.049   3.433   2.842
25931W        W26796   6.043   0.763   2.606
25932W        W26797   5.250   3.471   2.667
25933W        W26798   6.947   0.425   1.133
25934W        W26799   6.738   1.744   2.434
25935W        W26800   3.721   1.065   2.472
25936W        W26801   6.581   0.860   1.490
25937W        W26802   6.992   1.011   3.267
25938W        W26803   5.877   2.710   1.485
25939W        W26804   5.133   3.301   1.098
25940W        W26805   4.248   0.481   0.356
25941W        W26806   5.352   0.135   2.166
25942W        W26807   4.380   3.255   0.014
25943W        W26808   4.754   1.721   0.765
25944W        W26809   5.408   2.350   3.078
25945W        W26810   5.238   0.708   1.068
25946W        W26811   6.594   0.305   1.496
25947W        W26812   6.314   3.587   1.824
25948W        W26813   5.726   3.235   2.164
25949W        W26814   5.122   2.272   2.125
25950W        W26815   6.892   2.995   2.251
25951W        W26816   4.586   0.498   1.020
25952W        W26817   5.108   2.795   1.980
25953W        W26818   4.591   0.726   0.045
25954W        W26819   5.392   1.335   2.439
25955W        W26820   6.240   0.201   2.309
25956W        W26821   3.660   2.044   2.194
25957W        W26822   5.364   1.862   0.352
25958W        W26823   4.632   0.177   0.122
25959W        W26824   5.370   1.258   1.173
25960W        W26825   6.340   0.234   2.872
25961W        W26826   4.928   2.246   2.981
25962W        W26827   5.732   2.028   3.198
25963W        W26828   6.349   2.058   3.091
25964W        W26829   5.633   0.198   3.596
25965W        W26830   4.855   0.814   1.989
25966W        W26831   4.281   0.770   1.387
25967W        W26832   4.067   3.482   1.063
25968W        W26833   5.399   2.812   3.188
25969W        W26834   4.434   2.297   0.547
25970W        W26835   6.114   1.682   1.768
25971W        W26836   6.394   1.481   2.167
25972W        W26837   5.599   2.155   2.101
25973W        W26838   6.069   2.529   0.233
25974W        W26839   5.741   0.550   1.561
25975W        W26840   7.220   0.828   0.829
25976W        W26841   3.714   3.417   2.860
25977W        W26842   4.131   2.643   2.392
25978W        W26843   3.698   3.489   0.624
25979W        W26844   5.597   0.759   2.430
25980W        W26845   4.960   2.782   0.279
25981W        W26846   6.865   3.164   0.465
25982W        W26847   5.840   1.817   0.479
25983W        W26848   4.683   1.008   0.996
25984W        W26849   5.515   0.918   0.048
25985W        W26850   6.099   2.483   3.226
25986W        W26851   6.452   0.389   0.843
25987W        W26852   3.782   0.237   0.291
25988W        W26853   5.068   2.556   2.581
25989W        W26854   4.867   2.472   1.673
25990W        W26855   4.609   2.424   0.071
25991W        W26856   3.850   2.665   0.839
25992W        W26857   4.354   1.735   3.281
25993W        W26858   5.058   0.295   3.467
25994W        W26859   5.767   0.437   2.823
25995W        W26860   4.962   0.205   1.104
25996W        W26861   6.021   0.282   0.609
25997W        W26862   3.966   0.214   2.186
25998W        W26863   4.014   1.177   1.556
25999W        W26864   6.703   0.285   1.962
26000W        W26865   4.125   0.783   0.776
26001W        W26866   6.696   0.471   2.392
26002W        W26867   7.092   1.674   0.077
26003W        W26868   4.384   0.432   1.896
26004W        W26869   5.498   1.004   2.836
26005W        W26870   3.646   0.694   0.314
26006W        W26871   4.432   2.083   2.875
26007W        W26872   5.790   1.481   2.054
26008W        W26873   5.657   3.560   0.350
26009W        W26874   3.803   2.067   0.047
26010W        W26875   4.538   2.478   3.173
26011W        W26876   4.059   1.645   2.804
26012W        W26877   5.050   1.750   2.598
26013W        W26878   6.818   0.109   2.860
26014W        W26879   7.216   1.719   2.851
26015W        W26880   7.204   1.919   0.537
26016W        W26881   6.067   2.251   0.636
26017W        W26882   6.541   3.551   0.331
26018W        W26883   5.718   1.541   3.473
26019W        W26884   4.048   2.508   3.513
26020W        W26885   7.254   0.430   3.465
26021W        W26886   6.972   1.358   2.086
26022W        W26887   5.280   3.488   3.563
26023W        W26888   5.135   0.117   0.290
26024W        W26889   6.674   2.716   0.233
26025W        W26890   4.443   0.809   3.119
26026W        W26891   4.877   2.803   2.981
26027W        W26892   7.003   0.794   2.779
26028W        W26893   6.214   3.453   0.747
26029W        W26894   6.453   2.072   2.114
26030W        W26895   4.703   0.488   2.781
26031W        W26896   5.172   1.557   3.538
26032W        W26897   4.675   2.736   0.732
26033W        W26898   6.430   2.234   0.996
26034W        W26899   4.198   0.860   2.720
26035W        W26900   5.527   2.922   1.184
26036W        W26901   7.277   1.482   1.365
26037W        W26902   5.499   0.115   3.084
26038W        W26903   6.279   2.820   2.163
26039W        W26904   6.582   3.164   1.871
26040W        W26905   5.801   2.966   0.299
26041W        W26906   3.811   2.858   3.141
26042W        W26907   4.554   0.850   2.379
26043W        W26908   4.524   0.198   1.489
26044W        W26909   6.145   1.040   2.181
26045W        W26910   4.943   2.211   0.381
26046W        W26911   6.941   2.153   1.880
26047W        W26912   4.268   2.911   3.303
26048W        W26913   6.655   3.593   1.100
26049W        W26914   4.754   0.613   1.545
26050W        W26915   4.523   2.106   1.635
26051W        W26916   4.836   3.517   2.385
26052W        W26917   6.903   3.613   3.417
26053W        W26918   6.062   1.801   2.350
26054W        W26919   3.911   1.599   0.265
26055W        W26920   7.045   3.257   0.962
26056W        W26921   6.882   0.581   0.581
26057W        W26922   5.021   0.100   2.984
26058W        W26923   6.727   2.902   1.442
26059W        W26924   6.756   1.458   1.347
26060W        W26925   4.873   1.131   1.563
26061W        W26926   5.118   1.393   2.887
26062W        W26927   6.229   2.546   2.750
26063W        W26928   4.879   1.000   2.862
26064W        W26929   4.858   3.466   1.478
26065W        W26930   4.175   3.425   3.112
26066W        W26931   4.287   2.786   0.242
26067W        W26932   6.804   2.544   1.052
26068W        W26933   4.408   1.336   2.938
26069W        W26934   7.181   1.266   0.419
26070W        W26935   4.926   2.323   0.890
26071W        W26936   6.025   1.705   2.971
26072W        W26937   5.916   1.333   2.515
26073W        W26938   4.476   1.705   2.544
26074W        W26939   6.686   3.593   2.373
26075W        W26940   6.477   0.227   3.367
26076W        W26941   4.141   0.377   2.954
26077W        W26942   4.480   1.400   2.007
26078W        W26943   4.849   1.214   0.129
26079W        W26944   3.652   2.973   2.674
26080W        W26945   5.237   1.682   2.117
26081W        W26946   5.060   0.707   0.222
26082W        W26947   4.195   1.523   1.003
26083W        W26948   3.966   3.375   2.440
26084W        W26949   6.761   1.601   0.548
26085W        W26950   6.856   0.517   3.234
26086W        W26951   6.292   2.726   1.197
26087W        W26952   3.890   1.650   3.374
26088W        W26953   6.856   0.114   0.670
26089W        W26954   6.376   2.589   0.681
26090W        W26955   5.278   1.647   0.766
26091W        W26956   6.465   0.451   0.289
26092W        W26957   6.530   1.058   2.475
26093W        W26958   4.239   1.651   1.682
26094W        W26959   4.533   2.590   1.331
26095W        W26960   6.296   1.210   1.296
26096W        W26961   5.319   0.589   1.992
26097W        W26962   7.281   2.500   2.503
26098W        W26963   7.199   0.487   2.064
26099W        W26964   3.738   3.317   1.440
26100W        W26965   4.247   2.504   0.976
26101W        W26966   4.162   0.121   3.529
26102W        W26967   5.281   2.974   3.631
26103W        W26968   7.036   1.942   1.421
26104W        W26969   6.390   2.119   0.301
26105W        W26970   5.685   3.640   2.513
26106W        W26971   6.542   2.362   3.550
26107W        W26972   5.357   0.072   0.830
26108W        W26973   6.070   0.941   1.689
26109W        W26974   3.756   2.528   2.021
26110W        W26975   5.009   0.490   0.662
26111W        W26976   4.813   1.974   3.511
26112W        W26977   5.807   0.955   1.225
26113W        W26978   6.012   2.365   2.347
26114W        W26979   4.166   2.970   2.782
26115W        W26980   4.757   2.953   3.505
26116W        W26981   4.608   0.750   0.519
26117W        W26982   6.125   0.892   0.844
26118W        W26983   6.083   3.000   3.081
26119W        W26984   4.768   1.592   1.680
26120W        W26985   4.423   3.290   2.545
26121W        W26986   7.168   3.407   0.146
26122W        W26987   4.031   2.079   3.142
26123W        W26988   6.026   2.341   1.830
26124W        W26989   4.462   1.990   1.072
26125W        W26990   4.833   2.997   2.467
26126W        W26991   5.211   0.416   1.508
26127W        W26992   3.822   2.400   0.438
26128W        W26993   5.341   1.351   0.308
26129W        W26994   3.987   1.900   1.327
26130W        W26995   5.277   0.542   2.791
26131W        W26996   6.949   0.251   0.218
26132W        W26997   7.042   1.997   3.317
26133W        W26998   5.696   3.254   3.469
26134W        W26999   7.254   2.348   2.991
26135W        W27000   6.662   3.146   3.602
26136W        W27001   4.401   3.602   2.080
26137W        W27002   7.260   2.224   0.954
26138W        W27003   5.790   1.491   1.467
26139W        W27004   5.557   0.103   1.357
26140W        W27005   4.616   3.087   1.194
26141W        W27006   5.115   0.828   2.419
26142W        W27007   4.815   0.197   1.888
26143W        W27008   3.878   3.019   0.436
26144W        W27009   5.694   2.383   1.154
26145W        W27010   4.569   3.178   3.033
26146W        W27011   4.046   2.001   0.729
26147W        W27012   3.931   0.544   1.728
26148W        W27013   5.479   2.509   1.785
26149W        W27014   3.731   0.363   0.805
26150W        W27015   6.395   1.569   2.732
26151W        W27016   6.272   0.955   0.304
26152W        W27017   6.789   2.627   1.952
26153W        W27018   5.450   3.111   1.783
26154W        W27019   4.862   3.215   0.694
26155W        W27020   6.144   0.118   0.124
26156W        W27021   3.944   3.378   1.865
26157W        W27022   6.141   1.136   3.500
26158W        W27023   4.124   0.666   3.499
26159W        W27024   3.855   1.266   0.832
26160W        W27025   4.546   1.255   0.557
26161W        W27026   6.309   1.582   3.374
26162W        W27027   4.652   1.863   2.083
26163W        W27028   6.126   0.149   1.203
26164W        W27029   5.257   3.580   1.706
26165W        W27030   6.471   3.042   2.643
26166W        W27031   6.055   3.191   1.754
26167W        W27032   6.074   2.171   1.348
26168W        W27033   5.536   0.396   0.419
26169W        W27034   7.217   0.024   1.141
26170W        W27035   4.905   1.659   0.304
26171W        W27036   7.071   0.996   1.294
26172W        W27037   5.763   2.166   0.171
26173W        W27038   6.699   2.366   2.919
26174W        W27039   6.353   3.067   0.386
26175W        W27040   4.968   0.742   3.292
26176W        W27041   4.788   1.326   2.533
26177W        W27042   6.880   2.821   2.810
26178W        W27043   5.980   0.771   3.187
26179W        W27044   3.824   1.242   2.964
26180W        W27045   5.584   1.719   2.690
26181W        W27046   3.941   2.477   1.347
26182W        W27047   4.088   1.774   2.237
26183W        W27048   6.405   2.060   2.587
26184W        W27049   6.177   3.440   3.398
26185W        W27050   6.073   1.179   2.951
26186W        W27051   6.350   3.233   1.356
26187W        W27052   5.352   2.953   2.679
26188W        W27053   4.837   3.308   1.948
26189W        W27054   6.642   2.479   2.367
26190W        W27055   5.692   2.551   3.504
26191W        W27056   4.297   2.504   1.843
26192W        W27057   6.643   2.263   1.488
26193W        W27058   6.284   3.329   2.239
26194W        W27059   4.262   3.058   2.109
26195W        W27060   5.283   1.110   3.319
26196W        W27061   5.734   3.276   0.830
26197W        W27062   5.042   2.531   3.468
26198W        W27063   5.168   2.769   0.845
26199W        W27064   4.389   1.509   0.104
26200W        W27065   3.728   3.595   7.003
26201W        W27066   4.104   2.488   6.526
26202W        W27067   6.809   2.218   4.296
26203W        W27068   6.939   3.303   6.323
26204W        W27069   4.857   3.294   3.849
26205W        W27070   4.940   1.446   4.832
26206W        W27071   4.455   1.294   4.996
26207W        W27072   5.446   2.109   4.430
26208W        W27073   5.121   3.201   6.785
26209W        W27074   3.770   0.762   6.748
26210W        W27075   4.532   0.042   6.550
26211W        W27076   6.226   0.430   5.437
26212W        W27077   5.875   1.301   4.007
26213W        W27078   6.445   0.735   7.098
26214W        W27079   3.811   0.527   6.223
26215W        W27080   3.910   3.146   7.244
26216W        W27081   5.432   2.536   3.976
26217W        W27082   3.864   1.319   5.669
26218W        W27083   4.757   1.210   6.906
26219W        W27084   7.216   1.069   5.405
26220W        W27085   6.980   2.112   6.264
26221W        W27086   5.288   1.445   5.291
26222W        W27087   5.834   2.784   5.660
26223W        W27088   4.334   2.218   5.892
26224W        W27089   3.693   1.746   5.463
26225W        W27090   4.729   1.718   6.655
26226W        W27091   7.000   1.501   6.909
26227W        W27092   4.616   2.945   5.354
26228W        W27093   5.737   2.634   6.488
26229W        W27094   4.957   1.274   5.713
26230W        W27095   5.249   2.058   5.356
26231W        W27096   6.246   2.831   7.204
26232W        W27097   5.325   2.151   7.214
26233W        W27098   5.306   1.867   6.692
26234W        W27099   3.715   1.258   7.214
26235W        W27100   6.547   2.793   6.813
26236W        W27101   4.128   0.375   4.811
26237W        W27102   4.655   2.633   5.810
26238W        W27103   7.118   2.416   5.100
26239W        W27104   6.531   0.816   5.667
26240W        W27105   6.816   0.769   3.762
26241W        W27106   7.281   1.570   6.068
26242W        W27107   5.248   3.277   5.821
26243W        W27108   7.022   2.743   4.259
26244W        W27109   4.151   3.529   4.013
26245W        W27110   4.544   3.575   4.689
26246W        W27111   4.341   0.329   6.115
26247W        W27112   6.964   1.347   6.390
26248W        W27113   6.369   1.769   4.849
26249W        W27114   6.335   1.457   3.876
26250W        W27115   5.543   2.601   6.016
26251W        W27116   5.349   0.931   5.215
26252W        W27117   5.949   3.018   6.209
26253W        W27118   6.820   1.809   4.631
26254W        W27119   5.722   0.467   4.647
26255W        W27120   4.379   3.161   4.330
26256W        W27121   3.750   0.660   4.929
26257W        W27122   6.536   1.267   5.403
26258W        W27123   3.994   2.884   5.318
26259W        W27124   5.335   3.234   4.188
26260W        W27125   6.727   1.260   3.652
26261W        W27126   3.750   3.018   5.816
26262W        W27127   4.541   2.590   6.296
26263W        W27128   4.914   1.950   4.915
26264W        W27129   4.936   0.355   6.008
26265W        W27130   7.165   0.117   5.305
26266W        W27131   4.384   1.989   3.773
26267W        W27132   4.039   1.022   3.952
26268W        W27133   4.101   2.978   4.746
26269W        W27134   5.232   2.461   4.994
26270W        W27135   6.564   3.320   6.708
26271W        W27136   5.490   0.962   4.392
26272W        W27137   6.873   3.360   5.164
26273W        W27138   6.550   1.213   6.762
26274W        W27139   7.263   2.869   4.896
26275W        W27140   5.890   2.161   6.380
26276W        W27141   3.656   1.712   4.586
26277W        W27142   4.767   2.127   6.159
26278W        W27143   5.971   1.391   4.537
26279W        W27144   5.848   1.881   4.641
26280W        W27145   4.191   1.301   6.115
26281W        W27146   4.176   1.177   7.037
26282W        W27147   4.066   0.094   5.196
26283W        W27148   5.834   0.441   5.757
26284W        W27149   5.482   0.626   6.920
26285W        W27150   5.837   0.775   4.098
26286W        W27151   7.020   3.168   6.852
26287W        W27152   5.987   0.249   6.891
26288W        W27153   7.006   2.550   7.013
26289W        W27154   6.436   0.717   6.609
26290W        W27155   6.236   0.655   4.879
26291W        W27156   6.629   1.789   7.283
26292W        W27157   4.369   3.365   5.269
26293W        W27158   5.027   1.082   4.255
26294W        W27159   4.596   0.366   6.919
26295W        W27160   6.648   0.850   4.600
26296W        W27161   7.015   1.332   4.545
26297W        W27162   4.758   3.549   7.016
26298W        W27163   4.684   0.085   4.251
26299W        W27164   7.005   0.619   5.286
26300W        W27165   7.155   2.868   3.731
26301W        W27166   4.062   2.071   5.433
26302W        W27167   5.979   0.658   3.663
26303W        W27168   7.113   2.990   5.383
26304W        W27169   7.152   0.184   6.133
26305W        W27170   5.597   1.396   6.687
26306W        W27171   5.690   2.735   4.390
26307W        W27172   6.090   2.029   7.130
26308W        W27173   5.764   0.006   5.439
26309W        W27174   4.376   0.909   5.502
26310W        W27175   3.930   2.109   6.276
26311W        W27176   5.789   3.302   4.982
26312W        W27177   6.983   0.899   5.854
26313W        W27178   5.620   3.246   6.621
26314W        W27179   6.963   2.305   3.826
26315W        W27180   5.398   1.788   4.887
26316W        W27181   7.250   0.299   6.628
26317W        W27182   5.399   2.134   6.222
26318W        W27183   5.616   1.020   5.667
26319W        W27184   6.468   1.318   4.505
26320W        W27185   6.755   1.051   4.147
26321W        W27186   6.564   3.091   4.536
26322W        W27187   6.398   2.694   5.332
26323W        W27188   6.294   1.773   4.310
26324W        W27189   5.727   1.983   5.296
26325W        W27190   6.608   1.771   5.363
26326W        W27191   3.983   0.786   5.787
26327W        W27192   6.761   1.838   6.614
26328W        W27193   7.112   3.456   5.760
26329W        W27194   5.042   2.900   5.162
26330W        W27195   6.049   3.433   6.486
26331W        W27196   6.043   0.763   6.250
26332W        W27197   5.250   3.471   6.311
26333W        W27198   6.947   0.425   4.777
26334W        W27199   6.738   1.744   6.078
26335W        W27200   3.721   1.065   6.116
26336W        W27201   6.581   0.860   5.134
26337W        W27202   5.877   2.710   5.129
26338W        W27203   5.133   3.301   4.742
26339W        W27204   4.248   0.481   4.000
26340W        W27205   5.352   0.135   5.810
26341W        W27206   4.380   3.255   3.658
26342W        W27207   4.754   1.721   4.409
26343W        W27208   5.408   2.350   6.722
26344W        W27209   5.238   0.708   4.712
26345W        W27210   6.594   0.305   5.140
26346W        W27211   6.314   3.587   5.468
26347W        W27212   5.726   3.235   5.808
26348W        W27213   5.122   2.272   5.769
26349W        W27214   6.892   2.995   5.895
26350W        W27215   4.586   0.498   4.664
26351W        W27216   5.108   2.795   5.624
26352W        W27217   4.591   0.726   3.689
26353W        W27218   5.392   1.335   6.083
26354W        W27219   6.240   0.201   5.953
26355W        W27220   3.660   2.044   5.838
26356W        W27221   5.364   1.862   3.996
26357W        W27222   4.632   0.177   3.766
26358W        W27223   5.370   1.258   4.817
26359W        W27224   6.340   0.234   6.516
26360W        W27225   4.928   2.246   6.625
26361W        W27226   5.732   2.028   6.842
26362W        W27227   6.349   2.058   6.735
26363W        W27228   5.633   0.198   7.240
26364W        W27229   4.855   0.814   5.633
26365W        W27230   4.281   0.770   5.031
26366W        W27231   4.067   3.482   4.707
26367W        W27232   5.399   2.812   6.832
26368W        W27233   4.434   2.297   4.191
26369W        W27234   6.114   1.682   5.412
26370W        W27235   6.394   1.481   5.811
26371W        W27236   5.599   2.155   5.745
26372W        W27237   6.069   2.529   3.877
26373W        W27238   5.741   0.550   5.205
26374W        W27239   7.220   0.828   4.473
26375W        W27240   3.714   3.417   6.504
26376W        W27241   4.131   2.643   6.036
26377W        W27242   3.698   3.489   4.268
26378W        W27243   5.597   0.759   6.074
26379W        W27244   4.960   2.782   3.923
26380W        W27245   6.865   3.164   4.109
26381W        W27246   5.840   1.817   4.123
26382W        W27247   4.683   1.008   4.640
26383W        W27248   5.515   0.918   3.692
26384W        W27249   6.099   2.483   6.870
26385W        W27250   6.452   0.389   4.487
26386W        W27251   3.782   0.237   3.935
26387W        W27252   5.068   2.556   6.225
26388W        W27253   4.867   2.472   5.317
26389W        W27254   4.609   2.424   3.715
26390W        W27255   3.850   2.665   4.483
26391W        W27256   4.354   1.735   6.925
26392W        W27257   5.058   0.295   7.111
26393W        W27258   5.767   0.437   6.467
26394W        W27259   4.962   0.205   4.748
26395W        W27260   6.021   0.282   4.253
26396W        W27261   3.966   0.214   5.830
26397W        W27262   4.014   1.177   5.200
26398W        W27263   6.703   0.285   5.606
26399W        W27264   4.125   0.783   4.420
26400W        W27265   6.696   0.471   6.036
26401W        W27266   7.092   1.674   3.721
26402W        W27267   4.384   0.432   5.540
26403W        W27268   5.498   1.004   6.480
26404W        W27269   3.646   0.694   3.958
26405W        W27270   4.432   2.083   6.519
26406W        W27271   5.790   1.481   5.698
26407W        W27272   5.657   3.560   3.994
26408W        W27273   3.803   2.067   3.691
26409W        W27274   4.538   2.478   6.817
26410W        W27275   4.059   1.645   6.448
26411W        W27276   5.050   1.750   6.242
26412W        W27277   6.818   0.109   6.504
26413W        W27278   7.216   1.719   6.495
26414W        W27279   7.204   1.919   4.181
26415W        W27280   6.067   2.251   4.280
26416W        W27281   6.541   3.551   3.975
26417W        W27282   5.718   1.541   7.117
26418W        W27283   4.048   2.508   7.157
26419W        W27284   7.254   0.430   7.109
26420W        W27285   6.972   1.358   5.730
26421W        W27286   5.280   3.488   7.207
26422W        W27287   5.135   0.117   3.934
26423W        W27288   6.674   2.716   3.877
26424W        W27289   4.443   0.809   6.763
26425W        W27290   4.877   2.803   6.625
26426W        W27291   7.003   0.794   6.423
26427W        W27292   6.214   3.453   4.391
26428W        W27293   6.453   2.072   5.758
26429W        W27294   4.703   0.488   6.425
26430W        W27295   5.172   1.557   7.182
26431W        W27296   4.675   2.736   4.376
26432W        W27297   6.430   2.234   4.640
26433W        W27298   4.198   0.860   6.364
26434W        W27299   5.527   2.922   4.828
26435W        W27300   7.277   1.482   5.009
26436W        W27301   5.499   0.115   6.728
26437W        W27302   6.279   2.820   5.807
26438W        W27303   6.582   3.164   5.515
26439W        W27304   5.801   2.966   3.943
26440W        W27305   3.811   2.858   6.785
26441W        W27306   4.554   0.850   6.023
26442W        W27307   4.524   0.198   5.133
26443W        W27308   6.145   1.040   5.825
26444W        W27309   4.943   2.211   4.025
26445W        W27310   6.941   2.153   5.524
26446W        W27311   4.268   2.911   6.947
26447W        W27312   6.655   3.593   4.744
26448W        W27313   4.754   0.613   5.189
26449W        W27314   4.523   2.106   5.279
26450W        W27315   4.836   3.517   6.029
26451W        W27316   6.903   3.613   7.061
26452W        W27317   6.062   1.801   5.994
26453W        W27318   3.911   1.599   3.909
26454W        W27319   7.045   3.257   4.606
26455W        W27320   6.882   0.581   4.225
26456W        W27321   5.021   0.100   6.628
26457W        W27322   6.727   2.902   5.086
26458W        W27323   6.756   1.458   4.991
26459W        W27324   4.873   1.131   5.207
26460W        W27325   5.118   1.393   6.531
26461W        W27326   6.229   2.546   6.394
26462W        W27327   4.879   1.000   6.506
26463W        W27328   4.858   3.466   5.122
26464W        W27329   4.175   3.425   6.756
26465W        W27330   4.287   2.786   3.886
26466W        W27331   6.804   2.544   4.696
26467W        W27332   4.408   1.336   6.582
26468W        W27333   7.181   1.266   4.063
26469W        W27334   4.926   2.323   4.534
26470W        W27335   6.025   1.705   6.615
26471W        W27336   5.916   1.333   6.159
26472W        W27337   4.476   1.705   6.188
26473W        W27338   6.686   3.593   6.017
26474W        W27339   6.477   0.227   7.011
26475W        W27340   4.141   0.377   6.598
26476W        W27341   4.480   1.400   5.651
26477W        W27342   4.849   1.214   3.773
26478W        W27343   3.652   2.973   6.318
26479W        W27344   5.237   1.682   5.761
26480W        W27345   5.060   0.707   3.866
26481W        W27346   4.195   1.523   4.647
26482W        W27347   3.966   3.375   6.084
26483W        W27348   6.761   1.601   4.192
26484W        W27349   6.856   0.517   6.878
26485W        W27350   6.292   2.726   4.841
26486W        W27351   3.890   1.650   7.018
26487W        W27352   6.856   0.114   4.314
26488W        W27353   6.376   2.589   4.325
26489W        W27354   5.278   1.647   4.410
26490W        W27355   6.465   0.451   3.933
26491W        W27356   6.530   1.058   6.119
26492W        W27357   4.239   1.651   5.326
26493W        W27358   4.533   2.590   4.975
26494W        W27359   6.296   1.210   4.940
26495W        W27360   5.319   0.589   5.636
26496W        W27361   7.281   2.500   6.147
26497W        W27362   7.199   0.487   5.708
26498W        W27363   3.738   3.317   5.084
26499W        W27364   4.247   2.504   4.620
26500W        W27365   4.162   0.121   7.173
26501W        W27366   5.281   2.974   7.275
26502W        W27367   7.036   1.942   5.065
26503W        W27368   6.390   2.119   3.945
26504W        W27369   5.685   3.640   6.157
26505W        W27370   6.542   2.362   7.194
26506W        W27371   5.357   0.072   4.474
26507W        W27372   6.070   0.941   5.333
26508W        W27373   3.756   2.528   5.665
26509W        W27374   5.009   0.490   4.306
26510W        W27375   4.813   1.974   7.155
26511W        W27376   5.807   0.955   4.869
26512W        W27377   6.012   2.365   5.991
26513W        W27378   4.166   2.970   6.426
26514W        W27379   4.757   2.953   7.149
26515W        W27380   4.608   0.750   4.163
26516W        W27381   6.125   0.892   4.488
26517W        W27382   6.083   3.000   6.725
26518W        W27383   4.768   1.592   5.324
26519W        W27384   4.423   3.290   6.189
26520W        W27385   7.168   3.407   3.790
26521W        W27386   4.031   2.079   6.786
26522W        W27387   6.026   2.341   5.474
26523W        W27388   4.462   1.990   4.716
26524W        W27389   4.833   2.997   6.111
26525W        W27390   5.211   0.416   5.152
26526W        W27391   3.822   2.400   4.082
26527W        W27392   5.341   1.351   3.952
26528W        W27393   3.987   1.900   4.971
26529W        W27394   5.277   0.542   6.435
26530W        W27395   6.949   0.251   3.862
26531W        W27396   7.042   1.997   6.961
26532W        W27397   5.696   3.254   7.113
26533W        W27398   7.254   2.348   6.635
26534W        W27399   6.662   3.146   7.246
26535W        W27400   4.401   3.602   5.724
26536W        W27401   7.260   2.224   4.598
26537W        W27402   5.790   1.491   5.111
26538W        W27403   5.557   0.103   5.001
26539W        W27404   4.616   3.087   4.838
26540W        W27405   5.115   0.828   6.063
26541W        W27406   4.815   0.197   5.532
26542W        W27407   3.878   3.019   4.080
26543W        W27408   5.694   2.383   4.798
26544W        W27409   4.569   3.178   6.677
26545W        W27410   4.046   2.001   4.373
26546W        W27411   3.931   0.544   5.372
26547W        W27412   5.479   2.509   5.429
26548W        W27413   3.731   0.363   4.449
26549W        W27414   6.395   1.569   6.376
26550W        W27415   6.272   0.955   3.948
26551W        W27416   6.789   2.627   5.596
26552W        W27417   5.450   3.111   5.427
26553W        W27418   4.862   3.215   4.338
26554W        W27419   6.144   0.118   3.768
26555W        W27420   3.944   3.378   5.509
26556W        W27421   6.141   1.136   7.144
26557W        W27422   4.124   0.666   7.143
26558W        W27423   3.855   1.266   4.476
26559W        W27424   4.546   1.255   4.201
26560W        W27425   6.309   1.582   7.018
26561W        W27426   4.652   1.863   5.727
26562W        W27427   6.126   0.149   4.847
26563W        W27428   5.257   3.580   5.350
26564W        W27429   6.471   3.042   6.287
26565W        W27430   6.055   3.191   5.398
26566W        W27431   6.074   2.171   4.992
26567W        W27432   5.536   0.396   4.063
26568W        W27433   7.217   0.024   4.785
26569W        W27434   4.905   1.659   3.948
26570W        W27435   7.071   0.996   4.938
26571W        W27436   5.763   2.166   3.815
26572W        W27437   6.699   2.366   6.563
26573W        W27438   6.353   3.067   4.030
26574W        W27439   4.968   0.742   6.936
26575W        W27440   4.788   1.326   6.177
26576W        W27441   6.880   2.821   6.454
26577W        W27442   5.980   0.771   6.831
26578W        W27443   3.824   1.242   6.608
26579W        W27444   5.584   1.719   6.334
26580W        W27445   3.941   2.477   4.991
26581W        W27446   4.088   1.774   5.881
26582W        W27447   6.405   2.060   6.231
26583W        W27448   6.177   3.440   7.042
26584W        W27449   6.073   1.179   6.595
26585W        W27450   6.350   3.233   5.000
26586W        W27451   5.352   2.953   6.323
26587W        W27452   4.837   3.308   5.592
26588W        W27453   6.642   2.479   6.011
26589W        W27454   5.692   2.551   7.148
26590W        W27455   4.297   2.504   5.487
26591W        W27456   6.643   2.263   5.132
26592W        W27457   6.284   3.329   5.883
26593W        W27458   4.262   3.058   5.753
26594W        W27459   5.283   1.110   6.963
26595W        W27460   5.734   3.276   4.474
26596W        W27461   5.042   2.531   7.112
26597W        W27462   5.168   2.769   4.489
26598W        W27463   4.389   1.509   3.748
26599W        W27464   3.728   3.595  10.648
26600W        W27465   4.104   2.488  10.171
26601W        W27466   6.809   2.218   7.941
26602W        W27467   6.939   3.303   9.968
26603W        W27468   4.857   3.294   7.494
26604W        W27469   4.940   1.446   8.477
26605W        W27470   4.455   1.294   8.641
26606W        W27471   5.446   2.109   8.075
26607W        W27472   5.121   3.201  10.430
26608W        W27473   3.770   0.762  10.393
26609W        W27474   4.532   0.042  10.195
26610W        W27475   6.226   0.430   9.082
26611W        W27476   5.875   1.301   7.652
26612W        W27477   6.445   0.735  10.743
26613W        W27478   3.811   0.527   9.868
26614W        W27479   3.910   3.146  10.889
26615W        W27480   5.432   2.536   7.621
26616W        W27481   3.864   1.319   9.314
26617W        W27482   4.757   1.210  10.551
26618W        W27483   7.216   1.069   9.050
26619W        W27484   6.980   2.112   9.909
26620W        W27485   5.288   1.445   8.936
26621W        W27486   5.834   2.784   9.305
26622W        W27487   4.334   2.218   9.537
26623W        W27488   3.693   1.746   9.108
26624W        W27489   4.729   1.718  10.300
26625W        W27490   7.000   1.501  10.554
26626W        W27491   4.616   2.945   8.999
26627W        W27492   5.737   2.634  10.133
26628W        W27493   4.957   1.274   9.358
26629W        W27494   5.249   2.058   9.001
26630W        W27495   6.246   2.831  10.849
26631W        W27496   5.325   2.151  10.859
26632W        W27497   5.306   1.867  10.337
26633W        W27498   3.715   1.258  10.859
26634W        W27499   6.547   2.793  10.458
26635W        W27500   4.128   0.375   8.456
26636W        W27501   4.655   2.633   9.455
26637W        W27502   7.118   2.416   8.745
26638W        W27503   6.531   0.816   9.312
26639W        W27504   6.816   0.769   7.407
26640W        W27505   7.281   1.570   9.713
26641W        W27506   5.248   3.277   9.466
26642W        W27507   7.022   2.743   7.904
26643W        W27508   4.151   3.529   7.658
26644W        W27509   4.544   3.575   8.334
26645W        W27510   4.341   0.329   9.760
26646W        W27511   6.964   1.347  10.035
26647W        W27512   6.369   1.769   8.494
26648W        W27513   6.335   1.457   7.521
26649W        W27514   5.543   2.601   9.661
26650W        W27515   5.349   0.931   8.860
26651W        W27516   5.949   3.018   9.854
26652W        W27517   6.820   1.809   8.276
26653W        W27518   5.722   0.467   8.292
26654W        W27519   4.379   3.161   7.975
26655W        W27520   3.750   0.660   8.574
26656W        W27521   6.536   1.267   9.048
26657W        W27522   3.994   2.884   8.963
26658W        W27523   5.335   3.234   7.833
26659W        W27524   6.727   1.260   7.297
26660W        W27525   3.750   3.018   9.461
26661W        W27526   4.541   2.590   9.941
26662W        W27527   4.914   1.950   8.560
26663W        W27528   4.936   0.355   9.653
26664W        W27529   7.165   0.117   8.950
26665W        W27530   4.384   1.989   7.418
26666W        W27531   4.039   1.022   7.597
26667W        W27532   4.101   2.978   8.391
26668W        W27533   5.232   2.461   8.639
26669W        W27534   6.564   3.320  10.353
26670W        W27535   5.490   0.962   8.037
26671W        W27536   6.873   3.360   8.809
26672W        W27537   6.550   1.213  10.407
26673W        W27538   7.263   2.869   8.541
26674W        W27539   5.890   2.161  10.025
26675W        W27540   3.656   1.712   8.231
26676W        W27541   4.767   2.127   9.804
26677W        W27542   5.971   1.391   8.182
26678W        W27543   5.848   1.881   8.286
26679W        W27544   4.191   1.301   9.760
26680W        W27545   4.176   1.177  10.682
26681W        W27546   4.066   0.094   8.841
26682W        W27547   5.834   0.441   9.402
26683W        W27548   5.482   0.626  10.565
26684W        W27549   5.837   0.775   7.743
26685W        W27550   7.020   3.168  10.497
26686W        W27551   5.987   0.249  10.536
26687W        W27552   7.006   2.550  10.658
26688W        W27553   6.436   0.717  10.254
26689W        W27554   6.236   0.655   8.524
26690W        W27555   6.629   1.789  10.928
26691W        W27556   4.369   3.365   8.914
26692W        W27557   5.027   1.082   7.900
26693W        W27558   4.596   0.366  10.564
26694W        W27559   6.648   0.850   8.245
26695W        W27560   7.015   1.332   8.190
26696W        W27561   4.758   3.549  10.661
26697W        W27562   4.684   0.085   7.896
26698W        W27563   7.005   0.619   8.931
26699W        W27564   7.155   2.868   7.376
26700W        W27565   4.062   2.071   9.078
26701W        W27566   5.979   0.658   7.308
26702W        W27567   7.113   2.990   9.028
26703W        W27568   7.152   0.184   9.778
26704W        W27569   5.597   1.396  10.332
26705W        W27570   5.690   2.735   8.035
26706W        W27571   6.090   2.029  10.775
26707W        W27572   5.764   0.006   9.084
26708W        W27573   4.376   0.909   9.147
26709W        W27574   3.930   2.109   9.921
26710W        W27575   5.789   3.302   8.627
26711W        W27576   6.983   0.899   9.499
26712W        W27577   5.620   3.246  10.266
26713W        W27578   6.963   2.305   7.471
26714W        W27579   5.398   1.788   8.532
26715W        W27580   7.250   0.299  10.273
26716W        W27581   5.399   2.134   9.867
26717W        W27582   5.616   1.020   9.312
26718W        W27583   6.468   1.318   8.150
26719W        W27584   6.755   1.051   7.792
26720W        W27585   6.564   3.091   8.181
26721W        W27586   6.398   2.694   8.977
26722W        W27587   6.294   1.773   7.955
26723W        W27588   5.727   1.983   8.941
26724W        W27589   6.608   1.771   9.008
26725W        W27590   3.983   0.786   9.432
26726W        W27591   6.761   1.838  10.259
26727W        W27592   7.112   3.456   9.405
26728W        W27593   5.042   2.900   8.807
26729W        W27594   6.049   3.433  10.131
26730W        W27595   6.043   0.763   9.895
26731W        W27596   5.250   3.471   9.956
26732W        W27597   6.947   0.425   8.422
26733W        W27598   6.738   1.744   9.723
26734W        W27599   3.721   1.065   9.761
26735W        W27600   6.581   0.860   8.779
26736W        W27601   6.992   1.011  10.556
26737W        W27602   5.877   2.710   8.774
26738W        W27603   5.133   3.301   8.387
26739W        W27604   4.248   0.481   7.645
26740W        W27605   5.352   0.135   9.455
26741W        W27606   4.380   3.255   7.303
26742W        W27607   4.754   1.721   8.054
26743W        W27608   5.408   2.350  10.367
26744W        W27609   5.238   0.708   8.357
26745W        W27610   6.594   0.305   8.785
26746W        W27611   6.314   3.587   9.113
26747W        W27612   5.726   3.235   9.453
26748W        W27613   5.122   2.272   9.414
26749W        W27614   6.892   2.995   9.540
26750W        W27615   4.586   0.498   8.309
26751W        W27616   5.108   2.795   9.269
26752W        W27617   4.591   0.726   7.334
26753W        W27618   5.392   1.335   9.728
26754W        W27619   6.240   0.201   9.598
26755W        W27620   3.660   2.044   9.483
26756W        W27621   5.364   1.862   7.641
26757W        W27622   4.632   0.177   7.411
26758W        W27623   5.370   1.258   8.462
26759W        W27624   6.340   0.234  10.161
26760W        W27625   4.928   2.246  10.270
26761W        W27626   5.732   2.028  10.487
26762W        W27627   6.349   2.058  10.380
26763W        W27628   5.633   0.198  10.885
26764W        W27629   4.855   0.814   9.278
26765W        W27630   4.281   0.770   8.676
26766W        W27631   4.067   3.482   8.352
26767W        W27632   5.399   2.812  10.477
26768W        W27633   4.434   2.297   7.836
26769W        W27634   6.114   1.682   9.057
26770W        W27635   6.394   1.481   9.456
26771W        W27636   5.599   2.155   9.390
26772W        W27637   6.069   2.529   7.522
26773W        W27638   5.741   0.550   8.850
26774W        W27639   7.220   0.828   8.118
26775W        W27640   3.714   3.417  10.149
26776W        W27641   4.131   2.643   9.681
26777W        W27642   3.698   3.489   7.913
26778W        W27643   5.597   0.759   9.719
26779W        W27644   4.960   2.782   7.568
26780W        W27645   6.865   3.164   7.754
26781W        W27646   5.840   1.817   7.768
26782W        W27647   4.683   1.008   8.285
26783W        W27648   5.515   0.918   7.337
26784W        W27649   6.099   2.483  10.515
26785W        W27650   6.452   0.389   8.132
26786W        W27651   3.782   0.237   7.580
26787W        W27652   5.068   2.556   9.870
26788W        W27653   4.867   2.472   8.962
26789W        W27654   4.609   2.424   7.360
26790W        W27655   3.850   2.665   8.128
26791W        W27656   4.354   1.735  10.570
26792W        W27657   5.058   0.295  10.756
26793W        W27658   5.767   0.437  10.112
26794W        W27659   4.962   0.205   8.393
26795W        W27660   6.021   0.282   7.898
26796W        W27661   3.966   0.214   9.475
26797W        W27662   4.014   1.177   8.845
26798W        W27663   6.703   0.285   9.251
26799W        W27664   4.125   0.783   8.065
26800W        W27665   6.696   0.471   9.681
26801W        W27666   7.092   1.674   7.366
26802W        W27667   4.384   0.432   9.185
26803W        W27668   5.498   1.004  10.125
26804W        W27669   3.646   0.694   7.603
26805W        W27670   4.432   2.083  10.164
26806W        W27671   5.790   1.481   9.343
26807W        W27672   5.657   3.560   7.639
26808W        W27673   3.803   2.067   7.336
26809W        W27674   4.538   2.478  10.462
26810W        W27675   4.059   1.645  10.093
26811W        W27676   5.050   1.750   9.887
26812W        W27677   6.818   0.109  10.149
26813W        W27678   7.216   1.719  10.140
26814W        W27679   7.204   1.919   7.826
26815W        W27680   6.067   2.251   7.925
26816W        W27681   6.541   3.551   7.620
26817W        W27682   5.718   1.541  10.762
26818W        W27683   4.048   2.508  10.802
26819W        W27684   7.254   0.430  10.754
26820W        W27685   6.972   1.358   9.375
26821W        W27686   5.280   3.488  10.852
26822W        W27687   5.135   0.117   7.579
26823W        W27688   6.674   2.716   7.522
26824W        W27689   4.443   0.809  10.408
26825W        W27690   4.877   2.803  10.270
26826W        W27691   7.003   0.794  10.068
26827W        W27692   6.214   3.453   8.036
26828W        W27693   6.453   2.072   9.403
26829W        W27694   4.703   0.488  10.070
26830W        W27695   5.172   1.557  10.827
26831W        W27696   4.675   2.736   8.021
26832W        W27697   6.430   2.234   8.285
26833W        W27698   4.198   0.860  10.009
26834W        W27699   5.527   2.922   8.473
26835W        W27700   7.277   1.482   8.654
26836W        W27701   5.499   0.115  10.373
26837W        W27702   6.279   2.820   9.452
26838W        W27703   6.582   3.164   9.160
26839W        W27704   5.801   2.966   7.588
26840W        W27705   3.811   2.858  10.430
26841W        W27706   4.554   0.850   9.668
26842W        W27707   4.524   0.198   8.778
26843W        W27708   6.145   1.040   9.470
26844W        W27709   4.943   2.211   7.670
26845W        W27710   6.941   2.153   9.169
26846W        W27711   4.268   2.911  10.592
26847W        W27712   6.655   3.593   8.389
26848W        W27713   4.754   0.613   8.834
26849W        W27714   4.523   2.106   8.924
26850W        W27715   4.836   3.517   9.674
26851W        W27716   6.903   3.613  10.706
26852W        W27717   6.062   1.801   9.639
26853W        W27718   3.911   1.599   7.554
26854W        W27719   7.045   3.257   8.251
26855W        W27720   6.882   0.581   7.870
26856W        W27721   5.021   0.100  10.273
26857W        W27722   6.727   2.902   8.731
26858W        W27723   6.756   1.458   8.636
26859W        W27724   4.873   1.131   8.852
26860W        W27725   5.118   1.393  10.176
26861W        W27726   6.229   2.546  10.039
26862W        W27727   4.879   1.000  10.151
26863W        W27728   4.858   3.466   8.767
26864W        W27729   4.175   3.425  10.401
26865W        W27730   4.287   2.786   7.531
26866W        W27731   6.804   2.544   8.341
26867W        W27732   4.408   1.336  10.227
26868W        W27733   7.181   1.266   7.708
26869W        W27734   4.926   2.323   8.179
26870W        W27735   6.025   1.705  10.260
26871W        W27736   5.916   1.333   9.804
26872W        W27737   4.476   1.705   9.833
26873W        W27738   6.686   3.593   9.662
26874W        W27739   6.477   0.227  10.656
26875W        W27740   4.141   0.377  10.243
26876W        W27741   4.480   1.400   9.296
26877W        W27742   4.849   1.214   7.418
26878W        W27743   3.652   2.973   9.963
26879W        W27744   5.237   1.682   9.406
26880W        W27745   5.060   0.707   7.511
26881W        W27746   4.195   1.523   8.292
26882W        W27747   3.966   3.375   9.729
26883W        W27748   6.761   1.601   7.837
26884W        W27749   6.856   0.517  10.523
26885W        W27750   6.292   2.726   8.486
26886W        W27751   3.890   1.650  10.663
26887W        W27752   6.856   0.114   7.959
26888W        W27753   6.376   2.589   7.970
26889W        W27754   5.278   1.647   8.055
26890W        W27755   6.465   0.451   7.578
26891W        W27756   6.530   1.058   9.764
26892W        W27757   4.239   1.651   8.971
26893W        W27758   4.533   2.590   8.620
26894W        W27759   6.296   1.210   8.585
26895W        W27760   5.319   0.589   9.281
26896W        W27761   7.281   2.500   9.792
26897W        W27762   7.199   0.487   9.353
26898W        W27763   3.738   3.317   8.729
26899W        W27764   4.247   2.504   8.265
26900W        W27765   4.162   0.121  10.818
26901W        W27766   5.281   2.974  10.920
26902W        W27767   7.036   1.942   8.710
26903W        W27768   6.390   2.119   7.590
26904W        W27769   5.685   3.640   9.802
26905W        W27770   6.542   2.362  10.839
26906W        W27771   5.357   0.072   8.119
26907W        W27772   6.070   0.941   8.978
26908W        W27773   3.756   2.528   9.310
26909W        W27774   5.009   0.490   7.951
26910W        W27775   4.813   1.974  10.800
26911W        W27776   5.807   0.955   8.514
26912W        W27777   6.012   2.365   9.636
26913W        W27778   4.166   2.970  10.071
26914W        W27779   4.757   2.953  10.794
26915W        W27780   4.608   0.750   7.808
26916W        W27781   6.125   0.892   8.133
26917W        W27782   6.083   3.000  10.370
26918W        W27783   4.768   1.592   8.969
26919W        W27784   4.423   3.290   9.834
26920W        W27785   7.168   3.407   7.435
26921W        W27786   4.031   2.079  10.431
26922W        W27787   6.026   2.341   9.119
26923W        W27788   4.462   1.990   8.361
26924W        W27789   4.833   2.997   9.756
26925W        W27790   5.211   0.416   8.797
26926W        W27791   3.822   2.400   7.727
26927W        W27792   5.341   1.351   7.597
26928W        W27793   3.987   1.900   8.616
26929W        W27794   5.277   0.542  10.080
26930W        W27795   6.949   0.251   7.507
26931W        W27796   7.042   1.997  10.606
26932W        W27797   5.696   3.254  10.758
26933W        W27798   7.254   2.348  10.280
26934W        W27799   6.662   3.146  10.891
26935W        W27800   4.401   3.602   9.369
26936W        W27801   7.260   2.224   8.243
26937W        W27802   5.790   1.491   8.756
26938W        W27803   5.557   0.103   8.646
26939W        W27804   4.616   3.087   8.483
26940W        W27805   5.115   0.828   9.708
26941W        W27806   4.815   0.197   9.177
26942W        W27807   3.878   3.019   7.725
26943W        W27808   5.694   2.383   8.443
26944W        W27809   4.569   3.178  10.322
26945W        W27810   4.046   2.001   8.018
26946W        W27811   3.931   0.544   9.017
26947W        W27812   5.479   2.509   9.074
26948W        W27813   3.731   0.363   8.094
26949W        W27814   6.395   1.569  10.021
26950W        W27815   6.272   0.955   7.593
26951W        W27816   6.789   2.627   9.241
26952W        W27817   5.450   3.111   9.072
26953W        W27818   4.862   3.215   7.983
26954W        W27819   6.144   0.118   7.413
26955W        W27820   3.944   3.378   9.154
26956W        W27821   6.141   1.136  10.789
26957W        W27822   4.124   0.666  10.788
26958W        W27823   3.855   1.266   8.121
26959W        W27824   4.546   1.255   7.846
26960W        W27825   6.309   1.582  10.663
26961W        W27826   4.652   1.863   9.372
26962W        W27827   6.126   0.149   8.492
26963W        W27828   5.257   3.580   8.995
26964W        W27829   6.471   3.042   9.932
26965W        W27830   6.055   3.191   9.043
26966W        W27831   6.074   2.171   8.637
26967W        W27832   5.536   0.396   7.708
26968W        W27833   7.217   0.024   8.430
26969W        W27834   4.905   1.659   7.593
26970W        W27835   7.071   0.996   8.583
26971W        W27836   5.763   2.166   7.460
26972W        W27837   6.699   2.366  10.208
26973W        W27838   6.353   3.067   7.675
26974W        W27839   4.968   0.742  10.581
26975W        W27840   4.788   1.326   9.822
26976W        W27841   6.880   2.821  10.099
26977W        W27842   5.980   0.771  10.476
26978W        W27843   3.824   1.242  10.253
26979W        W27844   5.584   1.719   9.979
26980W        W27845   3.941   2.477   8.636
26981W        W27846   4.088   1.774   9.526
26982W        W27847   6.405   2.060   9.876
26983W        W27848   6.177   3.440  10.687
26984W        W27849   6.073   1.179  10.240
26985W        W27850   6.350   3.233   8.645
26986W        W27851   5.352   2.953   9.968
26987W        W27852   4.837   3.308   9.237
26988W        W27853   6.642   2.479   9.656
26989W        W27854   5.692   2.551  10.793
26990W        W27855   4.297   2.504   9.132
26991W        W27856   6.643   2.263   8.777
26992W        W27857   6.284   3.329   9.528
26993W        W27858   4.262   3.058   9.398
26994W        W27859   5.283   1.110  10.608
26995W        W27860   5.734   3.276   8.119
26996W        W27861   5.042   2.531  10.757
26997W        W27862   5.168   2.769   8.134
26998W        W27863   4.389   1.509   7.393
26999W        W27864   3.728   3.595  14.292
27000W        W27865   4.104   2.488  13.815
27001W        W27866   6.809   2.218  11.585
27002W        W27867   6.939   3.303  13.612
27003W        W27868   4.857   3.294  11.138
27004W        W27869   4.940   1.446  12.121
27005W        W27870   4.455   1.294  12.285
27006W        W27871   5.446   2.109  11.719
27007W        W27872   5.121   3.201  14.074
27008W        W27873   3.770   0.762  14.037
27009W        W27874   4.532   0.042  13.839
27010W        W27875   6.226   0.430  12.726
27011W        W27876   5.875   1.301  11.296
27012W        W27877   6.445   0.735  14.387
27013W        W27878   3.811   0.527  13.512
27014W        W27879   3.910   3.146  14.533
27015W        W27880   5.432   2.536  11.265
27016W        W27881   3.864   1.319  12.958
27017W        W27882   4.757   1.210  14.195
27018W        W27883   7.216   1.069  12.694
27019W        W27884   6.980   2.112  13.553
27020W        W27885   5.288   1.445  12.580
27021W        W27886   5.834   2.784  12.949
27022W        W27887   4.334   2.218  13.181
27023W        W27888   3.693   1.746  12.752
27024W        W27889   4.729   1.718  13.944
27025W        W27890   7.000   1.501  14.198
27026W        W27891   4.616   2.945  12.643
27027W        W27892   5.737   2.634  13.777
27028W        W27893   4.957   1.274  13.002
27029W        W27894   5.249   2.058  12.645
27030W        W27895   6.246   2.831  14.493
27031W        W27896   5.325   2.151  14.503
27032W        W27897   5.306   1.867  13.981
27033W        W27898   3.715   1.258  14.503
27034W        W27899   6.547   2.793  14.102
27035W        W27900   4.128   0.375  12.100
27036W        W27901   4.655   2.633  13.099
27037W        W27902   7.118   2.416  12.389
27038W        W27903   6.531   0.816  12.956
27039W        W27904   6.816   0.769  11.051
27040W        W27905   7.281   1.570  13.357
27041W        W27906   5.248   3.277  13.110
27042W        W27907   7.022   2.743  11.548
27043W        W27908   4.151   3.529  11.302
27044W        W27909   4.544   3.575  11.978
27045W        W27910   4.341   0.329  13.404
27046W        W27911   6.964   1.347  13.679
27047W        W27912   6.369   1.769  12.138
27048W        W27913   6.335   1.457  11.165
27049W        W27914   5.543   2.601  13.305
27050W        W27915   5.349   0.931  12.504
27051W        W27916   5.949   3.018  13.498
27052W        W27917   6.820   1.809  11.920
27053W        W27918   5.722   0.467  11.936
27054W        W27919   4.379   3.161  11.619
27055W        W27920   3.750   0.660  12.218
27056W        W27921   6.536   1.267  12.692
27057W        W27922   3.994   2.884  12.607
27058W        W27923   5.335   3.234  11.477
27059W        W27924   6.727   1.260  10.941
27060W        W27925   3.750   3.018  13.105
27061W        W27926   4.541   2.590  13.585
27062W        W27927   4.914   1.950  12.204
27063W        W27928   4.936   0.355  13.297
27064W        W27929   7.165   0.117  12.594
27065W        W27930   4.384   1.989  11.062
27066W        W27931   4.039   1.022  11.241
27067W        W27932   4.101   2.978  12.035
27068W        W27933   5.232   2.461  12.283
27069W        W27934   6.564   3.320  13.997
27070W        W27935   5.490   0.962  11.681
27071W        W27936   6.873   3.360  12.453
27072W        W27937   6.550   1.213  14.051
27073W        W27938   7.263   2.869  12.185
27074W        W27939   5.890   2.161  13.669
27075W        W27940   3.656   1.712  11.875
27076W        W27941   4.767   2.127  13.448
27077W        W27942   5.971   1.391  11.826
27078W        W27943   5.848   1.881  11.930
27079W        W27944   4.191   1.301  13.404
27080W        W27945   4.176   1.177  14.326
27081W        W27946   4.066   0.094  12.485
27082W        W27947   5.834   0.441  13.046
27083W        W27948   5.482   0.626  14.209
27084W        W27949   5.837   0.775  11.387
27085W        W27950   7.020   3.168  14.141
27086W        W27951   5.987   0.249  14.180
27087W        W27952   7.006   2.550  14.302
27088W        W27953   6.436   0.717  13.898
27089W        W27954   6.236   0.655  12.168
27090W        W27955   6.629   1.789  14.572
27091W        W27956   4.369   3.365  12.558
27092W        W27957   5.027   1.082  11.544
27093W        W27958   4.596   0.366  14.208
27094W        W27959   6.648   0.850  11.889
27095W        W27960   7.015   1.332  11.834
27096W        W27961   4.758   3.549  14.305
27097W        W27962   4.684   0.085  11.540
27098W        W27963   7.005   0.619  12.575
27099W        W27964   7.155   2.868  11.020
27100W        W27965   4.062   2.071  12.722
27101W        W27966   5.979   0.658  10.952
27102W        W27967   7.113   2.990  12.672
27103W        W27968   7.152   0.184  13.422
27104W        W27969   5.597   1.396  13.976
27105W        W27970   5.690   2.735  11.679
27106W        W27971   6.090   2.029  14.419
27107W        W27972   5.764   0.006  12.728
27108W        W27973   4.376   0.909  12.791
27109W        W27974   3.930   2.109  13.565
27110W        W27975   5.789   3.302  12.271
27111W        W27976   6.983   0.899  13.143
27112W        W27977   5.620   3.246  13.910
27113W        W27978   6.963   2.305  11.115
27114W        W27979   5.398   1.788  12.176
27115W        W27980   7.250   0.299  13.917
27116W        W27981   5.399   2.134  13.511
27117W        W27982   5.616   1.020  12.956
27118W        W27983   6.468   1.318  11.794
27119W        W27984   6.755   1.051  11.436
27120W        W27985   6.564   3.091  11.825
27121W        W27986   6.398   2.694  12.621
27122W        W27987   6.294   1.773  11.599
27123W        W27988   5.727   1.983  12.585
27124W        W27989   6.608   1.771  12.652
27125W        W27990   3.983   0.786  13.076
27126W        W27991   6.761   1.838  13.903
27127W        W27992   7.112   3.456  13.049
27128W        W27993   5.042   2.900  12.451
27129W        W27994   6.049   3.433  13.775
27130W        W27995   6.043   0.763  13.539
27131W        W27996   5.250   3.471  13.600
27132W        W27997   6.947   0.425  12.066
27133W        W27998   6.738   1.744  13.367
27134W        W27999   3.721   1.065  13.405
27135W        W28000   6.581   0.860  12.423
27136W        W28001   6.992   1.011  14.200
27137W        W28002   5.877   2.710  12.418
27138W        W28003   5.133   3.301  12.031
27139W        W28004   4.248   0.481  11.289
27140W        W28005   5.352   0.135  13.099
27141W        W28006   4.380   3.255  10.947
27142W        W28007   4.754   1.721  11.698
27143W        W28008   5.408   2.350  14.011
27144W        W28009   5.238   0.708  12.001
27145W        W28010   6.594   0.305  12.429
27146W        W28011   6.314   3.587  12.757
27147W        W28012   5.726   3.235  13.097
27148W        W28013   5.122   2.272  13.058
27149W        W28014   6.892   2.995  13.184
27150W        W28015   4.586   0.498  11.953
27151W        W28016   5.108   2.795  12.913
27152W        W28017   4.591   0.726  10.978
27153W        W28018   5.392   1.335  13.372
27154W        W28019   6.240   0.201  13.242
27155W        W28020   3.660   2.044  13.127
27156W        W28021   5.364   1.862  11.285
27157W        W28022   4.632   0.177  11.055
27158W        W28023   5.370   1.258  12.106
27159W        W28024   6.340   0.234  13.805
27160W        W28025   4.928   2.246  13.914
27161W        W28026   5.732   2.028  14.131
27162W        W28027   6.349   2.058  14.024
27163W        W28028   5.633   0.198  14.529
27164W        W28029   4.855   0.814  12.922
27165W        W28030   4.281   0.770  12.320
27166W        W28031   4.067   3.482  11.996
27167W        W28032   5.399   2.812  14.121
27168W        W28033   4.434   2.297  11.480
27169W        W28034   6.114   1.682  12.701
27170W        W28035   6.394   1.481  13.100
27171W        W28036   5.599   2.155  13.034
27172W        W28037   6.069   2.529  11.166
27173W        W28038   5.741   0.550  12.494
27174W        W28039   7.220   0.828  11.762
27175W        W28040   3.714   3.417  13.793
27176W        W28041   4.131   2.643  13.325
27177W        W28042   3.698   3.489  11.557
27178W        W28043   5.597   0.759  13.363
27179W        W28044   4.960   2.782  11.212
27180W        W28045   6.865   3.164  11.398
27181W        W28046   5.840   1.817  11.412
27182W        W28047   4.683   1.008  11.929
27183W        W28048   5.515   0.918  10.981
27184W        W28049   6.099   2.483  14.159
27185W        W28050   6.452   0.389  11.776
27186W        W28051   3.782   0.237  11.224
27187W        W28052   5.068   2.556  13.514
27188W        W28053   4.867   2.472  12.606
27189W        W28054   4.609   2.424  11.004
27190W        W28055   3.850   2.665  11.772
27191W        W28056   4.354   1.735  14.214
27192W        W28057   5.058   0.295  14.400
27193W        W28058   5.767   0.437  13.756
27194W        W28059   4.962   0.205  12.037
27195W        W28060   6.021   0.282  11.542
27196W        W28061   3.966   0.214  13.119
27197W        W28062   4.014   1.177  12.489
27198W        W28063   6.703   0.285  12.895
27199W        W28064   4.125   0.783  11.709
27200W        W28065   6.696   0.471  13.325
27201W        W28066   7.092   1.674  11.010
27202W        W28067   4.384   0.432  12.829
27203W        W28068   5.498   1.004  13.769
27204W        W28069   3.646   0.694  11.247
27205W        W28070   4.432   2.083  13.808
27206W        W28071   5.790   1.481  12.987
27207W        W28072   5.657   3.560  11.283
27208W        W28073   3.803   2.067  10.980
27209W        W28074   4.538   2.478  14.106
27210W        W28075   4.059   1.645  13.737
27211W        W28076   5.050   1.750  13.531
27212W        W28077   6.818   0.109  13.793
27213W        W28078   7.216   1.719  13.784
27214W        W28079   7.204   1.919  11.470
27215W        W28080   6.067   2.251  11.569
27216W        W28081   6.541   3.551  11.264
27217W        W28082   5.718   1.541  14.406
27218W        W28083   4.048   2.508  14.446
27219W        W28084   7.254   0.430  14.398
27220W        W28085   6.972   1.358  13.019
27221W        W28086   5.280   3.488  14.496
27222W        W28087   5.135   0.117  11.223
27223W        W28088   6.674   2.716  11.166
27224W        W28089   4.443   0.809  14.052
27225W        W28090   4.877   2.803  13.914
27226W        W28091   7.003   0.794  13.712
27227W        W28092   6.214   3.453  11.680
27228W        W28093   6.453   2.072  13.047
27229W        W28094   4.703   0.488  13.714
27230W        W28095   5.172   1.557  14.471
27231W        W28096   4.675   2.736  11.665
27232W        W28097   6.430   2.234  11.929
27233W        W28098   4.198   0.860  13.653
27234W        W28099   5.527   2.922  12.117
27235W        W28100   7.277   1.482  12.298
27236W        W28101   5.499   0.115  14.017
27237W        W28102   6.279   2.820  13.096
27238W        W28103   6.582   3.164  12.804
27239W        W28104   5.801   2.966  11.232
27240W        W28105   3.811   2.858  14.074
27241W        W28106   4.554   0.850  13.312
27242W        W28107   4.524   0.198  12.422
27243W        W28108   6.145   1.040  13.114
27244W        W28109   4.943   2.211  11.314
27245W        W28110   6.941   2.153  12.813
27246W        W28111   4.268   2.911  14.236
27247W        W28112   6.655   3.593  12.033
27248W        W28113   4.754   0.613  12.478
27249W        W28114   4.523   2.106  12.568
27250W        W28115   4.836   3.517  13.318
27251W        W28116   6.903   3.613  14.350
27252W        W28117   6.062   1.801  13.283
27253W        W28118   3.911   1.599  11.198
27254W        W28119   7.045   3.257  11.895
27255W        W28120   6.882   0.581  11.514
27256W        W28121   5.021   0.100  13.917
27257W        W28122   6.727   2.902  12.375
27258W        W28123   6.756   1.458  12.280
27259W        W28124   4.873   1.131  12.496
27260W        W28125   5.118   1.393  13.820
27261W        W28126   6.229   2.546  13.683
27262W        W28127   4.879   1.000  13.795
27263W        W28128   4.858   3.466  12.411
27264W        W28129   4.175   3.425  14.045
27265W        W28130   4.287   2.786  11.175
27266W        W28131   6.804   2.544  11.985
27267W        W28132   4.408   1.336  13.871
27268W        W28133   7.181   1.266  11.352
27269W        W28134   4.926   2.323  11.823
27270W        W28135   6.025   1.705  13.904
27271W        W28136   5.916   1.333  13.448
27272W        W28137   4.476   1.705  13.477
27273W        W28138   6.686   3.593  13.306
27274W        W28139   6.477   0.227  14.300
27275W        W28140   4.141   0.377  13.887
27276W        W28141   4.480   1.400  12.940
27277W        W28142   4.849   1.214  11.062
27278W        W28143   3.652   2.973  13.607
27279W        W28144   5.237   1.682  13.050
27280W        W28145   5.060   0.707  11.155
27281W        W28146   4.195   1.523  11.936
27282W        W28147   3.966   3.375  13.373
27283W        W28148   6.761   1.601  11.481
27284W        W28149   6.856   0.517  14.167
27285W        W28150   6.292   2.726  12.130
27286W        W28151   3.890   1.650  14.307
27287W        W28152   6.856   0.114  11.603
27288W        W28153   6.376   2.589  11.614
27289W        W28154   5.278   1.647  11.699
27290W        W28155   6.465   0.451  11.222
27291W        W28156   6.530   1.058  13.408
27292W        W28157   4.239   1.651  12.615
27293W        W28158   4.533   2.590  12.264
27294W        W28159   6.296   1.210  12.229
27295W        W28160   5.319   0.589  12.925
27296W        W28161   7.281   2.500  13.436
27297W        W28162   7.199   0.487  12.997
27298W        W28163   3.738   3.317  12.373
27299W        W28164   4.247   2.504  11.909
27300W        W28165   4.162   0.121  14.462
27301W        W28166   5.281   2.974  14.564
27302W        W28167   7.036   1.942  12.354
27303W        W28168   6.390   2.119  11.234
27304W        W28169   5.685   3.640  13.446
27305W        W28170   6.542   2.362  14.483
27306W        W28171   5.357   0.072  11.763
27307W        W28172   6.070   0.941  12.622
27308W        W28173   3.756   2.528  12.954
27309W        W28174   5.009   0.490  11.595
27310W        W28175   4.813   1.974  14.444
27311W        W28176   5.807   0.955  12.158
27312W        W28177   6.012   2.365  13.280
27313W        W28178   4.166   2.970  13.715
27314W        W28179   4.757   2.953  14.438
27315W        W28180   4.608   0.750  11.452
27316W        W28181   6.125   0.892  11.777
27317W        W28182   6.083   3.000  14.014
27318W        W28183   4.768   1.592  12.613
27319W        W28184   4.423   3.290  13.478
27320W        W28185   7.168   3.407  11.079
27321W        W28186   4.031   2.079  14.075
27322W        W28187   6.026   2.341  12.763
27323W        W28188   4.462   1.990  12.005
27324W        W28189   4.833   2.997  13.400
27325W        W28190   5.211   0.416  12.441
27326W        W28191   3.822   2.400  11.371
27327W        W28192   5.341   1.351  11.241
27328W        W28193   3.987   1.900  12.260
27329W        W28194   5.277   0.542  13.724
27330W        W28195   6.949   0.251  11.151
27331W        W28196   7.042   1.997  14.250
27332W        W28197   5.696   3.254  14.402
27333W        W28198   7.254   2.348  13.924
27334W        W28199   6.662   3.146  14.535
27335W        W28200   4.401   3.602  13.013
27336W        W28201   7.260   2.224  11.887
27337W        W28202   5.790   1.491  12.400
27338W        W28203   5.557   0.103  12.290
27339W        W28204   4.616   3.087  12.127
27340W        W28205   5.115   0.828  13.352
27341W        W28206   4.815   0.197  12.821
27342W        W28207   3.878   3.019  11.369
27343W        W28208   5.694   2.383  12.087
27344W        W28209   4.569   3.178  13.966
27345W        W28210   4.046   2.001  11.662
27346W        W28211   3.931   0.544  12.661
27347W        W28212   5.479   2.509  12.718
27348W        W28213   3.731   0.363  11.738
27349W        W28214   6.395   1.569  13.665
27350W        W28215   6.272   0.955  11.237
27351W        W28216   6.789   2.627  12.885
27352W        W28217   5.450   3.111  12.716
27353W        W28218   4.862   3.215  11.627
27354W        W28219   6.144   0.118  11.057
27355W        W28220   3.944   3.378  12.798
27356W        W28221   6.141   1.136  14.433
27357W        W28222   4.124   0.666  14.432
27358W        W28223   3.855   1.266  11.765
27359W        W28224   4.546   1.255  11.490
27360W        W28225   6.309   1.582  14.307
27361W        W28226   4.652   1.863  13.016
27362W        W28227   6.126   0.149  12.136
27363W        W28228   5.257   3.580  12.639
27364W        W28229   6.471   3.042  13.576
27365W        W28230   6.055   3.191  12.687
27366W        W28231   6.074   2.171  12.281
27367W        W28232   5.536   0.396  11.352
27368W        W28233   7.217   0.024  12.074
27369W        W28234   4.905   1.659  11.237
27370W        W28235   7.071   0.996  12.227
27371W        W28236   5.763   2.166  11.104
27372W        W28237   6.699   2.366  13.852
27373W        W28238   6.353   3.067  11.319
27374W        W28239   4.968   0.742  14.225
27375W        W28240   4.788   1.326  13.466
27376W        W28241   6.880   2.821  13.743
27377W        W28242   5.980   0.771  14.120
27378W        W28243   3.824   1.242  13.897
27379W        W28244   5.584   1.719  13.623
27380W        W28245   3.941   2.477  12.280
27381W        W28246   4.088   1.774  13.170
27382W        W28247   6.405   2.060  13.520
27383W        W28248   6.177   3.440  14.331
27384W        W28249   6.073   1.179  13.884
27385W        W28250   6.350   3.233  12.289
27386W        W28251   5.352   2.953  13.612
27387W        W28252   4.837   3.308  12.881
27388W        W28253   6.642   2.479  13.300
27389W        W28254   5.692   2.551  14.437
27390W        W28255   4.297   2.504  12.776
27391W        W28256   6.643   2.263  12.421
27392W        W28257   6.284   3.329  13.172
27393W        W28258   4.262   3.058  13.042
27394W        W28259   5.283   1.110  14.252
27395W        W28260   5.734   3.276  11.763
27396W        W28261   5.042   2.531  14.401
27397W        W28262   5.168   2.769  11.778
27398W        W28263   4.389   1.509  11.037
27399W        W28264   3.728   3.595  17.936
27400W        W28265   4.104   2.488  17.459
27401W        W28266   6.809   2.218  15.229
27402W        W28267   6.939   3.303  17.256
27403W        W28268   4.857   3.294  14.782
27404W        W28269   4.940   1.446  15.765
27405W        W28270   4.455   1.294  15.929
27406W        W28271   5.446   2.109  15.363
27407W        W28272   5.121   3.201  17.718
27408W        W28273   3.770   0.762  17.681
27409W        W28274   4.532   0.042  17.483
27410W        W28275   6.226   0.430  16.370
27411W        W28276   5.875   1.301  14.940
27412W        W28277   6.445   0.735  18.031
27413W        W28278   3.811   0.527  17.156
27414W        W28279   3.910   3.146  18.177
27415W        W28280   5.432   2.536  14.909
27416W        W28281   3.864   1.319  16.602
27417W        W28282   4.757   1.210  17.839
27418W        W28283   7.216   1.069  16.338
27419W        W28284   6.980   2.112  17.197
27420W        W28285   5.288   1.445  16.224
27421W        W28286   5.834   2.784  16.593
27422W        W28287   4.334   2.218  16.825
27423W        W28288   3.693   1.746  16.396
27424W        W28289   4.729   1.718  17.588
27425W        W28290   7.000   1.501  17.842
27426W        W28291   4.616   2.945  16.287
27427W        W28292   5.737   2.634  17.421
27428W        W28293   4.957   1.274  16.646
27429W        W28294   5.249   2.058  16.289
27430W        W28295   6.246   2.831  18.137
27431W        W28296   5.325   2.151  18.147
27432W        W28297   5.306   1.867  17.625
27433W        W28298   3.715   1.258  18.147
27434W        W28299   6.547   2.793  17.746
27435W        W28300   4.128   0.375  15.744
27436W        W28301   4.655   2.633  16.743
27437W        W28302   7.118   2.416  16.033
27438W        W28303   6.531   0.816  16.600
27439W        W28304   6.816   0.769  14.695
27440W        W28305   7.281   1.570  17.001
27441W        W28306   5.248   3.277  16.754
27442W        W28307   7.022   2.743  15.192
27443W        W28308   4.151   3.529  14.946
27444W        W28309   4.544   3.575  15.622
27445W        W28310   4.341   0.329  17.048
27446W        W28311   6.964   1.347  17.323
27447W        W28312   6.369   1.769  15.782
27448W        W28313   6.335   1.457  14.809
27449W        W28314   5.543   2.601  16.949
27450W        W28315   5.349   0.931  16.148
27451W        W28316   5.949   3.018  17.142
27452W        W28317   6.820   1.809  15.564
27453W        W28318   5.722   0.467  15.580
27454W        W28319   4.379   3.161  15.263
27455W        W28320   3.750   0.660  15.862
27456W        W28321   6.536   1.267  16.336
27457W        W28322   3.994   2.884  16.251
27458W        W28323   5.335   3.234  15.121
27459W        W28324   6.727   1.260  14.585
27460W        W28325   3.750   3.018  16.749
27461W        W28326   4.541   2.590  17.229
27462W        W28327   4.914   1.950  15.848
27463W        W28328   4.936   0.355  16.941
27464W        W28329   7.165   0.117  16.238
27465W        W28330   4.384   1.989  14.706
27466W        W28331   4.039   1.022  14.885
27467W        W28332   4.101   2.978  15.679
27468W        W28333   5.232   2.461  15.927
27469W        W28334   6.564   3.320  17.641
27470W        W28335   5.490   0.962  15.325
27471W        W28336   6.873   3.360  16.097
27472W        W28337   6.550   1.213  17.695
27473W        W28338   7.263   2.869  15.829
27474W        W28339   5.890   2.161  17.313
27475W        W28340   3.656   1.712  15.519
27476W        W28341   4.767   2.127  17.092
27477W        W28342   5.971   1.391  15.470
27478W        W28343   5.848   1.881  15.574
27479W        W28344   4.191   1.301  17.048
27480W        W28345   4.176   1.177  17.970
27481W        W28346   4.066   0.094  16.129
27482W        W28347   5.834   0.441  16.690
27483W        W28348   5.482   0.626  17.853
27484W        W28349   5.837   0.775  15.031
27485W        W28350   7.020   3.168  17.785
27486W        W28351   5.987   0.249  17.824
27487W        W28352   7.006   2.550  17.946
27488W        W28353   6.436   0.717  17.542
27489W        W28354   6.236   0.655  15.812
27490W        W28355   6.629   1.789  18.216
27491W        W28356   4.369   3.365  16.202
27492W        W28357   5.027   1.082  15.188
27493W        W28358   4.596   0.366  17.852
27494W        W28359   6.648   0.850  15.533
27495W        W28360   7.015   1.332  15.478
27496W        W28361   4.758   3.549  17.949
27497W        W28362   4.684   0.085  15.184
27498W        W28363   7.005   0.619  16.219
27499W        W28364   7.155   2.868  14.664
27500W        W28365   4.062   2.071  16.366
27501W        W28366   5.979   0.658  14.596
27502W        W28367   7.113   2.990  16.316
27503W        W28368   7.152   0.184  17.066
27504W        W28369   5.597   1.396  17.620
27505W        W28370   5.690   2.735  15.323
27506W        W28371   6.090   2.029  18.063
27507W        W28372   5.764   0.006  16.372
27508W        W28373   4.376   0.909  16.435
27509W        W28374   3.930   2.109  17.209
27510W        W28375   5.789   3.302  15.915
27511W        W28376   6.983   0.899  16.787
27512W        W28377   5.620   3.246  17.554
27513W        W28378   6.963   2.305  14.759
27514W        W28379   5.398   1.788  15.820
27515W        W28380   7.250   0.299  17.561
27516W        W28381   5.399   2.134  17.155
27517W        W28382   5.616   1.020  16.600
27518W        W28383   6.468   1.318  15.438
27519W        W28384   6.755   1.051  15.080
27520W        W28385   6.564   3.091  15.469
27521W        W28386   6.398   2.694  16.265
27522W        W28387   6.294   1.773  15.243
27523W        W28388   5.727   1.983  16.229
27524W        W28389   6.608   1.771  16.296
27525W        W28390   3.983   0.786  16.720
27526W        W28391   6.761   1.838  17.547
27527W        W28392   7.112   3.456  16.693
27528W        W28393   5.042   2.900  16.095
27529W        W28394   6.049   3.433  17.419
27530W        W28395   6.043   0.763  17.183
27531W        W28396   5.250   3.471  17.244
27532W        W28397   6.947   0.425  15.710
27533W        W28398   6.738   1.744  17.011
27534W        W28399   3.721   1.065  17.049
27535W        W28400   6.581   0.860  16.067
27536W        W28401   6.992   1.011  17.844
27537W        W28402   5.877   2.710  16.062
27538W        W28403   5.133   3.301  15.675
27539W        W28404   4.248   0.481  14.933
27540W        W28405   5.352   0.135  16.743
27541W        W28406   4.380   3.255  14.591
27542W        W28407   4.754   1.721  15.342
27543W        W28408   5.408   2.350  17.655
27544W        W28409   5.238   0.708  15.645
27545W        W28410   6.594   0.305  16.073
27546W        W28411   6.314   3.587  16.401
27547W        W28412   5.726   3.235  16.741
27548W        W28413   5.122   2.272  16.702
27549W        W28414   6.892   2.995  16.828
27550W        W28415   4.586   0.498  15.597
27551W        W28416   5.108   2.795  16.557
27552W        W28417   4.591   0.726  14.622
27553W        W28418   5.392   1.335  17.016
27554W        W28419   6.240   0.201  16.886
27555W        W28420   3.660   2.044  16.771
27556W        W28421   5.364   1.862  14.929
27557W        W28422   4.632   0.177  14.699
27558W        W28423   5.370   1.258  15.750
27559W        W28424   6.340   0.234  17.449
27560W        W28425   4.928   2.246  17.558
27561W        W28426   5.732   2.028  17.775
27562W        W28427   6.349   2.058  17.668
27563W        W28428   5.633   0.198  18.173
27564W        W28429   4.855   0.814  16.566
27565W        W28430   4.281   0.770  15.964
27566W        W28431   4.067   3.482  15.640
27567W        W28432   5.399   2.812  17.765
27568W        W28433   4.434   2.297  15.124
27569W        W28434   6.114   1.682  16.345
27570W        W28435   6.394   1.481  16.744
27571W        W28436   5.599   2.155  16.678
27572W        W28437   6.069   2.529  14.810
27573W        W28438   5.741   0.550  16.138
27574W        W28439   7.220   0.828  15.406
27575W        W28440   3.714   3.417  17.437
27576W        W28441   4.131   2.643  16.969
27577W        W28442   3.698   3.489  15.201
27578W        W28443   5.597   0.759  17.007
27579W        W28444   4.960   2.782  14.856
27580W        W28445   6.865   3.164  15.042
27581W        W28446   5.840   1.817  15.056
27582W        W28447   4.683   1.008  15.573
27583W        W28448   5.515   0.918  14.625
27584W        W28449   6.099   2.483  17.803
27585W        W28450   6.452   0.389  15.420
27586W        W28451   3.782   0.237  14.868
27587W        W28452   5.068   2.556  17.158
27588W        W28453   4.867   2.472  16.250
27589W        W28454   4.609   2.424  14.648
27590W        W28455   3.850   2.665  15.416
27591W        W28456   4.354   1.735  17.858
27592W        W28457   5.058   0.295  18.044
27593W        W28458   5.767   0.437  17.400
27594W        W28459   4.962   0.205  15.681
27595W        W28460   6.021   0.282  15.186
27596W        W28461   3.966   0.214  16.763
27597W        W28462   4.014   1.177  16.133
27598W        W28463   6.703   0.285  16.539
27599W        W28464   4.125   0.783  15.353
27600W        W28465   6.696   0.471  16.969
27601W        W28466   7.092   1.674  14.654
27602W        W28467   4.384   0.432  16.473
27603W        W28468   5.498   1.004  17.413
27604W        W28469   3.646   0.694  14.891
27605W        W28470   4.432   2.083  17.452
27606W        W28471   5.790   1.481  16.631
27607W        W28472   5.657   3.560  14.927
27608W        W28473   3.803   2.067  14.624
27609W        W28474   4.538   2.478  17.750
27610W        W28475   4.059   1.645  17.381
27611W        W28476   5.050   1.750  17.175
27612W        W28477   6.818   0.109  17.437
27613W        W28478   7.216   1.719  17.428
27614W        W28479   7.204   1.919  15.114
27615W        W28480   6.067   2.251  15.213
27616W        W28481   6.541   3.551  14.908
27617W        W28482   5.718   1.541  18.050
27618W        W28483   4.048   2.508  18.090
27619W        W28484   7.254   0.430  18.042
27620W        W28485   6.972   1.358  16.663
27621W        W28486   5.280   3.488  18.140
27622W        W28487   5.135   0.117  14.867
27623W        W28488   6.674   2.716  14.810
27624W        W28489   4.443   0.809  17.696
27625W        W28490   4.877   2.803  17.558
27626W        W28491   7.003   0.794  17.356
27627W        W28492   6.214   3.453  15.324
27628W        W28493   6.453   2.072  16.691
27629W        W28494   4.703   0.488  17.358
27630W        W28495   5.172   1.557  18.115
27631W        W28496   4.675   2.736  15.309
27632W        W28497   6.430   2.234  15.573
27633W        W28498   4.198   0.860  17.297
27634W        W28499   5.527   2.922  15.761
27635W        W28500   7.277   1.482  15.942
27636W        W28501   5.499   0.115  17.661
27637W        W28502   6.279   2.820  16.740
27638W        W28503   6.582   3.164  16.448
27639W        W28504   5.801   2.966  14.876
27640W        W28505   3.811   2.858  17.718
27641W        W28506   4.554   0.850  16.956
27642W        W28507   4.524   0.198  16.066
27643W        W28508   6.145   1.040  16.758
27644W        W28509   4.943   2.211  14.958
27645W        W28510   6.941   2.153  16.457
27646W        W28511   4.268   2.911  17.880
27647W        W28512   6.655   3.593  15.677
27648W        W28513   4.754   0.613  16.122
27649W        W28514   4.523   2.106  16.212
27650W        W28515   4.836   3.517  16.962
27651W        W28516   6.903   3.613  17.994
27652W        W28517   6.062   1.801  16.927
27653W        W28518   3.911   1.599  14.842
27654W        W28519   7.045   3.257  15.539
27655W        W28520   6.882   0.581  15.158
27656W        W28521   5.021   0.100  17.561
27657W        W28522   6.727   2.902  16.019
27658W        W28523   6.756   1.458  15.924
27659W        W28524   4.873   1.131  16.140
27660W        W28525   5.118   1.393  17.464
27661W        W28526   6.229   2.546  17.327
27662W        W28527   4.879   1.000  17.439
27663W        W28528   4.858   3.466  16.055
27664W        W28529   4.175   3.425  17.689
27665W        W28530   4.287   2.786  14.819
27666W        W28531   6.804   2.544  15.629
27667W        W28532   4.408   1.336  17.515
27668W        W28533   7.181   1.266  14.996
27669W        W28534   4.926   2.323  15.467
27670W        W28535   6.025   1.705  17.548
27671W        W28536   5.916   1.333  17.092
27672W        W28537   4.476   1.705  17.121
27673W        W28538   6.686   3.593  16.950
27674W        W28539   6.477   0.227  17.944
27675W        W28540   4.141   0.377  17.531
27676W        W28541   4.480   1.400  16.584
27677W        W28542   4.849   1.214  14.706
27678W        W28543   3.652   2.973  17.251
27679W        W28544   5.237   1.682  16.694
27680W        W28545   5.060   0.707  14.799
27681W        W28546   4.195   1.523  15.580
27682W        W28547   3.966   3.375  17.017
27683W        W28548   6.761   1.601  15.125
27684W        W28549   6.856   0.517  17.811
27685W        W28550   6.292   2.726  15.774
27686W        W28551   3.890   1.650  17.951
27687W        W28552   6.856   0.114  15.247
27688W        W28553   6.376   2.589  15.258
27689W        W28554   5.278   1.647  15.343
27690W        W28555   6.465   0.451  14.866
27691W        W28556   6.530   1.058  17.052
27692W        W28557   4.239   1.651  16.259
27693W        W28558   4.533   2.590  15.908
27694W        W28559   6.296   1.210  15.873
27695W        W28560   5.319   0.589  16.569
27696W        W28561   7.281   2.500  17.080
27697W        W28562   7.199   0.487  16.641
27698W        W28563   3.738   3.317  16.017
27699W        W28564   4.247   2.504  15.553
27700W        W28565   4.162   0.121  18.106
27701W        W28566   5.281   2.974  18.208
27702W        W28567   7.036   1.942  15.998
27703W        W28568   6.390   2.119  14.878
27704W        W28569   5.685   3.640  17.090
27705W        W28570   6.542   2.362  18.127
27706W        W28571   5.357   0.072  15.407
27707W        W28572   6.070   0.941  16.266
27708W        W28573   3.756   2.528  16.598
27709W        W28574   5.009   0.490  15.239
27710W        W28575   4.813   1.974  18.088
27711W        W28576   5.807   0.955  15.802
27712W        W28577   6.012   2.365  16.924
27713W        W28578   4.166   2.970  17.359
27714W        W28579   4.757   2.953  18.082
27715W        W28580   4.608   0.750  15.096
27716W        W28581   6.125   0.892  15.421
27717W        W28582   6.083   3.000  17.658
27718W        W28583   4.768   1.592  16.257
27719W        W28584   4.423   3.290  17.122
27720W        W28585   7.168   3.407  14.723
27721W        W28586   4.031   2.079  17.719
27722W        W28587   6.026   2.341  16.407
27723W        W28588   4.462   1.990  15.649
27724W        W28589   4.833   2.997  17.044
27725W        W28590   5.211   0.416  16.085
27726W        W28591   3.822   2.400  15.015
27727W        W28592   5.341   1.351  14.885
27728W        W28593   3.987   1.900  15.904
27729W        W28594   5.277   0.542  17.368
27730W        W28595   6.949   0.251  14.795
27731W        W28596   7.042   1.997  17.894
27732W        W28597   5.696   3.254  18.046
27733W        W28598   7.254   2.348  17.568
27734W        W28599   6.662   3.146  18.179
27735W        W28600   4.401   3.602  16.657
27736W        W28601   7.260   2.224  15.531
27737W        W28602   5.790   1.491  16.044
27738W        W28603   5.557   0.103  15.934
27739W        W28604   4.616   3.087  15.771
27740W        W28605   5.115   0.828  16.996
27741W        W28606   4.815   0.197  16.465
27742W        W28607   3.878   3.019  15.013
27743W        W28608   5.694   2.383  15.731
27744W        W28609   4.569   3.178  17.610
27745W        W28610   4.046   2.001  15.306
27746W        W28611   3.931   0.544  16.305
27747W        W28612   5.479   2.509  16.362
27748W        W28613   3.731   0.363  15.382
27749W        W28614   6.395   1.569  17.309
27750W        W28615   6.272   0.955  14.881
27751W        W28616   6.789   2.627  16.529
27752W        W28617   5.450   3.111  16.360
27753W        W28618   4.862   3.215  15.271
27754W        W28619   6.144   0.118  14.701
27755W        W28620   3.944   3.378  16.442
27756W        W28621   6.141   1.136  18.077
27757W        W28622   4.124   0.666  18.076
27758W        W28623   3.855   1.266  15.409
27759W        W28624   4.546   1.255  15.134
27760W        W28625   6.309   1.582  17.951
27761W        W28626   4.652   1.863  16.660
27762W        W28627   6.126   0.149  15.780
27763W        W28628   5.257   3.580  16.283
27764W        W28629   6.471   3.042  17.220
27765W        W28630   6.055   3.191  16.331
27766W        W28631   6.074   2.171  15.925
27767W        W28632   5.536   0.396  14.996
27768W        W28633   7.217   0.024  15.718
27769W        W28634   4.905   1.659  14.881
27770W        W28635   7.071   0.996  15.871
27771W        W28636   5.763   2.166  14.748
27772W        W28637   6.699   2.366  17.496
27773W        W28638   6.353   3.067  14.963
27774W        W28639   4.968   0.742  17.869
27775W        W28640   4.788   1.326  17.110
27776W        W28641   6.880   2.821  17.387
27777W        W28642   5.980   0.771  17.764
27778W        W28643   3.824   1.242  17.541
27779W        W28644   5.584   1.719  17.267
27780W        W28645   3.941   2.477  15.924
27781W        W28646   4.088   1.774  16.814
27782W        W28647   6.405   2.060  17.164
27783W        W28648   6.177   3.440  17.975
27784W        W28649   6.073   1.179  17.528
27785W        W28650   6.350   3.233  15.933
27786W        W28651   5.352   2.953  17.256
27787W        W28652   4.837   3.308  16.525
27788W        W28653   6.642   2.479  16.944
27789W        W28654   5.692   2.551  18.081
27790W        W28655   4.297   2.504  16.420
27791W        W28656   6.643   2.263  16.065
27792W        W28657   6.284   3.329  16.816
27793W        W28658   4.262   3.058  16.686
27794W        W28659   5.283   1.110  17.896
27795W        W28660   5.734   3.276  15.407
27796W        W28661   5.042   2.531  18.045
27797W        W28662   5.168   2.769  15.422
27798W        W28663   4.389   1.509  14.681
27799W        W28664   3.728   3.595  21.580
27800W        W28665   4.104   2.488  21.103
27801W        W28666   6.809   2.218  18.873
27802W        W28667   6.939   3.303  20.900
27803W        W28668   4.857   3.294  18.426
27804W        W28669   4.940   1.446  19.409
27805W        W28670   4.455   1.294  19.573
27806W        W28671   5.446   2.109  19.007
27807W        W28672   5.121   3.201  21.362
27808W        W28673   3.770   0.762  21.325
27809W        W28674   4.532   0.042  21.127
27810W        W28675   6.226   0.430  20.014
27811W        W28676   5.875   1.301  18.584
27812W        W28677   6.445   0.735  21.675
27813W        W28678   3.811   0.527  20.800
27814W        W28679   3.910   3.146  21.821
27815W        W28680   5.432   2.536  18.553
27816W        W28681   3.864   1.319  20.246
27817W        W28682   4.757   1.210  21.483
27818W        W28683   7.216   1.069  19.982
27819W        W28684   6.980   2.112  20.841
27820W        W28685   5.288   1.445  19.868
27821W        W28686   5.834   2.784  20.237
27822W        W28687   4.334   2.218  20.469
27823W        W28688   3.693   1.746  20.040
27824W        W28689   4.729   1.718  21.232
27825W        W28690   7.000   1.501  21.486
27826W        W28691   4.616   2.945  19.931
27827W        W28692   5.737   2.634  21.065
27828W        W28693   4.957   1.274  20.290
27829W        W28694   5.249   2.058  19.933
27830W        W28695   6.246   2.831  21.781
27831W        W28696   5.325   2.151  21.791
27832W        W28697   5.306   1.867  21.269
27833W        W28698   3.715   1.258  21.791
27834W        W28699   6.547   2.793  21.390
27835W        W28700   4.128   0.375  19.388
27836W        W28701   4.655   2.633  20.387
27837W        W28702   7.118   2.416  19.677
27838W        W28703   6.531   0.816  20.244
27839W        W28704   6.816   0.769  18.339
27840W        W28705   7.281   1.570  20.645
27841W        W28706   5.248   3.277  20.398
27842W        W28707   7.022   2.743  18.836
27843W        W28708   4.151   3.529  18.590
27844W        W28709   4.544   3.575  19.266
27845W        W28710   4.341   0.329  20.692
27846W        W28711   6.964   1.347  20.967
27847W        W28712   6.369   1.769  19.426
27848W        W28713   6.335   1.457  18.453
27849W        W28714   5.543   2.601  20.593
27850W        W28715   5.349   0.931  19.792
27851W        W28716   5.949   3.018  20.786
27852W        W28717   6.820   1.809  19.208
27853W        W28718   5.722   0.467  19.224
27854W        W28719   4.379   3.161  18.907
27855W        W28720   3.750   0.660  19.506
27856W        W28721   6.536   1.267  19.980
27857W        W28722   3.994   2.884  19.895
27858W        W28723   5.335   3.234  18.765
27859W        W28724   6.727   1.260  18.229
27860W        W28725   3.750   3.018  20.393
27861W        W28726   4.541   2.590  20.873
27862W        W28727   4.914   1.950  19.492
27863W        W28728   4.936   0.355  20.585
27864W        W28729   7.165   0.117  19.882
27865W        W28730   4.384   1.989  18.350
27866W        W28731   4.039   1.022  18.529
27867W        W28732   4.101   2.978  19.323
27868W        W28733   5.232   2.461  19.571
27869W        W28734   6.564   3.320  21.285
27870W        W28735   5.490   0.962  18.969
27871W        W28736   6.873   3.360  19.741
27872W        W28737   6.550   1.213  21.339
27873W        W28738   7.263   2.869  19.473
27874W        W28739   5.890   2.161  20.957
27875W        W28740   3.656   1.712  19.163
27876W        W28741   4.767   2.127  20.736
27877W        W28742   5.971   1.391  19.114
27878W        W28743   5.848   1.881  19.218
27879W        W28744   4.191   1.301  20.692
27880W        W28745   4.176   1.177  21.614
27881W        W28746   4.066   0.094  19.773
27882W        W28747   5.834   0.441  20.334
27883W        W28748   5.482   0.626  21.497
27884W        W28749   5.837   0.775  18.675
27885W        W28750   7.020   3.168  21.429
27886W        W28751   5.987   0.249  21.468
27887W        W28752   7.006   2.550  21.590
27888W        W28753   6.436   0.717  21.186
27889W        W28754   6.236   0.655  19.456
27890W        W28755   6.629   1.789  21.860
27891W        W28756   4.369   3.365  19.846
27892W        W28757   5.027   1.082  18.832
27893W        W28758   4.596   0.366  21.496
27894W        W28759   6.648   0.850  19.177
27895W        W28760   7.015   1.332  19.122
27896W        W28761   4.758   3.549  21.593
27897W        W28762   4.684   0.085  18.828
27898W        W28763   7.005   0.619  19.863
27899W        W28764   7.155   2.868  18.308
27900W        W28765   4.062   2.071  20.010
27901W        W28766   5.979   0.658  18.240
27902W        W28767   7.113   2.990  19.960
27903W        W28768   7.152   0.184  20.710
27904W        W28769   5.597   1.396  21.264
27905W        W28770   5.690   2.735  18.967
27906W        W28771   6.090   2.029  21.707
27907W        W28772   5.764   0.006  20.016
27908W        W28773   4.376   0.909  20.079
27909W        W28774   3.930   2.109  20.853
27910W        W28775   5.789   3.302  19.559
27911W        W28776   6.983   0.899  20.431
27912W        W28777   5.620   3.246  21.198
27913W        W28778   6.963   2.305  18.403
27914W        W28779   5.398   1.788  19.464
27915W        W28780   7.250   0.299  21.205
27916W        W28781   5.399   2.134  20.799
27917W        W28782   5.616   1.020  20.244
27918W        W28783   6.468   1.318  19.082
27919W        W28784   6.755   1.051  18.724
27920W        W28785   6.564   3.091  19.113
27921W        W28786   6.398   2.694  19.909
27922W        W28787   6.294   1.773  18.887
27923W        W28788   5.727   1.983  19.873
27924W        W28789   6.608   1.771  19.940
27925W        W28790   3.983   0.786  20.364
27926W        W28791   6.761   1.838  21.191
27927W        W28792   7.112   3.456  20.337
27928W        W28793   5.042   2.900  19.739
27929W        W28794   6.049   3.433  21.063
27930W        W28795   6.043   0.763  20.827
27931W        W28796   5.250   3.471  20.888
27932W        W28797   6.947   0.425  19.354
27933W        W28798   6.738   1.744  20.655
27934W        W28799   3.721   1.065  20.693
27935W        W28800   6.581   0.860  19.711
27936W        W28801   6.992   1.011  21.488
27937W        W28802   5.877   2.710  19.706
27938W        W28803   5.133   3.301  19.319
27939W        W28804   4.248   0.481  18.577
27940W        W28805   5.352   0.135  20.387
27941W        W28806   4.380   3.255  18.235
27942W        W28807   4.754   1.721  18.986
27943W        W28808   5.408   2.350  21.299
27944W        W28809   5.238   0.708  19.289
27945W        W28810   6.594   0.305  19.717
27946W        W28811   6.314   3.587  20.045
27947W        W28812   5.726   3.235  20.385
27948W        W28813   5.122   2.272  20.346
27949W        W28814   6.892   2.995  20.472
27950W        W28815   4.586   0.498  19.241
27951W        W28816   5.108   2.795  20.201
27952W        W28817   4.591   0.726  18.266
27953W        W28818   5.392   1.335  20.660
27954W        W28819   6.240   0.201  20.530
27955W        W28820   3.660   2.044  20.415
27956W        W28821   5.364   1.862  18.573
27957W        W28822   4.632   0.177  18.343
27958W        W28823   5.370   1.258  19.394
27959W        W28824   6.340   0.234  21.093
27960W        W28825   4.928   2.246  21.202
27961W        W28826   5.732   2.028  21.419
27962W        W28827   6.349   2.058  21.312
27963W        W28828   5.633   0.198  21.817
27964W        W28829   4.855   0.814  20.210
27965W        W28830   4.281   0.770  19.608
27966W        W28831   4.067   3.482  19.284
27967W        W28832   5.399   2.812  21.409
27968W        W28833   4.434   2.297  18.768
27969W        W28834   6.114   1.682  19.989
27970W        W28835   6.394   1.481  20.388
27971W        W28836   5.599   2.155  20.322
27972W        W28837   6.069   2.529  18.454
27973W        W28838   5.741   0.550  19.782
27974W        W28839   7.220   0.828  19.050
27975W        W28840   3.714   3.417  21.081
27976W        W28841   4.131   2.643  20.613
27977W        W28842   3.698   3.489  18.845
27978W        W28843   5.597   0.759  20.651
27979W        W28844   4.960   2.782  18.500
27980W        W28845   6.865   3.164  18.686
27981W        W28846   5.840   1.817  18.700
27982W        W28847   4.683   1.008  19.217
27983W        W28848   5.515   0.918  18.269
27984W        W28849   6.099   2.483  21.447
27985W        W28850   6.452   0.389  19.064
27986W        W28851   3.782   0.237  18.512
27987W        W28852   5.068   2.556  20.802
27988W        W28853   4.867   2.472  19.894
27989W        W28854   4.609   2.424  18.292
27990W        W28855   3.850   2.665  19.060
27991W        W28856   4.354   1.735  21.502
27992W        W28857   5.058   0.295  21.688
27993W        W28858   5.767   0.437  21.044
27994W        W28859   4.962   0.205  19.325
27995W        W28860   6.021   0.282  18.830
27996W        W28861   3.966   0.214  20.407
27997W        W28862   4.014   1.177  19.777
27998W        W28863   6.703   0.285  20.183
27999W        W28864   4.125   0.783  18.997
28000W        W28865   6.696   0.471  20.613
28001W        W28866   7.092   1.674  18.298
28002W        W28867   4.384   0.432  20.117
28003W        W28868   5.498   1.004  21.057
28004W        W28869   3.646   0.694  18.535
28005W        W28870   4.432   2.083  21.096
28006W        W28871   5.790   1.481  20.275
28007W        W28872   5.657   3.560  18.571
28008W        W28873   3.803   2.067  18.268
28009W        W28874   4.538   2.478  21.394
28010W        W28875   4.059   1.645  21.025
28011W        W28876   5.050   1.750  20.819
28012W        W28877   6.818   0.109  21.081
28013W        W28878   7.216   1.719  21.072
28014W        W28879   7.204   1.919  18.758
28015W        W28880   6.067   2.251  18.857
28016W        W28881   6.541   3.551  18.552
28017W        W28882   5.718   1.541  21.694
28018W        W28883   4.048   2.508  21.734
28019W        W28884   7.254   0.430  21.686
28020W        W28885   6.972   1.358  20.307
28021W        W28886   5.280   3.488  21.784
28022W        W28887   5.135   0.117  18.511
28023W        W28888   6.674   2.716  18.454
28024W        W28889   4.443   0.809  21.340
28025W        W28890   4.877   2.803  21.202
28026W        W28891   7.003   0.794  21.000
28027W        W28892   6.214   3.453  18.968
28028W        W28893   6.453   2.072  20.335
28029W        W28894   4.703   0.488  21.002
28030W        W28895   5.172   1.557  21.759
28031W        W28896   4.675   2.736  18.953
28032W        W28897   6.430   2.234  19.217
28033W        W28898   4.198   0.860  20.941
28034W        W28899   5.527   2.922  19.405
28035W        W28900   7.277   1.482  19.586
28036W        W28901   5.499   0.115  21.305
28037W        W28902   6.279   2.820  20.384
28038W        W28903   6.582   3.164  20.092
28039W        W28904   5.801   2.966  18.520
28040W        W28905   3.811   2.858  21.362
28041W        W28906   4.554   0.850  20.600
28042W        W28907   4.524   0.198  19.710
28043W        W28908   6.145   1.040  20.402
28044W        W28909   4.943   2.211  18.602
28045W        W28910   6.941   2.153  20.101
28046W        W28911   4.268   2.911  21.524
28047W        W28912   6.655   3.593  19.321
28048W        W28913   4.754   0.613  19.766
28049W        W28914   4.523   2.106  19.856
28050W        W28915   4.836   3.517  20.606
28051W        W28916   6.903   3.613  21.638
28052W        W28917   6.062   1.801  20.571
28053W        W28918   3.911   1.599  18.486
28054W        W28919   7.045   3.257  19.183
28055W        W28920   6.882   0.581  18.802
28056W        W28921   5.021   0.100  21.205
28057W        W28922   6.727   2.902  19.663
28058W        W28923   6.756   1.458  19.568
28059W        W28924   4.873   1.131  19.784
28060W        W28925   5.118   1.393  21.108
28061W        W28926   6.229   2.546  20.971
28062W        W28927   4.879   1.000  21.083
28063W        W28928   4.858   3.466  19.699
28064W        W28929   4.175   3.425  21.333
28065W        W28930   4.287   2.786  18.463
28066W        W28931   6.804   2.544  19.273
28067W        W28932   4.408   1.336  21.159
28068W        W28933   7.181   1.266  18.640
28069W        W28934   4.926   2.323  19.111
28070W        W28935   6.025   1.705  21.192
28071W        W28936   5.916   1.333  20.736
28072W        W28937   4.476   1.705  20.765
28073W        W28938   6.686   3.593  20.594
28074W        W28939   6.477   0.227  21.588
28075W        W28940   4.141   0.377  21.175
28076W        W28941   4.480   1.400  20.228
28077W        W28942   4.849   1.214  18.350
28078W        W28943   3.652   2.973  20.895
28079W        W28944   5.237   1.682  20.338
28080W        W28945   5.060   0.707  18.443
28081W        W28946   4.195   1.523  19.224
28082W        W28947   3.966   3.375  20.661
28083W        W28948   6.761   1.601  18.769
28084W        W28949   6.856   0.517  21.455
28085W        W28950   6.292   2.726  19.418
28086W        W28951   3.890   1.650  21.595
28087W        W28952   6.856   0.114  18.891
28088W        W28953   6.376   2.589  18.902
28089W        W28954   5.278   1.647  18.987
28090W        W28955   6.465   0.451  18.510
28091W        W28956   6.530   1.058  20.696
28092W        W28957   4.239   1.651  19.903
28093W        W28958   4.533   2.590  19.552
28094W        W28959   6.296   1.210  19.517
28095W        W28960   5.319   0.589  20.213
28096W        W28961   7.281   2.500  20.724
28097W        W28962   7.199   0.487  20.285
28098W        W28963   3.738   3.317  19.661
28099W        W28964   4.247   2.504  19.197
28100W        W28965   4.162   0.121  21.750
28101W        W28966   5.281   2.974  21.852
28102W        W28967   7.036   1.942  19.642
28103W        W28968   6.390   2.119  18.522
28104W        W28969   5.685   3.640  20.734
28105W        W28970   6.542   2.362  21.771
28106W        W28971   5.357   0.072  19.051
28107W        W28972   6.070   0.941  19.910
28108W        W28973   3.756   2.528  20.242
28109W        W28974   5.009   0.490  18.883
28110W        W28975   4.813   1.974  21.732
28111W        W28976   5.807   0.955  19.446
28112W        W28977   6.012   2.365  20.568
28113W        W28978   4.166   2.970  21.003
28114W        W28979   4.757   2.953  21.726
28115W        W28980   4.608   0.750  18.740
28116W        W28981   6.125   0.892  19.065
28117W        W28982   6.083   3.000  21.302
28118W        W28983   4.768   1.592  19.901
28119W        W28984   4.423   3.290  20.766
28120W        W28985   7.168   3.407  18.367
28121W        W28986   4.031   2.079  21.363
28122W        W28987   6.026   2.341  20.051
28123W        W28988   4.462   1.990  19.293
28124W        W28989   4.833   2.997  20.688
28125W        W28990   5.211   0.416  19.729
28126W        W28991   3.822   2.400  18.659
28127W        W28992   5.341   1.351  18.529
28128W        W28993   3.987   1.900  19.548
28129W        W28994   5.277   0.542  21.012
28130W        W28995   6.949   0.251  18.439
28131W        W28996   7.042   1.997  21.538
28132W        W28997   5.696   3.254  21.690
28133W        W28998   7.254   2.348  21.212
28134W        W28999   6.662   3.146  21.823
28135W        W29000   4.401   3.602  20.301
28136W        W29001   7.260   2.224  19.175
28137W        W29002   5.790   1.491  19.688
28138W        W29003   5.557   0.103  19.578
28139W        W29004   4.616   3.087  19.415
28140W        W29005   5.115   0.828  20.640
28141W        W29006   4.815   0.197  20.109
28142W        W29007   3.878   3.019  18.657
28143W        W29008   5.694   2.383  19.375
28144W        W29009   4.569   3.178  21.254
28145W        W29010   4.046   2.001  18.950
28146W        W29011   3.931   0.544  19.949
28147W        W29012   5.479   2.509  20.006
28148W        W29013   3.731   0.363  19.026
28149W        W29014   6.395   1.569  20.953
28150W        W29015   6.272   0.955  18.525
28151W        W29016   6.789   2.627  20.173
28152W        W29017   5.450   3.111  20.004
28153W        W29018   4.862   3.215  18.915
28154W        W29019   6.144   0.118  18.345
28155W        W29020   3.944   3.378  20.086
28156W        W29021   6.141   1.136  21.721
28157W        W29022   4.124   0.666  21.720
28158W        W29023   3.855   1.266  19.053
28159W        W29024   4.546   1.255  18.778
28160W        W29025   6.309   1.582  21.595
28161W        W29026   4.652   1.863  20.304
28162W        W29027   6.126   0.149  19.424
28163W        W29028   5.257   3.580  19.927
28164W        W29029   6.471   3.042  20.864
28165W        W29030   6.055   3.191  19.975
28166W        W29031   6.074   2.171  19.569
28167W        W29032   5.536   0.396  18.640
28168W        W29033   7.217   0.024  19.362
28169W        W29034   4.905   1.659  18.525
28170W        W29035   7.071   0.996  19.515
28171W        W29036   5.763   2.166  18.392
28172W        W29037   6.699   2.366  21.140
28173W        W29038   6.353   3.067  18.607
28174W        W29039   4.968   0.742  21.513
28175W        W29040   4.788   1.326  20.754
28176W        W29041   6.880   2.821  21.031
28177W        W29042   5.980   0.771  21.408
28178W        W29043   3.824   1.242  21.185
28179W        W29044   5.584   1.719  20.911
28180W        W29045   3.941   2.477  19.568
28181W        W29046   4.088   1.774  20.458
28182W        W29047   6.405   2.060  20.808
28183W        W29048   6.177   3.440  21.619
28184W        W29049   6.073   1.179  21.172
28185W        W29050   6.350   3.233  19.577
28186W        W29051   5.352   2.953  20.900
28187W        W29052   4.837   3.308  20.169
28188W        W29053   6.642   2.479  20.588
28189W        W29054   5.692   2.551  21.725
28190W        W29055   4.297   2.504  20.064
28191W        W29056   6.643   2.263  19.709
28192W        W29057   6.284   3.329  20.460
28193W        W29058   4.262   3.058  20.330
28194W        W29059   5.283   1.110  21.540
28195W        W29060   5.734   3.276  19.051
28196W        W29061   5.042   2.531  21.689
28197W        W29062   5.168   2.769  19.066
28198W        W29063   4.389   1.509  18.325
28199W        W29064   3.728   3.595  25.225
28200W        W29065   4.104   2.488  24.748
28201W        W29066   6.809   2.218  22.518
28202W        W29067   6.939   3.303  24.545
28203W        W29068   4.857   3.294  22.071
28204W        W29069   4.940   1.446  23.054
28205W        W29070   4.455   1.294  23.218
28206W        W29071   5.446   2.109  22.652
28207W        W29072   5.121   3.201  25.007
28208W        W29073   3.770   0.762  24.970
28209W        W29074   4.532   0.042  24.772
28210W        W29075   6.226   0.430  23.659
28211W        W29076   5.875   1.301  22.229
28212W        W29077   6.445   0.735  25.320
28213W        W29078   3.811   0.527  24.445
28214W        W29079   3.910   3.146  25.466
28215W        W29080   5.432   2.536  22.198
28216W        W29081   3.864   1.319  23.891
28217W        W29082   4.757   1.210  25.128
28218W        W29083   7.216   1.069  23.627
28219W        W29084   6.980   2.112  24.486
28220W        W29085   5.288   1.445  23.513
28221W        W29086   5.834   2.784  23.882
28222W        W29087   4.334   2.218  24.114
28223W        W29088   3.693   1.746  23.685
28224W        W29089   4.729   1.718  24.877
28225W        W29090   7.000   1.501  25.131
28226W        W29091   4.616   2.945  23.576
28227W        W29092   5.737   2.634  24.710
28228W        W29093   4.957   1.274  23.935
28229W        W29094   5.249   2.058  23.578
28230W        W29095   6.246   2.831  25.426
28231W        W29096   5.325   2.151  25.436
28232W        W29097   5.306   1.867  24.914
28233W        W29098   3.715   1.258  25.436
28234W        W29099   6.547   2.793  25.035
28235W        W29100   4.128   0.375  23.033
28236W        W29101   4.655   2.633  24.032
28237W        W29102   7.118   2.416  23.322
28238W        W29103   6.531   0.816  23.889
28239W        W29104   6.816   0.769  21.984
28240W        W29105   7.281   1.570  24.290
28241W        W29106   5.248   3.277  24.043
28242W        W29107   7.022   2.743  22.481
28243W        W29108   4.151   3.529  22.235
28244W        W29109   4.544   3.575  22.911
28245W        W29110   4.341   0.329  24.337
28246W        W29111   6.964   1.347  24.612
28247W        W29112   6.369   1.769  23.071
28248W        W29113   6.335   1.457  22.098
28249W        W29114   5.543   2.601  24.238
28250W        W29115   5.349   0.931  23.437
28251W        W29116   5.949   3.018  24.431
28252W        W29117   6.820   1.809  22.853
28253W        W29118   5.722   0.467  22.869
28254W        W29119   4.379   3.161  22.552
28255W        W29120   3.750   0.660  23.151
28256W        W29121   6.536   1.267  23.625
28257W        W29122   3.994   2.884  23.540
28258W        W29123   5.335   3.234  22.410
28259W        W29124   6.727   1.260  21.874
28260W        W29125   3.750   3.018  24.038
28261W        W29126   4.541   2.590  24.518
28262W        W29127   4.914   1.950  23.137
28263W        W29128   4.936   0.355  24.230
28264W        W29129   7.165   0.117  23.527
28265W        W29130   4.384   1.989  21.995
28266W        W29131   4.039   1.022  22.174
28267W        W29132   4.101   2.978  22.968
28268W        W29133   5.232   2.461  23.216
28269W        W29134   6.564   3.320  24.930
28270W        W29135   5.490   0.962  22.614
28271W        W29136   6.873   3.360  23.386
28272W        W29137   6.550   1.213  24.984
28273W        W29138   7.263   2.869  23.118
28274W        W29139   5.890   2.161  24.602
28275W        W29140   3.656   1.712  22.808
28276W        W29141   4.767   2.127  24.381
28277W        W29142   5.971   1.391  22.759
28278W        W29143   5.848   1.881  22.863
28279W        W29144   4.191   1.301  24.337
28280W        W29145   4.176   1.177  25.259
28281W        W29146   4.066   0.094  23.418
28282W        W29147   5.834   0.441  23.979
28283W        W29148   5.482   0.626  25.142
28284W        W29149   5.837   0.775  22.320
28285W        W29150   7.020   3.168  25.074
28286W        W29151   5.987   0.249  25.113
28287W        W29152   7.006   2.550  25.235
28288W        W29153   6.436   0.717  24.831
28289W        W29154   6.236   0.655  23.101
28290W        W29155   6.629   1.789  25.505
28291W        W29156   4.369   3.365  23.491
28292W        W29157   5.027   1.082  22.477
28293W        W29158   4.596   0.366  25.141
28294W        W29159   6.648   0.850  22.822
28295W        W29160   7.015   1.332  22.767
28296W        W29161   4.758   3.549  25.238
28297W        W29162   4.684   0.085  22.473
28298W        W29163   7.005   0.619  23.508
28299W        W29164   7.155   2.868  21.953
28300W        W29165   4.062   2.071  23.655
28301W        W29166   5.979   0.658  21.885
28302W        W29167   7.113   2.990  23.605
28303W        W29168   7.152   0.184  24.355
28304W        W29169   5.597   1.396  24.909
28305W        W29170   5.690   2.735  22.612
28306W        W29171   6.090   2.029  25.352
28307W        W29172   5.764   0.006  23.661
28308W        W29173   4.376   0.909  23.724
28309W        W29174   3.930   2.109  24.498
28310W        W29175   5.789   3.302  23.204
28311W        W29176   6.983   0.899  24.076
28312W        W29177   5.620   3.246  24.843
28313W        W29178   6.963   2.305  22.048
28314W        W29179   5.398   1.788  23.109
28315W        W29180   7.250   0.299  24.850
28316W        W29181   5.399   2.134  24.444
28317W        W29182   5.616   1.020  23.889
28318W        W29183   6.468   1.318  22.727
28319W        W29184   6.755   1.051  22.369
28320W        W29185   6.564   3.091  22.758
28321W        W29186   6.398   2.694  23.554
28322W        W29187   6.294   1.773  22.532
28323W        W29188   5.727   1.983  23.518
28324W        W29189   6.608   1.771  23.585
28325W        W29190   3.983   0.786  24.009
28326W        W29191   6.761   1.838  24.836
28327W        W29192   7.112   3.456  23.982
28328W        W29193   5.042   2.900  23.384
28329W        W29194   6.049   3.433  24.708
28330W        W29195   6.043   0.763  24.472
28331W        W29196   5.250   3.471  24.533
28332W        W29197   6.947   0.425  22.999
28333W        W29198   6.738   1.744  24.300
28334W        W29199   3.721   1.065  24.338
28335W        W29200   6.581   0.860  23.356
28336W        W29201   6.992   1.011  25.133
28337W        W29202   5.877   2.710  23.351
28338W        W29203   5.133   3.301  22.964
28339W        W29204   4.248   0.481  22.222
28340W        W29205   5.352   0.135  24.032
28341W        W29206   4.380   3.255  21.880
28342W        W29207   4.754   1.721  22.631
28343W        W29208   5.408   2.350  24.944
28344W        W29209   5.238   0.708  22.934
28345W        W29210   6.594   0.305  23.362
28346W        W29211   6.314   3.587  23.690
28347W        W29212   5.726   3.235  24.030
28348W        W29213   5.122   2.272  23.991
28349W        W29214   6.892   2.995  24.117
28350W        W29215   4.586   0.498  22.886
28351W        W29216   5.108   2.795  23.846
28352W        W29217   4.591   0.726  21.911
28353W        W29218   5.392   1.335  24.305
28354W        W29219   6.240   0.201  24.175
28355W        W29220   3.660   2.044  24.060
28356W        W29221   5.364   1.862  22.218
28357W        W29222   4.632   0.177  21.988
28358W        W29223   5.370   1.258  23.039
28359W        W29224   6.340   0.234  24.738
28360W        W29225   4.928   2.246  24.847
28361W        W29226   5.732   2.028  25.064
28362W        W29227   6.349   2.058  24.957
28363W        W29228   5.633   0.198  25.462
28364W        W29229   4.855   0.814  23.855
28365W        W29230   4.281   0.770  23.253
28366W        W29231   4.067   3.482  22.929
28367W        W29232   5.399   2.812  25.054
28368W        W29233   4.434   2.297  22.413
28369W        W29234   6.114   1.682  23.634
28370W        W29235   6.394   1.481  24.033
28371W        W29236   5.599   2.155  23.967
28372W        W29237   6.069   2.529  22.099
28373W        W29238   5.741   0.550  23.427
28374W        W29239   7.220   0.828  22.695
28375W        W29240   3.714   3.417  24.726
28376W        W29241   4.131   2.643  24.258
28377W        W29242   3.698   3.489  22.490
28378W        W29243   5.597   0.759  24.296
28379W        W29244   4.960   2.782  22.145
28380W        W29245   6.865   3.164  22.331
28381W        W29246   5.840   1.817  22.345
28382W        W29247   4.683   1.008  22.862
28383W        W29248   5.515   0.918  21.914
28384W        W29249   6.099   2.483  25.092
28385W        W29250   6.452   0.389  22.709
28386W        W29251   3.782   0.237  22.157
28387W        W29252   5.068   2.556  24.447
28388W        W29253   4.867   2.472  23.539
28389W        W29254   4.609   2.424  21.937
28390W        W29255   3.850   2.665  22.705
28391W        W29256   4.354   1.735  25.147
28392W        W29257   5.058   0.295  25.333
28393W        W29258   5.767   0.437  24.689
28394W        W29259   4.962   0.205  22.970
28395W        W29260   6.021   0.282  22.475
28396W        W29261   3.966   0.214  24.052
28397W        W29262   4.014   1.177  23.422
28398W        W29263   6.703   0.285  23.828
28399W        W29264   4.125   0.783  22.642
28400W        W29265   6.696   0.471  24.258
28401W        W29266   7.092   1.674  21.943
28402W        W29267   4.384   0.432  23.762
28403W        W29268   5.498   1.004  24.702
28404W        W29269   3.646   0.694  22.180
28405W        W29270   4.432   2.083  24.741
28406W        W29271   5.790   1.481  23.920
28407W        W29272   5.657   3.560  22.216
28408W        W29273   3.803   2.067  21.913
28409W        W29274   4.538   2.478  25.039
28410W        W29275   4.059   1.645  24.670
28411W        W29276   5.050   1.750  24.464
28412W        W29277   6.818   0.109  24.726
28413W        W29278   7.216   1.719  24.717
28414W        W29279   7.204   1.919  22.403
28415W        W29280   6.067   2.251  22.502
28416W        W29281   6.541   3.551  22.197
28417W        W29282   5.718   1.541  25.339
28418W        W29283   4.048   2.508  25.379
28419W        W29284   7.254   0.430  25.331
28420W        W29285   6.972   1.358  23.952
28421W        W29286   5.280   3.488  25.429
28422W        W29287   5.135   0.117  22.156
28423W        W29288   6.674   2.716  22.099
28424W        W29289   4.443   0.809  24.985
28425W        W29290   4.877   2.803  24.847
28426W        W29291   7.003   0.794  24.645
28427W        W29292   6.214   3.453  22.613
28428W        W29293   6.453   2.072  23.980
28429W        W29294   4.703   0.488  24.647
28430W        W29295   5.172   1.557  25.404
28431W        W29296   4.675   2.736  22.598
28432W        W29297   6.430   2.234  22.862
28433W        W29298   4.198   0.860  24.586
28434W        W29299   5.527   2.922  23.050
28435W        W29300   7.277   1.482  23.231
28436W        W29301   5.499   0.115  24.950
28437W        W29302   6.279   2.820  24.029
28438W        W29303   6.582   3.164  23.737
28439W        W29304   5.801   2.966  22.165
28440W        W29305   3.811   2.858  25.007
28441W        W29306   4.554   0.850  24.245
28442W        W29307   4.524   0.198  23.355
28443W        W29308   6.145   1.040  24.047
28444W        W29309   4.943   2.211  22.247
28445W        W29310   6.941   2.153  23.746
28446W        W29311   4.268   2.911  25.169
28447W        W29312   6.655   3.593  22.966
28448W        W29313   4.754   0.613  23.411
28449W        W29314   4.523   2.106  23.501
28450W        W29315   4.836   3.517  24.251
28451W        W29316   6.903   3.613  25.283
28452W        W29317   6.062   1.801  24.216
28453W        W29318   3.911   1.599  22.131
28454W        W29319   7.045   3.257  22.828
28455W        W29320   6.882   0.581  22.447
28456W        W29321   5.021   0.100  24.850
28457W        W29322   6.727   2.902  23.308
28458W        W29323   6.756   1.458  23.213
28459W        W29324   4.873   1.131  23.429
28460W        W29325   5.118   1.393  24.753
28461W        W29326   6.229   2.546  24.616
28462W        W29327   4.879   1.000  24.728
28463W        W29328   4.858   3.466  23.344
28464W        W29329   4.175   3.425  24.978
28465W        W29330   4.287   2.786  22.108
28466W        W29331   6.804   2.544  22.918
28467W        W29332   4.408   1.336  24.804
28468W        W29333   7.181   1.266  22.285
28469W        W29334   4.926   2.323  22.756
28470W        W29335   6.025   1.705  24.837
28471W        W29336   5.916   1.333  24.381
28472W        W29337   4.476   1.705  24.410
28473W        W29338   6.686   3.593  24.239
28474W        W29339   6.477   0.227  25.233
28475W        W29340   4.141   0.377  24.820
28476W        W29341   4.480   1.400  23.873
28477W        W29342   4.849   1.214  21.995
28478W        W29343   3.652   2.973  24.540
28479W        W29344   5.237   1.682  23.983
28480W        W29345   5.060   0.707  22.088
28481W        W29346   4.195   1.523  22.869
28482W        W29347   3.966   3.375  24.306
28483W        W29348   6.761   1.601  22.414
28484W        W29349   6.856   0.517  25.100
28485W        W29350   6.292   2.726  23.063
28486W        W29351   3.890   1.650  25.240
28487W        W29352   6.856   0.114  22.536
28488W        W29353   6.376   2.589  22.547
28489W        W29354   5.278   1.647  22.632
28490W        W29355   6.465   0.451  22.155
28491W        W29356   6.530   1.058  24.341
28492W        W29357   4.239   1.651  23.548
28493W        W29358   4.533   2.590  23.197
28494W        W29359   6.296   1.210  23.162
28495W        W29360   5.319   0.589  23.858
28496W        W29361   7.281   2.500  24.369
28497W        W29362   7.199   0.487  23.930
28498W        W29363   3.738   3.317  23.306
28499W        W29364   4.247   2.504  22.842
28500W        W29365   4.162   0.121  25.395
28501W        W29366   5.281   2.974  25.497
28502W        W29367   7.036   1.942  23.287
28503W        W29368   6.390   2.119  22.167
28504W        W29369   5.685   3.640  24.379
28505W        W29370   6.542   2.362  25.416
28506W        W29371   5.357   0.072  22.696
28507W        W29372   6.070   0.941  23.555
28508W        W29373   3.756   2.528  23.887
28509W        W29374   5.009   0.490  22.528
28510W        W29375   4.813   1.974  25.377
28511W        W29376   5.807   0.955  23.091
28512W        W29377   6.012   2.365  24.213
28513W        W29378   4.166   2.970  24.648
28514W        W29379   4.757   2.953  25.371
28515W        W29380   4.608   0.750  22.385
28516W        W29381   6.125   0.892  22.710
28517W        W29382   6.083   3.000  24.947
28518W        W29383   4.768   1.592  23.546
28519W        W29384   4.423   3.290  24.411
28520W        W29385   7.168   3.407  22.012
28521W        W29386   4.031   2.079  25.008
28522W        W29387   6.026   2.341  23.696
28523W        W29388   4.462   1.990  22.938
28524W        W29389   4.833   2.997  24.333
28525W        W29390   5.211   0.416  23.374
28526W        W29391   3.822   2.400  22.304
28527W        W29392   5.341   1.351  22.174
28528W        W29393   3.987   1.900  23.193
28529W        W29394   5.277   0.542  24.657
28530W        W29395   6.949   0.251  22.084
28531W        W29396   7.042   1.997  25.183
28532W        W29397   5.696   3.254  25.335
28533W        W29398   7.254   2.348  24.857
28534W        W29399   6.662   3.146  25.468
28535W        W29400   4.401   3.602  23.946
28536W        W29401   7.260   2.224  22.820
28537W        W29402   5.790   1.491  23.333
28538W        W29403   5.557   0.103  23.223
28539W        W29404   4.616   3.087  23.060
28540W        W29405   5.115   0.828  24.285
28541W        W29406   4.815   0.197  23.754
28542W        W29407   3.878   3.019  22.302
28543W        W29408   5.694   2.383  23.020
28544W        W29409   4.569   3.178  24.899
28545W        W29410   4.046   2.001  22.595
28546W        W29411   3.931   0.544  23.594
28547W        W29412   5.479   2.509  23.651
28548W        W29413   3.731   0.363  22.671
28549W        W29414   6.395   1.569  24.598
28550W        W29415   6.272   0.955  22.170
28551W        W29416   6.789   2.627  23.818
28552W        W29417   5.450   3.111  23.649
28553W        W29418   4.862   3.215  22.560
28554W        W29419   6.144   0.118  21.990
28555W        W29420   3.944   3.378  23.731
28556W        W29421   6.141   1.136  25.366
28557W        W29422   4.124   0.666  25.365
28558W        W29423   3.855   1.266  22.698
28559W        W29424   4.546   1.255  22.423
28560W        W29425   6.309   1.582  25.240
28561W        W29426   4.652   1.863  23.949
28562W        W29427   6.126   0.149  23.069
28563W        W29428   5.257   3.580  23.572
28564W        W29429   6.471   3.042  24.509
28565W        W29430   6.055   3.191  23.620
28566W        W29431   6.074   2.171  23.214
28567W        W29432   5.536   0.396  22.285
28568W        W29433   7.217   0.024  23.007
28569W        W29434   4.905   1.659  22.170
28570W        W29435   7.071   0.996  23.160
28571W        W29436   5.763   2.166  22.037
28572W        W29437   6.699   2.366  24.785
28573W        W29438   6.353   3.067  22.252
28574W        W29439   4.968   0.742  25.158
28575W        W29440   4.788   1.326  24.399
28576W        W29441   6.880   2.821  24.676
28577W        W29442   5.980   0.771  25.053
28578W        W29443   3.824   1.242  24.830
28579W        W29444   5.584   1.719  24.556
28580W        W29445   3.941   2.477  23.213
28581W        W29446   4.088   1.774  24.103
28582W        W29447   6.405   2.060  24.453
28583W        W29448   6.177   3.440  25.264
28584W        W29449   6.073   1.179  24.817
28585W        W29450   6.350   3.233  23.222
28586W        W29451   5.352   2.953  24.545
28587W        W29452   4.837   3.308  23.814
28588W        W29453   6.642   2.479  24.233
28589W        W29454   5.692   2.551  25.370
28590W        W29455   4.297   2.504  23.709
28591W        W29456   6.643   2.263  23.354
28592W        W29457   6.284   3.329  24.105
28593W        W29458   4.262   3.058  23.975
28594W        W29459   5.283   1.110  25.185
28595W        W29460   5.734   3.276  22.696
28596W        W29461   5.042   2.531  25.334
28597W        W29462   5.168   2.769  22.711
28598W        W29463   4.389   1.509  21.970
28599W        W29464   3.728   3.595  28.869
28600W        W29465   4.104   2.488  28.392
28601W        W29466   6.809   2.218  26.162
28602W        W29467   6.939   3.303  28.189
28603W        W29468   4.857   3.294  25.715
28604W        W29469   4.940   1.446  26.698
28605W        W29470   4.455   1.294  26.862
28606W        W29471   5.446   2.109  26.296
28607W        W29472   5.121   3.201  28.651
28608W        W29473   3.770   0.762  28.614
28609W        W29474   4.532   0.042  28.416
28610W        W29475   6.226   0.430  27.303
28611W        W29476   5.875   1.301  25.873
28612W        W29477   6.445   0.735  28.964
28613W        W29478   3.811   0.527  28.089
28614W        W29479   3.910   3.146  29.110
28615W        W29480   5.432   2.536  25.842
28616W        W29481   3.864   1.319  27.535
28617W        W29482   4.757   1.210  28.772
28618W        W29483   7.216   1.069  27.271
28619W        W29484   6.980   2.112  28.130
28620W        W29485   5.288   1.445  27.157
28621W        W29486   5.834   2.784  27.526
28622W        W29487   4.334   2.218  27.758
28623W        W29488   3.693   1.746  27.329
28624W        W29489   4.729   1.718  28.521
28625W        W29490   7.000   1.501  28.775
28626W        W29491   4.616   2.945  27.220
28627W        W29492   5.737   2.634  28.354
28628W        W29493   4.957   1.274  27.579
28629W        W29494   5.249   2.058  27.222
28630W        W29495   6.246   2.831  29.070
28631W        W29496   5.325   2.151  29.080
28632W        W29497   5.306   1.867  28.558
28633W        W29498   3.715   1.258  29.080
28634W        W29499   6.547   2.793  28.679
28635W        W29500   4.128   0.375  26.677
28636W        W29501   4.655   2.633  27.676
28637W        W29502   7.118   2.416  26.966
28638W        W29503   6.531   0.816  27.533
28639W        W29504   6.816   0.769  25.628
28640W        W29505   7.281   1.570  27.934
28641W        W29506   5.248   3.277  27.687
28642W        W29507   7.022   2.743  26.125
28643W        W29508   4.151   3.529  25.879
28644W        W29509   4.544   3.575  26.555
28645W        W29510   4.341   0.329  27.981
28646W        W29511   6.964   1.347  28.256
28647W        W29512   6.369   1.769  26.715
28648W        W29513   6.335   1.457  25.742
28649W        W29514   5.543   2.601  27.882
28650W        W29515   5.349   0.931  27.081
28651W        W29516   5.949   3.018  28.075
28652W        W29517   6.820   1.809  26.497
28653W        W29518   5.722   0.467  26.513
28654W        W29519   4.379   3.161  26.196
28655W        W29520   3.750   0.660  26.795
28656W        W29521   6.536   1.267  27.269
28657W        W29522   3.994   2.884  27.184
28658W        W29523   5.335   3.234  26.054
28659W        W29524   6.727   1.260  25.518
28660W        W29525   3.750   3.018  27.682
28661W        W29526   4.541   2.590  28.162
28662W        W29527   4.914   1.950  26.781
28663W        W29528   4.936   0.355  27.874
28664W        W29529   7.165   0.117  27.171
28665W        W29530   4.384   1.989  25.639
28666W        W29531   4.039   1.022  25.818
28667W        W29532   4.101   2.978  26.612
28668W        W29533   5.232   2.461  26.860
28669W        W29534   6.564   3.320  28.574
28670W        W29535   5.490   0.962  26.258
28671W        W29536   6.873   3.360  27.030
28672W        W29537   6.550   1.213  28.628
28673W        W29538   7.263   2.869  26.762
28674W        W29539   5.890   2.161  28.246
28675W        W29540   3.656   1.712  26.452
28676W        W29541   4.767   2.127  28.025
28677W        W29542   5.971   1.391  26.403
28678W        W29543   5.848   1.881  26.507
28679W        W29544   4.191   1.301  27.981
28680W        W29545   4.176   1.177  28.903
28681W        W29546   4.066   0.094  27.062
28682W        W29547   5.834   0.441  27.623
28683W        W29548   5.482   0.626  28.786
28684W        W29549   5.837   0.775  25.964
28685W        W29550   7.020   3.168  28.718
28686W        W29551   5.987   0.249  28.757
28687W        W29552   7.006   2.550  28.879
28688W        W29553   6.436   0.717  28.475
28689W        W29554   6.236   0.655  26.745
28690W        W29555   6.629   1.789  29.149
28691W        W29556   4.369   3.365  27.135
28692W        W29557   5.027   1.082  26.121
28693W        W29558   4.596   0.366  28.785
28694W        W29559   6.648   0.850  26.466
28695W        W29560   7.015   1.332  26.411
28696W        W29561   4.758   3.549  28.882
28697W        W29562   4.684   0.085  26.117
28698W        W29563   7.005   0.619  27.152
28699W        W29564   7.155   2.868  25.597
28700W        W29565   4.062   2.071  27.299
28701W        W29566   5.979   0.658  25.529
28702W        W29567   7.113   2.990  27.249
28703W        W29568   7.152   0.184  27.999
28704W        W29569   5.597   1.396  28.553
28705W        W29570   5.690   2.735  26.256
28706W        W29571   6.090   2.029  28.996
28707W        W29572   5.764   0.006  27.305
28708W        W29573   4.376   0.909  27.368
28709W        W29574   3.930   2.109  28.142
28710W        W29575   5.789   3.302  26.848
28711W        W29576   6.983   0.899  27.720
28712W        W29577   5.620   3.246  28.487
28713W        W29578   6.963   2.305  25.692
28714W        W29579   5.398   1.788  26.753
28715W        W29580   7.250   0.299  28.494
28716W        W29581   5.399   2.134  28.088
28717W        W29582   5.616   1.020  27.533
28718W        W29583   6.468   1.318  26.371
28719W        W29584   6.755   1.051  26.013
28720W        W29585   6.564   3.091  26.402
28721W        W29586   6.398   2.694  27.198
28722W        W29587   6.294   1.773  26.176
28723W        W29588   5.727   1.983  27.162
28724W        W29589   6.608   1.771  27.229
28725W        W29590   3.983   0.786  27.653
28726W        W29591   6.761   1.838  28.480
28727W        W29592   7.112   3.456  27.626
28728W        W29593   5.042   2.900  27.028
28729W        W29594   6.049   3.433  28.352
28730W        W29595   6.043   0.763  28.116
28731W        W29596   5.250   3.471  28.177
28732W        W29597   6.947   0.425  26.643
28733W        W29598   6.738   1.744  27.944
28734W        W29599   3.721   1.065  27.982
28735W        W29600   6.581   0.860  27.000
28736W        W29601   6.992   1.011  28.777
28737W        W29602   5.877   2.710  26.995
28738W        W29603   5.133   3.301  26.608
28739W        W29604   4.248   0.481  25.866
28740W        W29605   5.352   0.135  27.676
28741W        W29606   4.380   3.255  25.524
28742W        W29607   4.754   1.721  26.275
28743W        W29608   5.408   2.350  28.588
28744W        W29609   5.238   0.708  26.578
28745W        W29610   6.594   0.305  27.006
28746W        W29611   6.314   3.587  27.334
28747W        W29612   5.726   3.235  27.674
28748W        W29613   5.122   2.272  27.635
28749W        W29614   6.892   2.995  27.761
28750W        W29615   4.586   0.498  26.530
28751W        W29616   5.108   2.795  27.490
28752W        W29617   4.591   0.726  25.555
28753W        W29618   5.392   1.335  27.949
28754W        W29619   6.240   0.201  27.819
28755W        W29620   3.660   2.044  27.704
28756W        W29621   5.364   1.862  25.862
28757W        W29622   4.632   0.177  25.632
28758W        W29623   5.370   1.258  26.683
28759W        W29624   6.340   0.234  28.382
28760W        W29625   4.928   2.246  28.491
28761W        W29626   5.732   2.028  28.708
28762W        W29627   6.349   2.058  28.601
28763W        W29628   5.633   0.198  29.106
28764W        W29629   4.855   0.814  27.499
28765W        W29630   4.281   0.770  26.897
28766W        W29631   4.067   3.482  26.573
28767W        W29632   5.399   2.812  28.698
28768W        W29633   4.434   2.297  26.057
28769W        W29634   6.114   1.682  27.278
28770W        W29635   6.394   1.481  27.677
28771W        W29636   5.599   2.155  27.611
28772W        W29637   6.069   2.529  25.743
28773W        W29638   5.741   0.550  27.071
28774W        W29639   7.220   0.828  26.339
28775W        W29640   3.714   3.417  28.370
28776W        W29641   4.131   2.643  27.902
28777W        W29642   3.698   3.489  26.134
28778W        W29643   5.597   0.759  27.940
28779W        W29644   4.960   2.782  25.789
28780W        W29645   6.865   3.164  25.975
28781W        W29646   5.840   1.817  25.989
28782W        W29647   4.683   1.008  26.506
28783W        W29648   5.515   0.918  25.558
28784W        W29649   6.099   2.483  28.736
28785W        W29650   6.452   0.389  26.353
28786W        W29651   3.782   0.237  25.801
28787W        W29652   5.068   2.556  28.091
28788W        W29653   4.867   2.472  27.183
28789W        W29654   4.609   2.424  25.581
28790W        W29655   3.850   2.665  26.349
28791W        W29656   4.354   1.735  28.791
28792W        W29657   5.058   0.295  28.977
28793W        W29658   5.767   0.437  28.333
28794W        W29659   4.962   0.205  26.614
28795W        W29660   6.021   0.282  26.119
28796W        W29661   3.966   0.214  27.696
28797W        W29662   4.014   1.177  27.066
28798W        W29663   6.703   0.285  27.472
28799W        W29664   4.125   0.783  26.286
28800W        W29665   6.696   0.471  27.902
28801W        W29666   7.092   1.674  25.587
28802W        W29667   4.384   0.432  27.406
28803W        W29668   5.498   1.004  28.346
28804W        W29669   3.646   0.694  25.824
28805W        W29670   4.432   2.083  28.385
28806W        W29671   5.790   1.481  27.564
28807W        W29672   5.657   3.560  25.860
28808W        W29673   3.803   2.067  25.557
28809W        W29674   4.538   2.478  28.683
28810W        W29675   4.059   1.645  28.314
28811W        W29676   5.050   1.750  28.108
28812W        W29677   6.818   0.109  28.370
28813W        W29678   7.216   1.719  28.361
28814W        W29679   7.204   1.919  26.047
28815W        W29680   6.067   2.251  26.146
28816W        W29681   6.541   3.551  25.841
28817W        W29682   5.718   1.541  28.983
28818W        W29683   4.048   2.508  29.023
28819W        W29684   7.254   0.430  28.975
28820W        W29685   6.972   1.358  27.596
28821W        W29686   5.280   3.488  29.073
28822W        W29687   5.135   0.117  25.800
28823W        W29688   6.674   2.716  25.743
28824W        W29689   4.443   0.809  28.629
28825W        W29690   4.877   2.803  28.491
28826W        W29691   7.003   0.794  28.289
28827W        W29692   6.214   3.453  26.257
28828W        W29693   6.453   2.072  27.624
28829W        W29694   4.703   0.488  28.291
28830W        W29695   5.172   1.557  29.048
28831W        W29696   4.675   2.736  26.242
28832W        W29697   6.430   2.234  26.506
28833W        W29698   4.198   0.860  28.230
28834W        W29699   5.527   2.922  26.694
28835W        W29700   7.277   1.482  26.875
28836W        W29701   5.499   0.115  28.594
28837W        W29702   6.279   2.820  27.673
28838W        W29703   6.582   3.164  27.381
28839W        W29704   5.801   2.966  25.809
28840W        W29705   3.811   2.858  28.651
28841W        W29706   4.554   0.850  27.889
28842W        W29707   4.524   0.198  26.999
28843W        W29708   6.145   1.040  27.691
28844W        W29709   4.943   2.211  25.891
28845W        W29710   6.941   2.153  27.390
28846W        W29711   4.268   2.911  28.813
28847W        W29712   6.655   3.593  26.610
28848W        W29713   4.754   0.613  27.055
28849W        W29714   4.523   2.106  27.145
28850W        W29715   4.836   3.517  27.895
28851W        W29716   6.903   3.613  28.927
28852W        W29717   6.062   1.801  27.860
28853W        W29718   3.911   1.599  25.775
28854W        W29719   7.045   3.257  26.472
28855W        W29720   6.882   0.581  26.091
28856W        W29721   5.021   0.100  28.494
28857W        W29722   6.727   2.902  26.952
28858W        W29723   6.756   1.458  26.857
28859W        W29724   4.873   1.131  27.073
28860W        W29725   5.118   1.393  28.397
28861W        W29726   6.229   2.546  28.260
28862W        W29727   4.879   1.000  28.372
28863W        W29728   4.858   3.466  26.988
28864W        W29729   4.175   3.425  28.622
28865W        W29730   4.287   2.786  25.752
28866W        W29731   6.804   2.544  26.562
28867W        W29732   4.408   1.336  28.448
28868W        W29733   7.181   1.266  25.929
28869W        W29734   4.926   2.323  26.400
28870W        W29735   6.025   1.705  28.481
28871W        W29736   5.916   1.333  28.025
28872W        W29737   4.476   1.705  28.054
28873W        W29738   6.686   3.593  27.883
28874W        W29739   6.477   0.227  28.877
28875W        W29740   4.141   0.377  28.464
28876W        W29741   4.480   1.400  27.517
28877W        W29742   4.849   1.214  25.639
28878W        W29743   3.652   2.973  28.184
28879W        W29744   5.237   1.682  27.627
28880W        W29745   5.060   0.707  25.732
28881W        W29746   4.195   1.523  26.513
28882W        W29747   3.966   3.375  27.950
28883W        W29748   6.761   1.601  26.058
28884W        W29749   6.856   0.517  28.744
28885W        W29750   6.292   2.726  26.707
28886W        W29751   3.890   1.650  28.884
28887W        W29752   6.856   0.114  26.180
28888W        W29753   6.376   2.589  26.191
28889W        W29754   5.278   1.647  26.276
28890W        W29755   6.465   0.451  25.799
28891W        W29756   6.530   1.058  27.985
28892W        W29757   4.239   1.651  27.192
28893W        W29758   4.533   2.590  26.841
28894W        W29759   6.296   1.210  26.806
28895W        W29760   5.319   0.589  27.502
28896W        W29761   7.281   2.500  28.013
28897W        W29762   7.199   0.487  27.574
28898W        W29763   3.738   3.317  26.950
28899W        W29764   4.247   2.504  26.486
28900W        W29765   4.162   0.121  29.039
28901W        W29766   5.281   2.974  29.141
28902W        W29767   7.036   1.942  26.931
28903W        W29768   6.390   2.119  25.811
28904W        W29769   5.685   3.640  28.023
28905W        W29770   6.542   2.362  29.060
28906W        W29771   5.357   0.072  26.340
28907W        W29772   6.070   0.941  27.199
28908W        W29773   3.756   2.528  27.531
28909W        W29774   5.009   0.490  26.172
28910W        W29775   4.813   1.974  29.021
28911W        W29776   5.807   0.955  26.735
28912W        W29777   6.012   2.365  27.857
28913W        W29778   4.166   2.970  28.292
28914W        W29779   4.757   2.953  29.015
28915W        W29780   4.608   0.750  26.029
28916W        W29781   6.125   0.892  26.354
28917W        W29782   6.083   3.000  28.591
28918W        W29783   4.768   1.592  27.190
28919W        W29784   4.423   3.290  28.055
28920W        W29785   7.168   3.407  25.656
28921W        W29786   4.031   2.079  28.652
28922W        W29787   6.026   2.341  27.340
28923W        W29788   4.462   1.990  26.582
28924W        W29789   4.833   2.997  27.977
28925W        W29790   5.211   0.416  27.018
28926W        W29791   3.822   2.400  25.948
28927W        W29792   5.341   1.351  25.818
28928W        W29793   3.987   1.900  26.837
28929W        W29794   5.277   0.542  28.301
28930W        W29795   6.949   0.251  25.728
28931W        W29796   7.042   1.997  28.827
28932W        W29797   5.696   3.254  28.979
28933W        W29798   7.254   2.348  28.501
28934W        W29799   6.662   3.146  29.112
28935W        W29800   4.401   3.602  27.590
28936W        W29801   7.260   2.224  26.464
28937W        W29802   5.790   1.491  26.977
28938W        W29803   5.557   0.103  26.867
28939W        W29804   4.616   3.087  26.704
28940W        W29805   5.115   0.828  27.929
28941W        W29806   4.815   0.197  27.398
28942W        W29807   3.878   3.019  25.946
28943W        W29808   5.694   2.383  26.664
28944W        W29809   4.569   3.178  28.543
28945W        W29810   4.046   2.001  26.239
28946W        W29811   3.931   0.544  27.238
28947W        W29812   5.479   2.509  27.295
28948W        W29813   3.731   0.363  26.315
28949W        W29814   6.395   1.569  28.242
28950W        W29815   6.272   0.955  25.814
28951W        W29816   6.789   2.627  27.462
28952W        W29817   5.450   3.111  27.293
28953W        W29818   4.862   3.215  26.204
28954W        W29819   6.144   0.118  25.634
28955W        W29820   3.944   3.378  27.375
28956W        W29821   6.141   1.136  29.010
28957W        W29822   4.124   0.666  29.009
28958W        W29823   3.855   1.266  26.342
28959W        W29824   4.546   1.255  26.067
28960W        W29825   6.309   1.582  28.884
28961W        W29826   4.652   1.863  27.593
28962W        W29827   6.126   0.149  26.713
28963W        W29828   5.257   3.580  27.216
28964W        W29829   6.471   3.042  28.153
28965W        W29830   6.055   3.191  27.264
28966W        W29831   6.074   2.171  26.858
28967W        W29832   5.536   0.396  25.929
28968W        W29833   7.217   0.024  26.651
28969W        W29834   4.905   1.659  25.814
28970W        W29835   7.071   0.996  26.804
28971W        W29836   5.763   2.166  25.681
28972W        W29837   6.699   2.366  28.429
28973W        W29838   6.353   3.067  25.896
28974W        W29839   4.968   0.742  28.802
28975W        W29840   4.788   1.326  28.043
28976W        W29841   6.880   2.821  28.320
28977W        W29842   5.980   0.771  28.697
28978W        W29843   3.824   1.242  28.474
28979W        W29844   5.584   1.719  28.200
28980W        W29845   3.941   2.477  26.857
28981W        W29846   4.088   1.774  27.747
28982W        W29847   6.405   2.060  28.097
28983W        W29848   6.177   3.440  28.908
28984W        W29849   6.073   1.179  28.461
28985W        W29850   6.350   3.233  26.866
28986W        W29851   5.352   2.953  28.189
28987W        W29852   4.837   3.308  27.458
28988W        W29853   6.642   2.479  27.877
28989W        W29854   5.692   2.551  29.014
28990W        W29855   4.297   2.504  27.353
28991W        W29856   6.643   2.263  26.998
28992W        W29857   6.284   3.329  27.749
28993W        W29858   4.262   3.058  27.619
28994W        W29859   5.283   1.110  28.829
28995W        W29860   5.734   3.276  26.340
28996W        W29861   5.042   2.531  28.978
28997W        W29862   5.168   2.769  26.355
28998W        W29863   4.389   1.509  25.614
28999W        W29864   3.728   7.239   3.359
29000W        W29865   4.104   6.132   2.882
29001W        W29866   6.809   5.862   0.652
29002W        W29867   6.939   6.947   2.679
29003W        W29868   4.857   6.938   0.205
29004W        W29869   4.940   5.090   1.188
29005W        W29870   4.455   4.938   1.352
29006W        W29871   5.446   5.753   0.786
29007W        W29872   5.121   6.845   3.141
29008W        W29873   3.770   4.406   3.104
29009W        W29874   4.532   3.686   2.906
29010W        W29875   6.226   4.074   1.793
29011W        W29876   5.875   4.945   0.363
29012W        W29877   6.445   4.379   3.454
29013W        W29878   3.811   4.171   2.579
29014W        W29879   3.910   6.790   3.600
29015W        W29880   5.432   6.180   0.332
29016W        W29881   3.864   4.963   2.025
29017W        W29882   4.757   4.854   3.262
29018W        W29883   7.216   4.713   1.761
29019W        W29884   6.980   5.756   2.620
29020W        W29885   5.288   5.089   1.647
29021W        W29886   5.834   6.428   2.016
29022W        W29887   4.334   5.862   2.248
29023W        W29888   3.693   5.390   1.819
29024W        W29889   4.729   5.362   3.011
29025W        W29890   7.000   5.145   3.265
29026W        W29891   4.616   6.589   1.710
29027W        W29892   5.737   6.278   2.844
29028W        W29893   4.957   4.918   2.069
29029W        W29894   5.249   5.702   1.712
29030W        W29895   6.246   6.475   3.560
29031W        W29896   5.325   5.795   3.570
29032W        W29897   5.306   5.511   3.048
29033W        W29898   3.715   4.902   3.570
29034W        W29899   6.547   6.437   3.169
29035W        W29900   4.128   4.019   1.167
29036W        W29901   4.655   6.277   2.166
29037W        W29902   7.118   6.060   1.456
29038W        W29903   6.531   4.460   2.023
29039W        W29904   6.816   4.413   0.118
29040W        W29905   7.281   5.214   2.424
29041W        W29906   5.248   6.921   2.177
29042W        W29907   7.022   6.387   0.615
29043W        W29908   4.151   7.173   0.369
29044W        W29909   4.544   7.219   1.045
29045W        W29910   4.341   3.973   2.471
29046W        W29911   6.964   4.991   2.746
29047W        W29912   6.369   5.413   1.205
29048W        W29913   6.335   5.101   0.232
29049W        W29914   5.543   6.245   2.372
29050W        W29915   5.349   4.575   1.571
29051W        W29916   5.949   6.662   2.565
29052W        W29917   6.820   5.453   0.987
29053W        W29918   5.722   4.111   1.003
29054W        W29919   4.379   6.805   0.686
29055W        W29920   3.750   4.304   1.285
29056W        W29921   6.536   4.911   1.759
29057W        W29922   3.994   6.528   1.674
29058W        W29923   5.335   6.878   0.544
29059W        W29924   6.727   4.904   0.008
29060W        W29925   3.750   6.662   2.172
29061W        W29926   4.541   6.234   2.652
29062W        W29927   4.914   5.594   1.271
29063W        W29928   4.936   3.999   2.364
29064W        W29929   7.165   3.761   1.661
29065W        W29930   4.384   5.633   0.129
29066W        W29931   4.039   4.666   0.308
29067W        W29932   4.101   6.622   1.102
29068W        W29933   5.232   6.105   1.350
29069W        W29934   6.564   6.964   3.064
29070W        W29935   5.490   4.606   0.748
29071W        W29936   6.873   7.004   1.520
29072W        W29937   6.550   4.857   3.118
29073W        W29938   7.263   6.513   1.252
29074W        W29939   5.890   5.805   2.736
29075W        W29940   3.656   5.356   0.942
29076W        W29941   4.767   5.771   2.515
29077W        W29942   5.971   5.035   0.893
29078W        W29943   5.848   5.525   0.997
29079W        W29944   4.191   4.945   2.471
29080W        W29945   4.176   4.821   3.393
29081W        W29946   4.066   3.738   1.552
29082W        W29947   5.834   4.085   2.113
29083W        W29948   5.482   4.270   3.276
29084W        W29949   5.837   4.419   0.454
29085W        W29950   7.020   6.812   3.208
29086W        W29951   5.987   3.893   3.247
29087W        W29952   7.006   6.194   3.369
29088W        W29953   6.436   4.361   2.965
29089W        W29954   6.236   4.299   1.235
29090W        W29955   6.629   5.433   3.639
29091W        W29956   4.369   7.009   1.625
29092W        W29957   5.027   4.726   0.611
29093W        W29958   4.596   4.010   3.275
29094W        W29959   6.648   4.494   0.956
29095W        W29960   7.015   4.976   0.901
29096W        W29961   4.758   7.193   3.372
29097W        W29962   4.684   3.729   0.607
29098W        W29963   7.005   4.263   1.642
29099W        W29964   7.155   6.512   0.087
29100W        W29965   4.062   5.715   1.789
29101W        W29966   5.979   4.302   0.019
29102W        W29967   7.113   6.634   1.739
29103W        W29968   7.152   3.828   2.489
29104W        W29969   5.597   5.040   3.043
29105W        W29970   5.690   6.379   0.746
29106W        W29971   6.090   5.673   3.486
29107W        W29972   5.764   3.650   1.795
29108W        W29973   4.376   4.553   1.858
29109W        W29974   3.930   5.753   2.632
29110W        W29975   5.789   6.946   1.338
29111W        W29976   6.983   4.543   2.210
29112W        W29977   5.620   6.890   2.977
29113W        W29978   6.963   5.949   0.182
29114W        W29979   5.398   5.432   1.243
29115W        W29980   7.250   3.943   2.984
29116W        W29981   5.399   5.778   2.578
29117W        W29982   5.616   4.664   2.023
29118W        W29983   6.468   4.962   0.861
29119W        W29984   6.755   4.695   0.503
29120W        W29985   6.564   6.735   0.892
29121W        W29986   6.398   6.338   1.688
29122W        W29987   6.294   5.417   0.666
29123W        W29988   5.727   5.627   1.652
29124W        W29989   6.608   5.415   1.719
29125W        W29990   3.983   4.430   2.143
29126W        W29991   6.761   5.482   2.970
29127W        W29992   7.112   7.100   2.116
29128W        W29993   5.042   6.544   1.518
29129W        W29994   6.049   7.077   2.842
29130W        W29995   6.043   4.407   2.606
29131W        W29996   5.250   7.115   2.667
29132W        W29997   6.947   4.069   1.133
29133W        W29998   6.738   5.388   2.434
29134W        W29999   3.721   4.709   2.472
29135W        W30000   6.581   4.504   1.490
29136W        W30001   6.992   4.655   3.267
29137W        W30002   5.877   6.354   1.485
29138W        W30003   5.133   6.945   1.098
29139W        W30004   4.248   4.125   0.356
29140W        W30005   5.352   3.779   2.166
29141W        W30006   4.380   6.899   0.014
29142W        W30007   4.754   5.365   0.765
29143W        W30008   5.408   5.994   3.078
29144W        W30009   5.238   4.352   1.068
29145W        W30010   6.594   3.949   1.496
29146W        W30011   6.314   7.231   1.824
29147W        W30012   5.726   6.879   2.164
29148W        W30013   5.122   5.916   2.125
29149W        W30014   6.892   6.639   2.251
29150W        W30015   4.586   4.142   1.020
29151W        W30016   5.108   6.439   1.980
29152W        W30017   4.591   4.370   0.045
29153W        W30018   5.392   4.979   2.439
29154W        W30019   6.240   3.845   2.309
29155W        W30020   3.660   5.688   2.194
29156W        W30021   5.364   5.506   0.352
29157W        W30022   4.632   3.821   0.122
29158W        W30023   5.370   4.902   1.173
29159W        W30024   6.340   3.878   2.872
29160W        W30025   4.928   5.890   2.981
29161W        W30026   5.732   5.672   3.198
29162W        W30027   6.349   5.702   3.091
29163W        W30028   5.633   3.842   3.596
29164W        W30029   4.855   4.458   1.989
29165W        W30030   4.281   4.414   1.387
29166W        W30031   4.067   7.126   1.063
29167W        W30032   5.399   6.456   3.188
29168W        W30033   4.434   5.941   0.547
29169W        W30034   6.114   5.326   1.768
29170W        W30035   6.394   5.125   2.167
29171W        W30036   5.599   5.799   2.101
29172W        W30037   6.069   6.173   0.233
29173W        W30038   5.741   4.194   1.561
29174W        W30039   7.220   4.472   0.829
29175W        W30040   3.714   7.061   2.860
29176W        W30041   4.131   6.287   2.392
29177W        W30042   3.698   7.133   0.624
29178W        W30043   5.597   4.403   2.430
29179W        W30044   4.960   6.426   0.279
29180W        W30045   6.865   6.808   0.465
29181W        W30046   5.840   5.461   0.479
29182W        W30047   4.683   4.652   0.996
29183W        W30048   5.515   4.562   0.048
29184W        W30049   6.099   6.127   3.226
29185W        W30050   6.452   4.033   0.843
29186W        W30051   3.782   3.881   0.291
29187W        W30052   5.068   6.200   2.581
29188W        W30053   4.867   6.116   1.673
29189W        W30054   4.609   6.068   0.071
29190W        W30055   3.850   6.309   0.839
29191W        W30056   4.354   5.379   3.281
29192W        W30057   5.058   3.939   3.467
29193W        W30058   5.767   4.081   2.823
29194W        W30059   4.962   3.849   1.104
29195W        W30060   6.021   3.926   0.609
29196W        W30061   3.966   3.858   2.186
29197W        W30062   4.014   4.821   1.556
29198W        W30063   6.703   3.929   1.962
29199W        W30064   4.125   4.427   0.776
29200W        W30065   6.696   4.115   2.392
29201W        W30066   7.092   5.318   0.077
29202W        W30067   4.384   4.076   1.896
29203W        W30068   5.498   4.648   2.836
29204W        W30069   3.646   4.338   0.314
29205W        W30070   4.432   5.727   2.875
29206W        W30071   5.790   5.125   2.054
29207W        W30072   5.657   7.204   0.350
29208W        W30073   3.803   5.711   0.047
29209W        W30074   4.538   6.122   3.173
29210W        W30075   4.059   5.289   2.804
29211W        W30076   5.050   5.394   2.598
29212W        W30077   6.818   3.753   2.860
29213W        W30078   7.216   5.363   2.851
29214W        W30079   7.204   5.563   0.537
29215W        W30080   6.067   5.895   0.636
29216W        W30081   6.541   7.195   0.331
29217W        W30082   5.718   5.185   3.473
29218W        W30083   4.048   6.152   3.513
29219W        W30084   7.254   4.074   3.465
29220W        W30085   6.972   5.002   2.086
29221W        W30086   5.280   7.132   3.563
29222W        W30087   5.135   3.761   0.290
29223W        W30088   6.674   6.360   0.233
29224W        W30089   4.443   4.453   3.119
29225W        W30090   4.877   6.447   2.981
29226W        W30091   7.003   4.438   2.779
29227W        W30092   6.214   7.097   0.747
29228W        W30093   6.453   5.716   2.114
29229W        W30094   4.703   4.132   2.781
29230W        W30095   5.172   5.201   3.538
29231W        W30096   4.675   6.380   0.732
29232W        W30097   6.430   5.878   0.996
29233W        W30098   4.198   4.504   2.720
29234W        W30099   5.527   6.566   1.184
29235W        W30100   7.277   5.126   1.365
29236W        W30101   5.499   3.759   3.084
29237W        W30102   6.279   6.464   2.163
29238W        W30103   6.582   6.808   1.871
29239W        W30104   5.801   6.610   0.299
29240W        W30105   3.811   6.502   3.141
29241W        W30106   4.554   4.494   2.379
29242W        W30107   4.524   3.842   1.489
29243W        W30108   6.145   4.684   2.181
29244W        W30109   4.943   5.855   0.381
29245W        W30110   6.941   5.797   1.880
29246W        W30111   4.268   6.555   3.303
29247W        W30112   6.655   7.237   1.100
29248W        W30113   4.754   4.257   1.545
29249W        W30114   4.523   5.750   1.635
29250W        W30115   4.836   7.161   2.385
29251W        W30116   6.903   7.257   3.417
29252W        W30117   6.062   5.445   2.350
29253W        W30118   3.911   5.243   0.265
29254W        W30119   7.045   6.901   0.962
29255W        W30120   6.882   4.225   0.581
29256W        W30121   5.021   3.744   2.984
29257W        W30122   6.727   6.546   1.442
29258W        W30123   6.756   5.102   1.347
29259W        W30124   4.873   4.775   1.563
29260W        W30125   5.118   5.037   2.887
29261W        W30126   6.229   6.190   2.750
29262W        W30127   4.879   4.644   2.862
29263W        W30128   4.858   7.110   1.478
29264W        W30129   4.175   7.069   3.112
29265W        W30130   4.287   6.430   0.242
29266W        W30131   6.804   6.188   1.052
29267W        W30132   4.408   4.980   2.938
29268W        W30133   7.181   4.910   0.419
29269W        W30134   4.926   5.967   0.890
29270W        W30135   6.025   5.349   2.971
29271W        W30136   5.916   4.977   2.515
29272W        W30137   4.476   5.349   2.544
29273W        W30138   6.686   7.237   2.373
29274W        W30139   6.477   3.871   3.367
29275W        W30140   4.141   4.021   2.954
29276W        W30141   4.480   5.044   2.007
29277W        W30142   4.849   4.858   0.129
29278W        W30143   3.652   6.617   2.674
29279W        W30144   5.237   5.326   2.117
29280W        W30145   5.060   4.351   0.222
29281W        W30146   4.195   5.167   1.003
29282W        W30147   3.966   7.019   2.440
29283W        W30148   6.761   5.245   0.548
29284W        W30149   6.856   4.161   3.234
29285W        W30150   6.292   6.370   1.197
29286W        W30151   3.890   5.294   3.374
29287W        W30152   6.856   3.758   0.670
29288W        W30153   6.376   6.233   0.681
29289W        W30154   5.278   5.291   0.766
29290W        W30155   6.465   4.095   0.289
29291W        W30156   6.530   4.702   2.475
29292W        W30157   4.239   5.295   1.682
29293W        W30158   4.533   6.234   1.331
29294W        W30159   6.296   4.854   1.296
29295W        W30160   5.319   4.233   1.992
29296W        W30161   7.281   6.144   2.503
29297W        W30162   7.199   4.131   2.064
29298W        W30163   3.738   6.961   1.440
29299W        W30164   4.247   6.148   0.976
29300W        W30165   4.162   3.765   3.529
29301W        W30166   5.281   6.618   3.631
29302W        W30167   7.036   5.586   1.421
29303W        W30168   6.390   5.763   0.301
29304W        W30169   5.685   7.284   2.513
29305W        W30170   6.542   6.006   3.550
29306W        W30171   5.357   3.716   0.830
29307W        W30172   6.070   4.585   1.689
29308W        W30173   3.756   6.172   2.021
29309W        W30174   5.009   4.134   0.662
29310W        W30175   4.813   5.618   3.511
29311W        W30176   5.807   4.599   1.225
29312W        W30177   6.012   6.009   2.347
29313W        W30178   4.166   6.614   2.782
29314W        W30179   4.757   6.597   3.505
29315W        W30180   4.608   4.394   0.519
29316W        W30181   6.125   4.536   0.844
29317W        W30182   6.083   6.644   3.081
29318W        W30183   4.768   5.236   1.680
29319W        W30184   4.423   6.934   2.545
29320W        W30185   7.168   7.051   0.146
29321W        W30186   4.031   5.723   3.142
29322W        W30187   6.026   5.985   1.830
29323W        W30188   4.462   5.634   1.072
29324W        W30189   4.833   6.641   2.467
29325W        W30190   5.211   4.060   1.508
29326W        W30191   3.822   6.044   0.438
29327W        W30192   5.341   4.995   0.308
29328W        W30193   3.987   5.544   1.327
29329W        W30194   5.277   4.186   2.791
29330W        W30195   6.949   3.895   0.218
29331W        W30196   7.042   5.641   3.317
29332W        W30197   5.696   6.898   3.469
29333W        W30198   7.254   5.992   2.991
29334W        W30199   6.662   6.790   3.602
29335W        W30200   4.401   7.246   2.080
29336W        W30201   7.260   5.868   0.954
29337W        W30202   5.790   5.135   1.467
29338W        W30203   5.557   3.747   1.357
29339W        W30204   4.616   6.731   1.194
29340W        W30205   5.115   4.472   2.419
29341W        W30206   4.815   3.841   1.888
29342W        W30207   3.878   6.663   0.436
29343W        W30208   5.694   6.027   1.154
29344W        W30209   4.569   6.822   3.033
29345W        W30210   4.046   5.645   0.729
29346W        W30211   3.931   4.188   1.728
29347W        W30212   5.479   6.153   1.785
29348W        W30213   3.731   4.007   0.805
29349W        W30214   6.395   5.213   2.732
29350W        W30215   6.272   4.599   0.304
29351W        W30216   6.789   6.271   1.952
29352W        W30217   5.450   6.755   1.783
29353W        W30218   4.862   6.859   0.694
29354W        W30219   6.144   3.762   0.124
29355W        W30220   3.944   7.022   1.865
29356W        W30221   6.141   4.780   3.500
29357W        W30222   4.124   4.310   3.499
29358W        W30223   3.855   4.910   0.832
29359W        W30224   4.546   4.899   0.557
29360W        W30225   6.309   5.226   3.374
29361W        W30226   4.652   5.507   2.083
29362W        W30227   6.126   3.793   1.203
29363W        W30228   5.257   7.224   1.706
29364W        W30229   6.471   6.686   2.643
29365W        W30230   6.055   6.835   1.754
29366W        W30231   6.074   5.815   1.348
29367W        W30232   5.536   4.040   0.419
29368W        W30233   7.217   3.668   1.141
29369W        W30234   4.905   5.303   0.304
29370W        W30235   7.071   4.640   1.294
29371W        W30236   5.763   5.810   0.171
29372W        W30237   6.699   6.010   2.919
29373W        W30238   6.353   6.711   0.386
29374W        W30239   4.968   4.386   3.292
29375W        W30240   4.788   4.970   2.533
29376W        W30241   6.880   6.465   2.810
29377W        W30242   5.980   4.415   3.187
29378W        W30243   3.824   4.886   2.964
29379W        W30244   5.584   5.363   2.690
29380W        W30245   3.941   6.121   1.347
29381W        W30246   4.088   5.418   2.237
29382W        W30247   6.405   5.704   2.587
29383W        W30248   6.177   7.084   3.398
29384W        W30249   6.073   4.823   2.951
29385W        W30250   6.350   6.877   1.356
29386W        W30251   5.352   6.597   2.679
29387W        W30252   4.837   6.952   1.948
29388W        W30253   6.642   6.123   2.367
29389W        W30254   5.692   6.195   3.504
29390W        W30255   4.297   6.148   1.843
29391W        W30256   6.643   5.907   1.488
29392W        W30257   6.284   6.973   2.239
29393W        W30258   4.262   6.702   2.109
29394W        W30259   5.283   4.754   3.319
29395W        W30260   5.734   6.920   0.830
29396W        W30261   5.042   6.175   3.468
29397W        W30262   5.168   6.413   0.845
29398W        W30263   4.389   5.153   0.104
29399W        W30264   3.728   7.239   7.003
29400W        W30265   4.104   6.132   6.526
29401W        W30266   6.809   5.862   4.296
29402W        W30267   6.939   6.947   6.323
29403W        W30268   4.857   6.938   3.849
29404W        W30269   4.940   5.090   4.832
29405W        W30270   4.455   4.938   4.996
29406W        W30271   5.446   5.753   4.430
29407W        W30272   5.121   6.845   6.785
29408W        W30273   3.770   4.406   6.748
29409W        W30274   4.532   3.686   6.550
29410W        W30275   6.226   4.074   5.437
29411W        W30276   5.875   4.945   4.007
29412W        W30277   6.445   4.379   7.098
29413W        W30278   3.811   4.171   6.223
29414W        W30279   3.910   6.790   7.244
29415W        W30280   5.432   6.180   3.976
29416W        W30281   3.864   4.963   5.669
29417W        W30282   4.757   4.854   6.906
29418W        W30283   7.216   4.713   5.405
29419W        W30284   6.980   5.756   6.264
29420W        W30285   5.288   5.089   5.291
29421W        W30286   5.834   6.428   5.660
29422W        W30287   4.334   5.862   5.892
29423W        W30288   3.693   5.390   5.463
29424W        W30289   4.729   5.362   6.655
29425W        W30290   7.000   5.145   6.909
29426W        W30291   4.616   6.589   5.354
29427W        W30292   5.737   6.278   6.488
29428W        W30293   4.957   4.918   5.713
29429W        W30294   5.249   5.702   5.356
29430W        W30295   6.246   6.475   7.204
29431W        W30296   5.325   5.795   7.214
29432W        W30297   5.306   5.511   6.692
29433W        W30298   3.715   4.902   7.214
29434W        W30299   6.547   6.437   6.813
29435W        W30300   4.128   4.019   4.811
29436W        W30301   4.655   6.277   5.810
29437W        W30302   7.118   6.060   5.100
29438W        W30303   6.531   4.460   5.667
29439W        W30304   6.816   4.413   3.762
29440W        W30305   7.281   5.214   6.068
29441W        W30306   5.248   6.921   5.821
29442W        W30307   7.022   6.387   4.259
29443W        W30308   4.151   7.173   4.013
29444W        W30309   4.544   7.219   4.689
29445W        W30310   4.341   3.973   6.115
29446W        W30311   6.964   4.991   6.390
29447W        W30312   6.369   5.413   4.849
29448W        W30313   6.335   5.101   3.876
29449W        W30314   5.543   6.245   6.016
29450W        W30315   5.349   4.575   5.215
29451W        W30316   5.949   6.662   6.209
29452W        W30317   6.820   5.453   4.631
29453W        W30318   5.722   4.111   4.647
29454W        W30319   4.379   6.805   4.330
29455W        W30320   3.750   4.304   4.929
29456W        W30321   6.536   4.911   5.403
29457W        W30322   3.994   6.528   5.318
29458W        W30323   5.335   6.878   4.188
29459W        W30324   6.727   4.904   3.652
29460W        W30325   3.750   6.662   5.816
29461W        W30326   4.541   6.234   6.296
29462W        W30327   4.914   5.594   4.915
29463W        W30328   4.936   3.999   6.008
29464W        W30329   7.165   3.761   5.305
29465W        W30330   4.384   5.633   3.773
29466W        W30331   4.039   4.666   3.952
29467W        W30332   4.101   6.622   4.746
29468W        W30333   5.232   6.105   4.994
29469W        W30334   6.564   6.964   6.708
29470W        W30335   5.490   4.606   4.392
29471W        W30336   6.873   7.004   5.164
29472W        W30337   6.550   4.857   6.762
29473W        W30338   7.263   6.513   4.896
29474W        W30339   5.890   5.805   6.380
29475W        W30340   3.656   5.356   4.586
29476W        W30341   4.767   5.771   6.159
29477W        W30342   5.971   5.035   4.537
29478W        W30343   5.848   5.525   4.641
29479W        W30344   4.191   4.945   6.115
29480W        W30345   4.176   4.821   7.037
29481W        W30346   4.066   3.738   5.196
29482W        W30347   5.834   4.085   5.757
29483W        W30348   5.482   4.270   6.920
29484W        W30349   5.837   4.419   4.098
29485W        W30350   7.020   6.812   6.852
29486W        W30351   5.987   3.893   6.891
29487W        W30352   7.006   6.194   7.013
29488W        W30353   6.436   4.361   6.609
29489W        W30354   6.236   4.299   4.879
29490W        W30355   6.629   5.433   7.283
29491W        W30356   4.369   7.009   5.269
29492W        W30357   5.027   4.726   4.255
29493W        W30358   4.596   4.010   6.919
29494W        W30359   6.648   4.494   4.600
29495W        W30360   7.015   4.976   4.545
29496W        W30361   4.758   7.193   7.016
29497W        W30362   4.684   3.729   4.251
29498W        W30363   7.005   4.263   5.286
29499W        W30364   7.155   6.512   3.731
29500W        W30365   4.062   5.715   5.433
29501W        W30366   5.979   4.302   3.663
29502W        W30367   7.113   6.634   5.383
29503W        W30368   7.152   3.828   6.133
29504W        W30369   5.597   5.040   6.687
29505W        W30370   5.690   6.379   4.390
29506W        W30371   6.090   5.673   7.130
29507W        W30372   5.764   3.650   5.439
29508W        W30373   4.376   4.553   5.502
29509W        W30374   3.930   5.753   6.276
29510W        W30375   5.789   6.946   4.982
29511W        W30376   6.983   4.543   5.854
29512W        W30377   5.620   6.890   6.621
29513W        W30378   6.963   5.949   3.826
29514W        W30379   5.398   5.432   4.887
29515W        W30380   7.250   3.943   6.628
29516W        W30381   5.399   5.778   6.222
29517W        W30382   5.616   4.664   5.667
29518W        W30383   6.468   4.962   4.505
29519W        W30384   6.755   4.695   4.147
29520W        W30385   6.564   6.735   4.536
29521W        W30386   6.398   6.338   5.332
29522W        W30387   6.294   5.417   4.310
29523W        W30388   5.727   5.627   5.296
29524W        W30389   6.608   5.415   5.363
29525W        W30390   3.983   4.430   5.787
29526W        W30391   6.761   5.482   6.614
29527W        W30392   7.112   7.100   5.760
29528W        W30393   5.042   6.544   5.162
29529W        W30394   6.049   7.077   6.486
29530W        W30395   6.043   4.407   6.250
29531W        W30396   5.250   7.115   6.311
29532W        W30397   6.947   4.069   4.777
29533W        W30398   6.738   5.388   6.078
29534W        W30399   3.721   4.709   6.116
29535W        W30400   6.581   4.504   5.134
29536W        W30401   6.992   4.655   6.911
29537W        W30402   5.877   6.354   5.129
29538W        W30403   5.133   6.945   4.742
29539W        W30404   4.248   4.125   4.000
29540W        W30405   5.352   3.779   5.810
29541W        W30406   4.380   6.899   3.658
29542W        W30407   4.754   5.365   4.409
29543W        W30408   5.408   5.994   6.722
29544W        W30409   5.238   4.352   4.712
29545W        W30410   6.594   3.949   5.140
29546W        W30411   6.314   7.231   5.468
29547W        W30412   5.726   6.879   5.808
29548W        W30413   5.122   5.916   5.769
29549W        W30414   6.892   6.639   5.895
29550W        W30415   4.586   4.142   4.664
29551W        W30416   5.108   6.439   5.624
29552W        W30417   4.591   4.370   3.689
29553W        W30418   5.392   4.979   6.083
29554W        W30419   6.240   3.845   5.953
29555W        W30420   3.660   5.688   5.838
29556W        W30421   5.364   5.506   3.996
29557W        W30422   4.632   3.821   3.766
29558W        W30423   5.370   4.902   4.817
29559W        W30424   6.340   3.878   6.516
29560W        W30425   4.928   5.890   6.625
29561W        W30426   5.732   5.672   6.842
29562W        W30427   6.349   5.702   6.735
29563W        W30428   5.633   3.842   7.240
29564W        W30429   4.855   4.458   5.633
29565W        W30430   4.281   4.414   5.031
29566W        W30431   4.067   7.126   4.707
29567W        W30432   5.399   6.456   6.832
29568W        W30433   4.434   5.941   4.191
29569W        W30434   6.114   5.326   5.412
29570W        W30435   6.394   5.125   5.811
29571W        W30436   5.599   5.799   5.745
29572W        W30437   6.069   6.173   3.877
29573W        W30438   5.741   4.194   5.205
29574W        W30439   7.220   4.472   4.473
29575W        W30440   3.714   7.061   6.504
29576W        W30441   4.131   6.287   6.036
29577W        W30442   3.698   7.133   4.268
29578W        W30443   5.597   4.403   6.074
29579W        W30444   4.960   6.426   3.923
29580W        W30445   6.865   6.808   4.109
29581W        W30446   5.840   5.461   4.123
29582W        W30447   4.683   4.652   4.640
29583W        W30448   5.515   4.562   3.692
29584W        W30449   6.099   6.127   6.870
29585W        W30450   6.452   4.033   4.487
29586W        W30451   3.782   3.881   3.935
29587W        W30452   5.068   6.200   6.225
29588W        W30453   4.867   6.116   5.317
29589W        W30454   4.609   6.068   3.715
29590W        W30455   3.850   6.309   4.483
29591W        W30456   4.354   5.379   6.925
29592W        W30457   5.058   3.939   7.111
29593W        W30458   5.767   4.081   6.467
29594W        W30459   4.962   3.849   4.748
29595W        W30460   6.021   3.926   4.253
29596W        W30461   3.966   3.858   5.830
29597W        W30462   4.014   4.821   5.200
29598W        W30463   6.703   3.929   5.606
29599W        W30464   4.125   4.427   4.420
29600W        W30465   6.696   4.115   6.036
29601W        W30466   7.092   5.318   3.721
29602W        W30467   4.384   4.076   5.540
29603W        W30468   5.498   4.648   6.480
29604W        W30469   3.646   4.338   3.958
29605W        W30470   4.432   5.727   6.519
29606W        W30471   5.790   5.125   5.698
29607W        W30472   5.657   7.204   3.994
29608W        W30473   3.803   5.711   3.691
29609W        W30474   4.538   6.122   6.817
29610W        W30475   4.059   5.289   6.448
29611W        W30476   5.050   5.394   6.242
29612W        W30477   6.818   3.753   6.504
29613W        W30478   7.216   5.363   6.495
29614W        W30479   7.204   5.563   4.181
29615W        W30480   6.067   5.895   4.280
29616W        W30481   6.541   7.195   3.975
29617W        W30482   5.718   5.185   7.117
29618W        W30483   4.048   6.152   7.157
29619W        W30484   7.254   4.074   7.109
29620W        W30485   6.972   5.002   5.730
29621W        W30486   5.280   7.132   7.207
29622W        W30487   5.135   3.761   3.934
29623W        W30488   6.674   6.360   3.877
29624W        W30489   4.443   4.453   6.763
29625W        W30490   4.877   6.447   6.625
29626W        W30491   7.003   4.438   6.423
29627W        W30492   6.214   7.097   4.391
29628W        W30493   6.453   5.716   5.758
29629W        W30494   4.703   4.132   6.425
29630W        W30495   5.172   5.201   7.182
29631W        W30496   4.675   6.380   4.376
29632W        W30497   6.430   5.878   4.640
29633W        W30498   4.198   4.504   6.364
29634W        W30499   5.527   6.566   4.828
29635W        W30500   7.277   5.126   5.009
29636W        W30501   5.499   3.759   6.728
29637W        W30502   6.279   6.464   5.807
29638W        W30503   6.582   6.808   5.515
29639W        W30504   5.801   6.610   3.943
29640W        W30505   3.811   6.502   6.785
29641W        W30506   4.554   4.494   6.023
29642W        W30507   4.524   3.842   5.133
29643W        W30508   6.145   4.684   5.825
29644W        W30509   4.943   5.855   4.025
29645W        W30510   6.941   5.797   5.524
29646W        W30511   4.268   6.555   6.947
29647W        W30512   6.655   7.237   4.744
29648W        W30513   4.754   4.257   5.189
29649W        W30514   4.523   5.750   5.279
29650W        W30515   4.836   7.161   6.029
29651W        W30516   6.903   7.257   7.061
29652W        W30517   6.062   5.445   5.994
29653W        W30518   3.911   5.243   3.909
29654W        W30519   7.045   6.901   4.606
29655W        W30520   6.882   4.225   4.225
29656W        W30521   5.021   3.744   6.628
29657W        W30522   6.727   6.546   5.086
29658W        W30523   6.756   5.102   4.991
29659W        W30524   4.873   4.775   5.207
29660W        W30525   5.118   5.037   6.531
29661W        W30526   6.229   6.190   6.394
29662W        W30527   4.879   4.644   6.506
29663W        W30528   4.858   7.110   5.122
29664W        W30529   4.175   7.069   6.756
29665W        W30530   4.287   6.430   3.886
29666W        W30531   6.804   6.188   4.696
29667W        W30532   4.408   4.980   6.582
29668W        W30533   7.181   4.910   4.063
29669W        W30534   4.926   5.967   4.534
29670W        W30535   6.025   5.349   6.615
29671W        W30536   5.916   4.977   6.159
29672W        W30537   4.476   5.349   6.188
29673W        W30538   6.686   7.237   6.017
29674W        W30539   6.477   3.871   7.011
29675W        W30540   4.141   4.021   6.598
29676W        W30541   4.480   5.044   5.651
29677W        W30542   4.849   4.858   3.773
29678W        W30543   3.652   6.617   6.318
29679W        W30544   5.237   5.326   5.761
29680W        W30545   5.060   4.351   3.866
29681W        W30546   4.195   5.167   4.647
29682W        W30547   3.966   7.019   6.084
29683W        W30548   6.761   5.245   4.192
29684W        W30549   6.856   4.161   6.878
29685W        W30550   6.292   6.370   4.841
29686W        W30551   3.890   5.294   7.018
29687W        W30552   6.856   3.758   4.314
29688W        W30553   6.376   6.233   4.325
29689W        W30554   5.278   5.291   4.410
29690W        W30555   6.465   4.095   3.933
29691W        W30556   6.530   4.702   6.119
29692W        W30557   4.239   5.295   5.326
29693W        W30558   4.533   6.234   4.975
29694W        W30559   6.296   4.854   4.940
29695W        W30560   5.319   4.233   5.636
29696W        W30561   7.281   6.144   6.147
29697W        W30562   7.199   4.131   5.708
29698W        W30563   3.738   6.961   5.084
29699W        W30564   4.247   6.148   4.620
29700W        W30565   4.162   3.765   7.173
29701W        W30566   5.281   6.618   7.275
29702W        W30567   7.036   5.586   5.065
29703W        W30568   6.390   5.763   3.945
29704W        W30569   5.685   7.284   6.157
29705W        W30570   6.542   6.006   7.194
29706W        W30571   5.357   3.716   4.474
29707W        W30572   6.070   4.585   5.333
29708W        W30573   3.756   6.172   5.665
29709W        W30574   5.009   4.134   4.306
29710W        W30575   4.813   5.618   7.155
29711W        W30576   5.807   4.599   4.869
29712W        W30577   6.012   6.009   5.991
29713W        W30578   4.166   6.614   6.426
29714W        W30579   4.757   6.597   7.149
29715W        W30580   4.608   4.394   4.163
29716W        W30581   6.125   4.536   4.488
29717W        W30582   6.083   6.644   6.725
29718W        W30583   4.768   5.236   5.324
29719W        W30584   4.423   6.934   6.189
29720W        W30585   7.168   7.051   3.790
29721W        W30586   4.031   5.723   6.786
29722W        W30587   6.026   5.985   5.474
29723W        W30588   4.462   5.634   4.716
29724W        W30589   4.833   6.641   6.111
29725W        W30590   5.211   4.060   5.152
29726W        W30591   3.822   6.044   4.082
29727W        W30592   5.341   4.995   3.952
29728W        W30593   3.987   5.544   4.971
29729W        W30594   5.277   4.186   6.435
29730W        W30595   6.949   3.895   3.862
29731W        W30596   7.042   5.641   6.961
29732W        W30597   5.696   6.898   7.113
29733W        W30598   7.254   5.992   6.635
29734W        W30599   6.662   6.790   7.246
29735W        W30600   4.401   7.246   5.724
29736W        W30601   7.260   5.868   4.598
29737W        W30602   5.790   5.135   5.111
29738W        W30603   5.557   3.747   5.001
29739W        W30604   4.616   6.731   4.838
29740W        W30605   5.115   4.472   6.063
29741W        W30606   4.815   3.841   5.532
29742W        W30607   3.878   6.663   4.080
29743W        W30608   5.694   6.027   4.798
29744W        W30609   4.569   6.822   6.677
29745W        W30610   4.046   5.645   4.373
29746W        W30611   3.931   4.188   5.372
29747W        W30612   5.479   6.153   5.429
29748W        W30613   3.731   4.007   4.449
29749W        W30614   6.395   5.213   6.376
29750W        W30615   6.272   4.599   3.948
29751W        W30616   6.789   6.271   5.596
29752W        W30617   5.450   6.755   5.427
29753W        W30618   4.862   6.859   4.338
29754W        W30619   6.144   3.762   3.768
29755W        W30620   3.944   7.022   5.509
29756W        W30621   6.141   4.780   7.144
29757W        W30622   4.124   4.310   7.143
29758W        W30623   3.855   4.910   4.476
29759W        W30624   4.546   4.899   4.201
29760W        W30625   6.309   5.226   7.018
29761W        W30626   4.652   5.507   5.727
29762W        W30627   6.126   3.793   4.847
29763W        W30628   5.257   7.224   5.350
29764W        W30629   6.471   6.686   6.287
29765W        W30630   6.055   6.835   5.398
29766W        W30631   6.074   5.815   4.992
29767W        W30632   5.536   4.040   4.063
29768W        W30633   7.217   3.668   4.785
29769W        W30634   4.905   5.303   3.948
29770W        W30635   7.071   4.640   4.938
29771W        W30636   5.763   5.810   3.815
29772W        W30637   6.699   6.010   6.563
29773W        W30638   6.353   6.711   4.030
29774W        W30639   4.968   4.386   6.936
29775W        W30640   4.788   4.970   6.177
29776W        W30641   6.880   6.465   6.454
29777W        W30642   5.980   4.415   6.831
29778W        W30643   3.824   4.886   6.608
29779W        W30644   5.584   5.363   6.334
29780W        W30645   3.941   6.121   4.991
29781W        W30646   4.088   5.418   5.881
29782W        W30647   6.405   5.704   6.231
29783W        W30648   6.177   7.084   7.042
29784W        W30649   6.073   4.823   6.595
29785W        W30650   6.350   6.877   5.000
29786W        W30651   5.352   6.597   6.323
29787W        W30652   4.837   6.952   5.592
29788W        W30653   6.642   6.123   6.011
29789W        W30654   5.692   6.195   7.148
29790W        W30655   4.297   6.148   5.487
29791W        W30656   6.643   5.907   5.132
29792W        W30657   6.284   6.973   5.883
29793W        W30658   4.262   6.702   5.753
29794W        W30659   5.283   4.754   6.963
29795W        W30660   5.734   6.920   4.474
29796W        W30661   5.042   6.175   7.112
29797W        W30662   5.168   6.413   4.489
29798W        W30663   4.389   5.153   3.748
29799W        W30664   3.728   7.239  10.648
29800W        W30665   4.104   6.132  10.171
29801W        W30666   6.809   5.862   7.941
29802W        W30667   6.939   6.947   9.968
29803W        W30668   4.857   6.938   7.494
29804W        W30669   4.940   5.090   8.477
29805W        W30670   4.455   4.938   8.641
29806W        W30671   5.446   5.753   8.075
29807W        W30672   5.121   6.845  10.430
29808W        W30673   3.770   4.406  10.393
29809W        W30674   4.532   3.686  10.195
29810W        W30675   6.226   4.074   9.082
29811W        W30676   5.875   4.945   7.652
29812W        W30677   6.445   4.379  10.743
29813W        W30678   3.811   4.171   9.868
29814W        W30679   3.910   6.790  10.889
29815W        W30680   5.432   6.180   7.621
29816W        W30681   3.864   4.963   9.314
29817W        W30682   4.757   4.854  10.551
29818W        W30683   7.216   4.713   9.050
29819W        W30684   6.980   5.756   9.909
29820W        W30685   5.288   5.089   8.936
29821W        W30686   5.834   6.428   9.305
29822W        W30687   4.334   5.862   9.537
29823W        W30688   3.693   5.390   9.108
29824W        W30689   4.729   5.362  10.300
29825W        W30690   7.000   5.145  10.554
29826W        W30691   4.616   6.589   8.999
29827W        W30692   5.737   6.278  10.133
29828W        W30693   4.957   4.918   9.358
29829W        W30694   5.249   5.702   9.001
29830W        W30695   6.246   6.475  10.849
29831W        W30696   5.325   5.795  10.859
29832W        W30697   5.306   5.511  10.337
29833W        W30698   3.715   4.902  10.859
29834W        W30699   6.547   6.437  10.458
29835W        W30700   4.128   4.019   8.456
29836W        W30701   4.655   6.277   9.455
29837W        W30702   7.118   6.060   8.745
29838W        W30703   6.531   4.460   9.312
29839W        W30704   6.816   4.413   7.407
29840W        W30705   7.281   5.214   9.713
29841W        W30706   5.248   6.921   9.466
29842W        W30707   7.022   6.387   7.904
29843W        W30708   4.151   7.173   7.658
29844W        W30709   4.544   7.219   8.334
29845W        W30710   4.341   3.973   9.760
29846W        W30711   6.964   4.991  10.035
29847W        W30712   6.369   5.413   8.494
29848W        W30713   6.335   5.101   7.521
29849W        W30714   5.543   6.245   9.661
29850W        W30715   5.349   4.575   8.860
29851W        W30716   5.949   6.662   9.854
29852W        W30717   6.820   5.453   8.276
29853W        W30718   5.722   4.111   8.292
29854W        W30719   4.379   6.805   7.975
29855W        W30720   3.750   4.304   8.574
29856W        W30721   6.536   4.911   9.048
29857W        W30722   3.994   6.528   8.963
29858W        W30723   5.335   6.878   7.833
29859W        W30724   6.727   4.904   7.297
29860W        W30725   3.750   6.662   9.461
29861W        W30726   4.541   6.234   9.941
29862W        W30727   4.914   5.594   8.560
29863W        W30728   4.936   3.999   9.653
29864W        W30729   7.165   3.761   8.950
29865W        W30730   4.384   5.633   7.418
29866W        W30731   4.039   4.666   7.597
29867W        W30732   4.101   6.622   8.391
29868W        W30733   5.232   6.105   8.639
29869W        W30734   6.564   6.964  10.353
29870W        W30735   5.490   4.606   8.037
29871W        W30736   6.873   7.004   8.809
29872W        W30737   6.550   4.857  10.407
29873W        W30738   7.263   6.513   8.541
29874W        W30739   5.890   5.805  10.025
29875W        W30740   3.656   5.356   8.231
29876W        W30741   4.767   5.771   9.804
29877W        W30742   5.971   5.035   8.182
29878W        W30743   5.848   5.525   8.286
29879W        W30744   4.191   4.945   9.760
29880W        W30745   4.176   4.821  10.682
29881W        W30746   4.066   3.738   8.841
29882W        W30747   5.834   4.085   9.402
29883W        W30748   5.482   4.270  10.565
29884W        W30749   5.837   4.419   7.743
29885W        W30750   7.020   6.812  10.497
29886W        W30751   5.987   3.893  10.536
29887W        W30752   7.006   6.194  10.658
29888W        W30753   6.436   4.361  10.254
29889W        W30754   6.236   4.299   8.524
29890W        W30755   6.629   5.433  10.928
29891W        W30756   4.369   7.009   8.914
29892W        W30757   5.027   4.726   7.900
29893W        W30758   4.596   4.010  10.564
29894W        W30759   6.648   4.494   8.245
29895W        W30760   7.015   4.976   8.190
29896W        W30761   4.758   7.193  10.661
29897W        W30762   4.684   3.729   7.896
29898W        W30763   7.005   4.263   8.931
29899W        W30764   7.155   6.512   7.376
29900W        W30765   4.062   5.715   9.078
29901W        W30766   5.979   4.302   7.308
29902W        W30767   7.113   6.634   9.028
29903W        W30768   7.152   3.828   9.778
29904W        W30769   5.597   5.040  10.332
29905W        W30770   5.690   6.379   8.035
29906W        W30771   6.090   5.673  10.775
29907W        W30772   5.764   3.650   9.084
29908W        W30773   4.376   4.553   9.147
29909W        W30774   3.930   5.753   9.921
29910W        W30775   5.789   6.946   8.627
29911W        W30776   6.983   4.543   9.499
29912W        W30777   5.620   6.890  10.266
29913W        W30778   6.963   5.949   7.471
29914W        W30779   5.398   5.432   8.532
29915W        W30780   7.250   3.943  10.273
29916W        W30781   5.399   5.778   9.867
29917W        W30782   5.616   4.664   9.312
29918W        W30783   6.468   4.962   8.150
29919W        W30784   6.755   4.695   7.792
29920W        W30785   6.564   6.735   8.181
29921W        W30786   6.398   6.338   8.977
29922W        W30787   6.294   5.417   7.955
29923W        W30788   5.727   5.627   8.941
29924W        W30789   6.608   5.415   9.008
29925W        W30790   3.983   4.430   9.432
29926W        W30791   6.761   5.482  10.259
29927W        W30792   7.112   7.100   9.405
29928W        W30793   5.042   6.544   8.807
29929W        W30794   6.049   7.077  10.131
29930W        W30795   6.043   4.407   9.895
29931W        W30796   5.250   7.115   9.956
29932W        W30797   6.947   4.069   8.422
29933W        W30798   6.738   5.388   9.723
29934W        W30799   3.721   4.709   9.761
29935W        W30800   6.581   4.504   8.779
29936W        W30801   6.992   4.655  10.556
29937W        W30802   5.877   6.354   8.774
29938W        W30803   5.133   6.945   8.387
29939W        W30804   4.248   4.125   7.645
29940W        W30805   5.352   3.779   9.455
29941W        W30806   4.380   6.899   7.303
29942W        W30807   4.754   5.365   8.054
29943W        W30808   5.408   5.994  10.367
29944W        W30809   5.238   4.352   8.357
29945W        W30810   6.594   3.949   8.785
29946W        W30811   6.314   7.231   9.113
29947W        W30812   5.726   6.879   9.453
29948W        W30813   5.122   5.916   9.414
29949W        W30814   6.892   6.639   9.540
29950W        W30815   4.586   4.142   8.309
29951W        W30816   5.108   6.439   9.269
29952W        W30817   4.591   4.370   7.334
29953W        W30818   5.392   4.979   9.728
29954W        W30819   6.240   3.845   9.598
29955W        W30820   3.660   5.688   9.483
29956W        W30821   5.364   5.506   7.641
29957W        W30822   4.632   3.821   7.411
29958W        W30823   5.370   4.902   8.462
29959W        W30824   6.340   3.878  10.161
29960W        W30825   4.928   5.890  10.270
29961W        W30826   5.732   5.672  10.487
29962W        W30827   6.349   5.702  10.380
29963W        W30828   5.633   3.842  10.885
29964W        W30829   4.855   4.458   9.278
29965W        W30830   4.281   4.414   8.676
29966W        W30831   4.067   7.126   8.352
29967W        W30832   5.399   6.456  10.477
29968W        W30833   4.434   5.941   7.836
29969W        W30834   6.114   5.326   9.057
29970W        W30835   6.394   5.125   9.456
29971W        W30836   5.599   5.799   9.390
29972W        W30837   6.069   6.173   7.522
29973W        W30838   5.741   4.194   8.850
29974W        W30839   7.220   4.472   8.118
29975W        W30840   3.714   7.061  10.149
29976W        W30841   4.131   6.287   9.681
29977W        W30842   3.698   7.133   7.913
29978W        W30843   5.597   4.403   9.719
29979W        W30844   4.960   6.426   7.568
29980W        W30845   6.865   6.808   7.754
29981W        W30846   5.840   5.461   7.768
29982W        W30847   4.683   4.652   8.285
29983W        W30848   5.515   4.562   7.337
29984W        W30849   6.099   6.127  10.515
29985W        W30850   6.452   4.033   8.132
29986W        W30851   3.782   3.881   7.580
29987W        W30852   5.068   6.200   9.870
29988W        W30853   4.867   6.116   8.962
29989W        W30854   4.609   6.068   7.360
29990W        W30855   3.850   6.309   8.128
29991W        W30856   4.354   5.379  10.570
29992W        W30857   5.058   3.939  10.756
29993W        W30858   5.767   4.081  10.112
29994W        W30859   4.962   3.849   8.393
29995W        W30860   6.021   3.926   7.898
29996W        W30861   3.966   3.858   9.475
29997W        W30862   4.014   4.821   8.845
29998W        W30863   6.703   3.929   9.251
29999W        W30864   4.125   4.427   8.065
30000W        W30865   6.696   4.115   9.681
30001W        W30866   7.092   5.318   7.366
30002W        W30867   4.384   4.076   9.185
30003W        W30868   5.498   4.648  10.125
30004W        W30869   3.646   4.338   7.603
30005W        W30870   4.432   5.727  10.164
30006W        W30871   5.790   5.125   9.343
30007W        W30872   5.657   7.204   7.639
30008W        W30873   3.803   5.711   7.336
30009W        W30874   4.538   6.122  10.462
30010W        W30875   4.059   5.289  10.093
30011W        W30876   5.050   5.394   9.887
30012W        W30877   6.818   3.753  10.149
30013W        W30878   7.216   5.363  10.140
30014W        W30879   7.204   5.563   7.826
30015W        W30880   6.067   5.895   7.925
30016W        W30881   6.541   7.195   7.620
30017W        W30882   5.718   5.185  10.762
30018W        W30883   4.048   6.152  10.802
30019W        W30884   7.254   4.074  10.754
30020W        W30885   6.972   5.002   9.375
30021W        W30886   5.280   7.132  10.852
30022W        W30887   5.135   3.761   7.579
30023W        W30888   6.674   6.360   7.522
30024W        W30889   4.443   4.453  10.408
30025W        W30890   4.877   6.447  10.270
30026W        W30891   7.003   4.438  10.068
30027W        W30892   6.214   7.097   8.036
30028W        W30893   6.453   5.716   9.403
30029W        W30894   4.703   4.132  10.070
30030W        W30895   5.172   5.201  10.827
30031W        W30896   4.675   6.380   8.021
30032W        W30897   6.430   5.878   8.285
30033W        W30898   4.198   4.504  10.009
30034W        W30899   5.527   6.566   8.473
30035W        W30900   7.277   5.126   8.654
30036W        W30901   5.499   3.759  10.373
30037W        W30902   6.279   6.464   9.452
30038W        W30903   6.582   6.808   9.160
30039W        W30904   5.801   6.610   7.588
30040W        W30905   3.811   6.502  10.430
30041W        W30906   4.554   4.494   9.668
30042W        W30907   4.524   3.842   8.778
30043W        W30908   6.145   4.684   9.470
30044W        W30909   4.943   5.855   7.670
30045W        W30910   6.941   5.797   9.169
30046W        W30911   4.268   6.555  10.592
30047W        W30912   6.655   7.237   8.389
30048W        W30913   4.754   4.257   8.834
30049W        W30914   4.523   5.750   8.924
30050W        W30915   4.836   7.161   9.674
30051W        W30916   6.903   7.257  10.706
30052W        W30917   6.062   5.445   9.639
30053W        W30918   3.911   5.243   7.554
30054W        W30919   7.045   6.901   8.251
30055W        W30920   6.882   4.225   7.870
30056W        W30921   5.021   3.744  10.273
30057W        W30922   6.727   6.546   8.731
30058W        W30923   6.756   5.102   8.636
30059W        W30924   4.873   4.775   8.852
30060W        W30925   5.118   5.037  10.176
30061W        W30926   6.229   6.190  10.039
30062W        W30927   4.879   4.644  10.151
30063W        W30928   4.858   7.110   8.767
30064W        W30929   4.175   7.069  10.401
30065W        W30930   4.287   6.430   7.531
30066W        W30931   6.804   6.188   8.341
30067W        W30932   4.408   4.980  10.227
30068W        W30933   7.181   4.910   7.708
30069W        W30934   4.926   5.967   8.179
30070W        W30935   6.025   5.349  10.260
30071W        W30936   5.916   4.977   9.804
30072W        W30937   4.476   5.349   9.833
30073W        W30938   6.686   7.237   9.662
30074W        W30939   6.477   3.871  10.656
30075W        W30940   4.141   4.021  10.243
30076W        W30941   4.480   5.044   9.296
30077W        W30942   4.849   4.858   7.418
30078W        W30943   3.652   6.617   9.963
30079W        W30944   5.237   5.326   9.406
30080W        W30945   5.060   4.351   7.511
30081W        W30946   4.195   5.167   8.292
30082W        W30947   3.966   7.019   9.729
30083W        W30948   6.761   5.245   7.837
30084W        W30949   6.856   4.161  10.523
30085W        W30950   6.292   6.370   8.486
30086W        W30951   3.890   5.294  10.663
30087W        W30952   6.856   3.758   7.959
30088W        W30953   6.376   6.233   7.970
30089W        W30954   5.278   5.291   8.055
30090W        W30955   6.465   4.095   7.578
30091W        W30956   6.530   4.702   9.764
30092W        W30957   4.239   5.295   8.971
30093W        W30958   4.533   6.234   8.620
30094W        W30959   6.296   4.854   8.585
30095W        W30960   5.319   4.233   9.281
30096W        W30961   7.281   6.144   9.792
30097W        W30962   7.199   4.131   9.353
30098W        W30963   3.738   6.961   8.729
30099W        W30964   4.247   6.148   8.265
30100W        W30965   4.162   3.765  10.818
30101W        W30966   5.281   6.618  10.920
30102W        W30967   7.036   5.586   8.710
30103W        W30968   6.390   5.763   7.590
30104W        W30969   5.685   7.284   9.802
30105W        W30970   6.542   6.006  10.839
30106W        W30971   5.357   3.716   8.119
30107W        W30972   6.070   4.585   8.978
30108W        W30973   3.756   6.172   9.310
30109W        W30974   5.009   4.134   7.951
30110W        W30975   4.813   5.618  10.800
30111W        W30976   5.807   4.599   8.514
30112W        W30977   6.012   6.009   9.636
30113W        W30978   4.166   6.614  10.071
30114W        W30979   4.757   6.597  10.794
30115W        W30980   4.608   4.394   7.808
30116W        W30981   6.125   4.536   8.133
30117W        W30982   6.083   6.644  10.370
30118W        W30983   4.768   5.236   8.969
30119W        W30984   4.423   6.934   9.834
30120W        W30985   7.168   7.051   7.435
30121W        W30986   4.031   5.723  10.431
30122W        W30987   6.026   5.985   9.119
30123W        W30988   4.462   5.634   8.361
30124W        W30989   4.833   6.641   9.756
30125W        W30990   5.211   4.060   8.797
30126W        W30991   3.822   6.044   7.727
30127W        W30992   5.341   4.995   7.597
30128W        W30993   3.987   5.544   8.616
30129W        W30994   5.277   4.186  10.080
30130W        W30995   6.949   3.895   7.507
30131W        W30996   7.042   5.641  10.606
30132W        W30997   5.696   6.898  10.758
30133W        W30998   7.254   5.992  10.280
30134W        W30999   6.662   6.790  10.891
30135W        W31000   4.401   7.246   9.369
30136W        W31001   7.260   5.868   8.243
30137W        W31002   5.790   5.135   8.756
30138W        W31003   5.557   3.747   8.646
30139W        W31004   4.616   6.731   8.483
30140W        W31005   5.115   4.472   9.708
30141W        W31006   4.815   3.841   9.177
30142W        W31007   3.878   6.663   7.725
30143W        W31008   5.694   6.027   8.443
30144W        W31009   4.569   6.822  10.322
30145W        W31010   4.046   5.645   8.018
30146W        W31011   3.931   4.188   9.017
30147W        W31012   5.479   6.153   9.074
30148W        W31013   3.731   4.007   8.094
30149W        W31014   6.395   5.213  10.021
30150W        W31015   6.272   4.599   7.593
30151W        W31016   6.789   6.271   9.241
30152W        W31017   5.450   6.755   9.072
30153W        W31018   4.862   6.859   7.983
30154W        W31019   6.144   3.762   7.413
30155W        W31020   3.944   7.022   9.154
30156W        W31021   6.141   4.780  10.789
30157W        W31022   4.124   4.310  10.788
30158W        W31023   3.855   4.910   8.121
30159W        W31024   4.546   4.899   7.846
30160W        W31025   6.309   5.226  10.663
30161W        W31026   4.652   5.507   9.372
30162W        W31027   6.126   3.793   8.492
30163W        W31028   5.257   7.224   8.995
30164W        W31029   6.471   6.686   9.932
30165W        W31030   6.055   6.835   9.043
30166W        W31031   6.074   5.815   8.637
30167W        W31032   5.536   4.040   7.708
30168W        W31033   7.217   3.668   8.430
30169W        W31034   4.905   5.303   7.593
30170W        W31035   7.071   4.640   8.583
30171W        W31036   5.763   5.810   7.460
30172W        W31037   6.699   6.010  10.208
30173W        W31038   6.353   6.711   7.675
30174W        W31039   4.968   4.386  10.581
30175W        W31040   4.788   4.970   9.822
30176W        W31041   6.880   6.465  10.099
30177W        W31042   5.980   4.415  10.476
30178W        W31043   3.824   4.886  10.253
30179W        W31044   5.584   5.363   9.979
30180W        W31045   3.941   6.121   8.636
30181W        W31046   4.088   5.418   9.526
30182W        W31047   6.405   5.704   9.876
30183W        W31048   6.177   7.084  10.687
30184W        W31049   6.073   4.823  10.240
30185W        W31050   6.350   6.877   8.645
30186W        W31051   5.352   6.597   9.968
30187W        W31052   4.837   6.952   9.237
30188W        W31053   6.642   6.123   9.656
30189W        W31054   5.692   6.195  10.793
30190W        W31055   4.297   6.148   9.132
30191W        W31056   6.643   5.907   8.777
30192W        W31057   6.284   6.973   9.528
30193W        W31058   4.262   6.702   9.398
30194W        W31059   5.283   4.754  10.608
30195W        W31060   5.734   6.920   8.119
30196W        W31061   5.042   6.175  10.757
30197W        W31062   5.168   6.413   8.134
30198W        W31063   4.389   5.153   7.393
30199W        W31064   3.728   7.239  14.292
30200W        W31065   4.104   6.132  13.815
30201W        W31066   6.809   5.862  11.585
30202W        W31067   6.939   6.947  13.612
30203W        W31068   4.857   6.938  11.138
30204W        W31069   4.940   5.090  12.121
30205W        W31070   4.455   4.938  12.285
30206W        W31071   5.446   5.753  11.719
30207W        W31072   5.121   6.845  14.074
30208W        W31073   3.770   4.406  14.037
30209W        W31074   4.532   3.686  13.839
30210W        W31075   6.226   4.074  12.726
30211W        W31076   5.875   4.945  11.296
30212W        W31077   6.445   4.379  14.387
30213W        W31078   3.811   4.171  13.512
30214W        W31079   3.910   6.790  14.533
30215W        W31080   5.432   6.180  11.265
30216W        W31081   3.864   4.963  12.958
30217W        W31082   4.757   4.854  14.195
30218W        W31083   7.216   4.713  12.694
30219W        W31084   6.980   5.756  13.553
30220W        W31085   5.288   5.089  12.580
30221W        W31086   5.834   6.428  12.949
30222W        W31087   4.334   5.862  13.181
30223W        W31088   3.693   5.390  12.752
30224W        W31089   4.729   5.362  13.944
30225W        W31090   7.000   5.145  14.198
30226W        W31091   4.616   6.589  12.643
30227W        W31092   5.737   6.278  13.777
30228W        W31093   4.957   4.918  13.002
30229W        W31094   5.249   5.702  12.645
30230W        W31095   6.246   6.475  14.493
30231W        W31096   5.325   5.795  14.503
30232W        W31097   5.306   5.511  13.981
30233W        W31098   3.715   4.902  14.503
30234W        W31099   6.547   6.437  14.102
30235W        W31100   4.128   4.019  12.100
30236W        W31101   4.655   6.277  13.099
30237W        W31102   7.118   6.060  12.389
30238W        W31103   6.531   4.460  12.956
30239W        W31104   6.816   4.413  11.051
30240W        W31105   7.281   5.214  13.357
30241W        W31106   5.248   6.921  13.110
30242W        W31107   7.022   6.387  11.548
30243W        W31108   4.151   7.173  11.302
30244W        W31109   4.544   7.219  11.978
30245W        W31110   4.341   3.973  13.404
30246W        W31111   6.964   4.991  13.679
30247W        W31112   6.369   5.413  12.138
30248W        W31113   6.335   5.101  11.165
30249W        W31114   5.543   6.245  13.305
30250W        W31115   5.349   4.575  12.504
30251W        W31116   5.949   6.662  13.498
30252W        W31117   6.820   5.453  11.920
30253W        W31118   5.722   4.111  11.936
30254W        W31119   4.379   6.805  11.619
30255W        W31120   3.750   4.304  12.218
30256W        W31121   6.536   4.911  12.692
30257W        W31122   3.994   6.528  12.607
30258W        W31123   5.335   6.878  11.477
30259W        W31124   6.727   4.904  10.941
30260W        W31125   3.750   6.662  13.105
30261W        W31126   4.541   6.234  13.585
30262W        W31127   4.914   5.594  12.204
30263W        W31128   4.936   3.999  13.297
30264W        W31129   7.165   3.761  12.594
30265W        W31130   4.384   5.633  11.062
30266W        W31131   4.039   4.666  11.241
30267W        W31132   4.101   6.622  12.035
30268W        W31133   5.232   6.105  12.283
30269W        W31134   6.564   6.964  13.997
30270W        W31135   5.490   4.606  11.681
30271W        W31136   6.873   7.004  12.453
30272W        W31137   6.550   4.857  14.051
30273W        W31138   7.263   6.513  12.185
30274W        W31139   5.890   5.805  13.669
30275W        W31140   3.656   5.356  11.875
30276W        W31141   4.767   5.771  13.448
30277W        W31142   5.971   5.035  11.826
30278W        W31143   5.848   5.525  11.930
30279W        W31144   4.191   4.945  13.404
30280W        W31145   4.176   4.821  14.326
30281W        W31146   4.066   3.738  12.485
30282W        W31147   5.834   4.085  13.046
30283W        W31148   5.482   4.270  14.209
30284W        W31149   5.837   4.419  11.387
30285W        W31150   7.020   6.812  14.141
30286W        W31151   5.987   3.893  14.180
30287W        W31152   7.006   6.194  14.302
30288W        W31153   6.436   4.361  13.898
30289W        W31154   6.236   4.299  12.168
30290W        W31155   6.629   5.433  14.572
30291W        W31156   4.369   7.009  12.558
30292W        W31157   5.027   4.726  11.544
30293W        W31158   4.596   4.010  14.208
30294W        W31159   6.648   4.494  11.889
30295W        W31160   7.015   4.976  11.834
30296W        W31161   4.758   7.193  14.305
30297W        W31162   4.684   3.729  11.540
30298W        W31163   7.005   4.263  12.575
30299W        W31164   7.155   6.512  11.020
30300W        W31165   4.062   5.715  12.722
30301W        W31166   5.979   4.302  10.952
30302W        W31167   7.113   6.634  12.672
30303W        W31168   7.152   3.828  13.422
30304W        W31169   5.597   5.040  13.976
30305W        W31170   5.690   6.379  11.679
30306W        W31171   6.090   5.673  14.419
30307W        W31172   5.764   3.650  12.728
30308W        W31173   4.376   4.553  12.791
30309W        W31174   3.930   5.753  13.565
30310W        W31175   5.789   6.946  12.271
30311W        W31176   6.983   4.543  13.143
30312W        W31177   5.620   6.890  13.910
30313W        W31178   6.963   5.949  11.115
30314W        W31179   5.398   5.432  12.176
30315W        W31180   7.250   3.943  13.917
30316W        W31181   5.399   5.778  13.511
30317W        W31182   5.616   4.664  12.956
30318W        W31183   6.468   4.962  11.794
30319W        W31184   6.755   4.695  11.436
30320W        W31185   6.564   6.735  11.825
30321W        W31186   6.398   6.338  12.621
30322W        W31187   6.294   5.417  11.599
30323W        W31188   5.727   5.627  12.585
30324W        W31189   6.608   5.415  12.652
30325W        W31190   3.983   4.430  13.076
30326W        W31191   6.761   5.482  13.903
30327W        W31192   7.112   7.100  13.049
30328W        W31193   5.042   6.544  12.451
30329W        W31194   6.049   7.077  13.775
30330W        W31195   6.043   4.407  13.539
30331W        W31196   5.250   7.115  13.600
30332W        W31197   6.947   4.069  12.066
30333W        W31198   6.738   5.388  13.367
30334W        W31199   3.721   4.709  13.405
30335W        W31200   6.581   4.504  12.423
30336W        W31201   6.992   4.655  14.200
30337W        W31202   5.877   6.354  12.418
30338W        W31203   5.133   6.945  12.031
30339W        W31204   4.248   4.125  11.289
30340W        W31205   5.352   3.779  13.099
30341W        W31206   4.380   6.899  10.947
30342W        W31207   4.754   5.365  11.698
30343W        W31208   5.408   5.994  14.011
30344W        W31209   5.238   4.352  12.001
30345W        W31210   6.594   3.949  12.429
30346W        W31211   6.314   7.231  12.757
30347W        W31212   5.726   6.879  13.097
30348W        W31213   5.122   5.916  13.058
30349W        W31214   6.892   6.639  13.184
30350W        W31215   4.586   4.142  11.953
30351W        W31216   5.108   6.439  12.913
30352W        W31217   4.591   4.370  10.978
30353W        W31218   5.392   4.979  13.372
30354W        W31219   6.240   3.845  13.242
30355W        W31220   3.660   5.688  13.127
30356W        W31221   5.364   5.506  11.285
30357W        W31222   4.632   3.821  11.055
30358W        W31223   5.370   4.902  12.106
30359W        W31224   6.340   3.878  13.805
30360W        W31225   4.928   5.890  13.914
30361W        W31226   5.732   5.672  14.131
30362W        W31227   6.349   5.702  14.024
30363W        W31228   5.633   3.842  14.529
30364W        W31229   4.855   4.458  12.922
30365W        W31230   4.281   4.414  12.320
30366W        W31231   4.067   7.126  11.996
30367W        W31232   5.399   6.456  14.121
30368W        W31233   4.434   5.941  11.480
30369W        W31234   6.114   5.326  12.701
30370W        W31235   6.394   5.125  13.100
30371W        W31236   5.599   5.799  13.034
30372W        W31237   6.069   6.173  11.166
30373W        W31238   5.741   4.194  12.494
30374W        W31239   7.220   4.472  11.762
30375W        W31240   3.714   7.061  13.793
30376W        W31241   4.131   6.287  13.325
30377W        W31242   3.698   7.133  11.557
30378W        W31243   5.597   4.403  13.363
30379W        W31244   4.960   6.426  11.212
30380W        W31245   6.865   6.808  11.398
30381W        W31246   5.840   5.461  11.412
30382W        W31247   4.683   4.652  11.929
30383W        W31248   5.515   4.562  10.981
30384W        W31249   6.099   6.127  14.159
30385W        W31250   6.452   4.033  11.776
30386W        W31251   3.782   3.881  11.224
30387W        W31252   5.068   6.200  13.514
30388W        W31253   4.867   6.116  12.606
30389W        W31254   4.609   6.068  11.004
30390W        W31255   3.850   6.309  11.772
30391W        W31256   4.354   5.379  14.214
30392W        W31257   5.058   3.939  14.400
30393W        W31258   5.767   4.081  13.756
30394W        W31259   4.962   3.849  12.037
30395W        W31260   6.021   3.926  11.542
30396W        W31261   3.966   3.858  13.119
30397W        W31262   4.014   4.821  12.489
30398W        W31263   6.703   3.929  12.895
30399W        W31264   4.125   4.427  11.709
30400W        W31265   6.696   4.115  13.325
30401W        W31266   7.092   5.318  11.010
30402W        W31267   4.384   4.076  12.829
30403W        W31268   5.498   4.648  13.769
30404W        W31269   3.646   4.338  11.247
30405W        W31270   4.432   5.727  13.808
30406W        W31271   5.790   5.125  12.987
30407W        W31272   5.657   7.204  11.283
30408W        W31273   3.803   5.711  10.980
30409W        W31274   4.538   6.122  14.106
30410W        W31275   4.059   5.289  13.737
30411W        W31276   5.050   5.394  13.531
30412W        W31277   6.818   3.753  13.793
30413W        W31278   7.216   5.363  13.784
30414W        W31279   7.204   5.563  11.470
30415W        W31280   6.067   5.895  11.569
30416W        W31281   6.541   7.195  11.264
30417W        W31282   5.718   5.185  14.406
30418W        W31283   4.048   6.152  14.446
30419W        W31284   7.254   4.074  14.398
30420W        W31285   6.972   5.002  13.019
30421W        W31286   5.280   7.132  14.496
30422W        W31287   5.135   3.761  11.223
30423W        W31288   6.674   6.360  11.166
30424W        W31289   4.443   4.453  14.052
30425W        W31290   4.877   6.447  13.914
30426W        W31291   7.003   4.438  13.712
30427W        W31292   6.214   7.097  11.680
30428W        W31293   6.453   5.716  13.047
30429W        W31294   4.703   4.132  13.714
30430W        W31295   5.172   5.201  14.471
30431W        W31296   4.675   6.380  11.665
30432W        W31297   6.430   5.878  11.929
30433W        W31298   4.198   4.504  13.653
30434W        W31299   5.527   6.566  12.117
30435W        W31300   7.277   5.126  12.298
30436W        W31301   5.499   3.759  14.017
30437W        W31302   6.279   6.464  13.096
30438W        W31303   6.582   6.808  12.804
30439W        W31304   5.801   6.610  11.232
30440W        W31305   3.811   6.502  14.074
30441W        W31306   4.554   4.494  13.312
30442W        W31307   4.524   3.842  12.422
30443W        W31308   6.145   4.684  13.114
30444W        W31309   4.943   5.855  11.314
30445W        W31310   6.941   5.797  12.813
30446W        W31311   4.268   6.555  14.236
30447W        W31312   6.655   7.237  12.033
30448W        W31313   4.754   4.257  12.478
30449W        W31314   4.523   5.750  12.568
30450W        W31315   4.836   7.161  13.318
30451W        W31316   6.903   7.257  14.350
30452W        W31317   6.062   5.445  13.283
30453W        W31318   3.911   5.243  11.198
30454W        W31319   7.045   6.901  11.895
30455W        W31320   6.882   4.225  11.514
30456W        W31321   5.021   3.744  13.917
30457W        W31322   6.727   6.546  12.375
30458W        W31323   6.756   5.102  12.280
30459W        W31324   4.873   4.775  12.496
30460W        W31325   5.118   5.037  13.820
30461W        W31326   6.229   6.190  13.683
30462W        W31327   4.879   4.644  13.795
30463W        W31328   4.858   7.110  12.411
30464W        W31329   4.175   7.069  14.045
30465W        W31330   4.287   6.430  11.175
30466W        W31331   6.804   6.188  11.985
30467W        W31332   4.408   4.980  13.871
30468W        W31333   7.181   4.910  11.352
30469W        W31334   4.926   5.967  11.823
30470W        W31335   6.025   5.349  13.904
30471W        W31336   5.916   4.977  13.448
30472W        W31337   4.476   5.349  13.477
30473W        W31338   6.686   7.237  13.306
30474W        W31339   6.477   3.871  14.300
30475W        W31340   4.141   4.021  13.887
30476W        W31341   4.480   5.044  12.940
30477W        W31342   4.849   4.858  11.062
30478W        W31343   3.652   6.617  13.607
30479W        W31344   5.237   5.326  13.050
30480W        W31345   5.060   4.351  11.155
30481W        W31346   4.195   5.167  11.936
30482W        W31347   3.966   7.019  13.373
30483W        W31348   6.761   5.245  11.481
30484W        W31349   6.856   4.161  14.167
30485W        W31350   6.292   6.370  12.130
30486W        W31351   3.890   5.294  14.307
30487W        W31352   6.856   3.758  11.603
30488W        W31353   6.376   6.233  11.614
30489W        W31354   5.278   5.291  11.699
30490W        W31355   6.465   4.095  11.222
30491W        W31356   6.530   4.702  13.408
30492W        W31357   4.239   5.295  12.615
30493W        W31358   4.533   6.234  12.264
30494W        W31359   6.296   4.854  12.229
30495W        W31360   5.319   4.233  12.925
30496W        W31361   7.281   6.144  13.436
30497W        W31362   7.199   4.131  12.997
30498W        W31363   3.738   6.961  12.373
30499W        W31364   4.247   6.148  11.909
30500W        W31365   4.162   3.765  14.462
30501W        W31366   5.281   6.618  14.564
30502W        W31367   7.036   5.586  12.354
30503W        W31368   6.390   5.763  11.234
30504W        W31369   5.685   7.284  13.446
30505W        W31370   6.542   6.006  14.483
30506W        W31371   5.357   3.716  11.763
30507W        W31372   6.070   4.585  12.622
30508W        W31373   3.756   6.172  12.954
30509W        W31374   5.009   4.134  11.595
30510W        W31375   4.813   5.618  14.444
30511W        W31376   5.807   4.599  12.158
30512W        W31377   6.012   6.009  13.280
30513W        W31378   4.166   6.614  13.715
30514W        W31379   4.757   6.597  14.438
30515W        W31380   4.608   4.394  11.452
30516W        W31381   6.125   4.536  11.777
30517W        W31382   6.083   6.644  14.014
30518W        W31383   4.768   5.236  12.613
30519W        W31384   4.423   6.934  13.478
30520W        W31385   7.168   7.051  11.079
30521W        W31386   4.031   5.723  14.075
30522W        W31387   6.026   5.985  12.763
30523W        W31388   4.462   5.634  12.005
30524W        W31389   4.833   6.641  13.400
30525W        W31390   5.211   4.060  12.441
30526W        W31391   3.822   6.044  11.371
30527W        W31392   5.341   4.995  11.241
30528W        W31393   3.987   5.544  12.260
30529W        W31394   5.277   4.186  13.724
30530W        W31395   6.949   3.895  11.151
30531W        W31396   7.042   5.641  14.250
30532W        W31397   5.696   6.898  14.402
30533W        W31398   7.254   5.992  13.924
30534W        W31399   6.662   6.790  14.535
30535W        W31400   4.401   7.246  13.013
30536W        W31401   7.260   5.868  11.887
30537W        W31402   5.790   5.135  12.400
30538W        W31403   5.557   3.747  12.290
30539W        W31404   4.616   6.731  12.127
30540W        W31405   5.115   4.472  13.352
30541W        W31406   4.815   3.841  12.821
30542W        W31407   3.878   6.663  11.369
30543W        W31408   5.694   6.027  12.087
30544W        W31409   4.569   6.822  13.966
30545W        W31410   4.046   5.645  11.662
30546W        W31411   3.931   4.188  12.661
30547W        W31412   5.479   6.153  12.718
30548W        W31413   3.731   4.007  11.738
30549W        W31414   6.395   5.213  13.665
30550W        W31415   6.272   4.599  11.237
30551W        W31416   6.789   6.271  12.885
30552W        W31417   5.450   6.755  12.716
30553W        W31418   4.862   6.859  11.627
30554W        W31419   6.144   3.762  11.057
30555W        W31420   3.944   7.022  12.798
30556W        W31421   6.141   4.780  14.433
30557W        W31422   4.124   4.310  14.432
30558W        W31423   3.855   4.910  11.765
30559W        W31424   4.546   4.899  11.490
30560W        W31425   6.309   5.226  14.307
30561W        W31426   4.652   5.507  13.016
30562W        W31427   6.126   3.793  12.136
30563W        W31428   5.257   7.224  12.639
30564W        W31429   6.471   6.686  13.576
30565W        W31430   6.055   6.835  12.687
30566W        W31431   6.074   5.815  12.281
30567W        W31432   5.536   4.040  11.352
30568W        W31433   7.217   3.668  12.074
30569W        W31434   4.905   5.303  11.237
30570W        W31435   7.071   4.640  12.227
30571W        W31436   5.763   5.810  11.104
30572W        W31437   6.699   6.010  13.852
30573W        W31438   6.353   6.711  11.319
30574W        W31439   4.968   4.386  14.225
30575W        W31440   4.788   4.970  13.466
30576W        W31441   6.880   6.465  13.743
30577W        W31442   5.980   4.415  14.120
30578W        W31443   3.824   4.886  13.897
30579W        W31444   5.584   5.363  13.623
30580W        W31445   3.941   6.121  12.280
30581W        W31446   4.088   5.418  13.170
30582W        W31447   6.405   5.704  13.520
30583W        W31448   6.177   7.084  14.331
30584W        W31449   6.073   4.823  13.884
30585W        W31450   6.350   6.877  12.289
30586W        W31451   5.352   6.597  13.612
30587W        W31452   4.837   6.952  12.881
30588W        W31453   6.642   6.123  13.300
30589W        W31454   5.692   6.195  14.437
30590W        W31455   4.297   6.148  12.776
30591W        W31456   6.643   5.907  12.421
30592W        W31457   6.284   6.973  13.172
30593W        W31458   4.262   6.702  13.042
30594W        W31459   5.283   4.754  14.252
30595W        W31460   5.734   6.920  11.763
30596W        W31461   5.042   6.175  14.401
30597W        W31462   5.168   6.413  11.778
30598W        W31463   4.389   5.153  11.037
30599W        W31464   3.728   7.239  17.936
30600W        W31465   4.104   6.132  17.459
30601W        W31466   6.809   5.862  15.229
30602W        W31467   6.939   6.947  17.256
30603W        W31468   4.857   6.938  14.782
30604W        W31469   4.940   5.090  15.765
30605W        W31470   4.455   4.938  15.929
30606W        W31471   5.446   5.753  15.363
30607W        W31472   5.121   6.845  17.718
30608W        W31473   3.770   4.406  17.681
30609W        W31474   4.532   3.686  17.483
30610W        W31475   6.226   4.074  16.370
30611W        W31476   5.875   4.945  14.940
30612W        W31477   6.445   4.379  18.031
30613W        W31478   3.811   4.171  17.156
30614W        W31479   3.910   6.790  18.177
30615W        W31480   5.432   6.180  14.909
30616W        W31481   3.864   4.963  16.602
30617W        W31482   4.757   4.854  17.839
30618W        W31483   7.216   4.713  16.338
30619W        W31484   6.980   5.756  17.197
30620W        W31485   5.288   5.089  16.224
30621W        W31486   5.834   6.428  16.593
30622W        W31487   4.334   5.862  16.825
30623W        W31488   3.693   5.390  16.396
30624W        W31489   4.729   5.362  17.588
30625W        W31490   7.000   5.145  17.842
30626W        W31491   4.616   6.589  16.287
30627W        W31492   5.737   6.278  17.421
30628W        W31493   4.957   4.918  16.646
30629W        W31494   5.249   5.702  16.289
30630W        W31495   6.246   6.475  18.137
30631W        W31496   5.325   5.795  18.147
30632W        W31497   5.306   5.511  17.625
30633W        W31498   3.715   4.902  18.147
30634W        W31499   6.547   6.437  17.746
30635W        W31500   4.128   4.019  15.744
30636W        W31501   4.655   6.277  16.743
30637W        W31502   7.118   6.060  16.033
30638W        W31503   6.531   4.460  16.600
30639W        W31504   6.816   4.413  14.695
30640W        W31505   7.281   5.214  17.001
30641W        W31506   5.248   6.921  16.754
30642W        W31507   7.022   6.387  15.192
30643W        W31508   4.151   7.173  14.946
30644W        W31509   4.544   7.219  15.622
30645W        W31510   4.341   3.973  17.048
30646W        W31511   6.964   4.991  17.323
30647W        W31512   6.369   5.413  15.782
30648W        W31513   6.335   5.101  14.809
30649W        W31514   5.543   6.245  16.949
30650W        W31515   5.349   4.575  16.148
30651W        W31516   5.949   6.662  17.142
30652W        W31517   6.820   5.453  15.564
30653W        W31518   5.722   4.111  15.580
30654W        W31519   4.379   6.805  15.263
30655W        W31520   3.750   4.304  15.862
30656W        W31521   6.536   4.911  16.336
30657W        W31522   3.994   6.528  16.251
30658W        W31523   5.335   6.878  15.121
30659W        W31524   6.727   4.904  14.585
30660W        W31525   3.750   6.662  16.749
30661W        W31526   4.541   6.234  17.229
30662W        W31527   4.914   5.594  15.848
30663W        W31528   4.936   3.999  16.941
30664W        W31529   7.165   3.761  16.238
30665W        W31530   4.384   5.633  14.706
30666W        W31531   4.039   4.666  14.885
30667W        W31532   4.101   6.622  15.679
30668W        W31533   5.232   6.105  15.927
30669W        W31534   6.564   6.964  17.641
30670W        W31535   5.490   4.606  15.325
30671W        W31536   6.873   7.004  16.097
30672W        W31537   6.550   4.857  17.695
30673W        W31538   7.263   6.513  15.829
30674W        W31539   5.890   5.805  17.313
30675W        W31540   3.656   5.356  15.519
30676W        W31541   4.767   5.771  17.092
30677W        W31542   5.971   5.035  15.470
30678W        W31543   5.848   5.525  15.574
30679W        W31544   4.191   4.945  17.048
30680W        W31545   4.176   4.821  17.970
30681W        W31546   4.066   3.738  16.129
30682W        W31547   5.834   4.085  16.690
30683W        W31548   5.482   4.270  17.853
30684W        W31549   5.837   4.419  15.031
30685W        W31550   7.020   6.812  17.785
30686W        W31551   5.987   3.893  17.824
30687W        W31552   7.006   6.194  17.946
30688W        W31553   6.436   4.361  17.542
30689W        W31554   6.236   4.299  15.812
30690W        W31555   6.629   5.433  18.216
30691W        W31556   4.369   7.009  16.202
30692W        W31557   5.027   4.726  15.188
30693W        W31558   4.596   4.010  17.852
30694W        W31559   6.648   4.494  15.533
30695W        W31560   7.015   4.976  15.478
30696W        W31561   4.758   7.193  17.949
30697W        W31562   4.684   3.729  15.184
30698W        W31563   7.005   4.263  16.219
30699W        W31564   7.155   6.512  14.664
30700W        W31565   4.062   5.715  16.366
30701W        W31566   5.979   4.302  14.596
30702W        W31567   7.113   6.634  16.316
30703W        W31568   7.152   3.828  17.066
30704W        W31569   5.597   5.040  17.620
30705W        W31570   5.690   6.379  15.323
30706W        W31571   6.090   5.673  18.063
30707W        W31572   5.764   3.650  16.372
30708W        W31573   4.376   4.553  16.435
30709W        W31574   3.930   5.753  17.209
30710W        W31575   5.789   6.946  15.915
30711W        W31576   6.983   4.543  16.787
30712W        W31577   5.620   6.890  17.554
30713W        W31578   6.963   5.949  14.759
30714W        W31579   5.398   5.432  15.820
30715W        W31580   7.250   3.943  17.561
30716W        W31581   5.399   5.778  17.155
30717W        W31582   5.616   4.664  16.600
30718W        W31583   6.468   4.962  15.438
30719W        W31584   6.755   4.695  15.080
30720W        W31585   6.564   6.735  15.469
30721W        W31586   6.398   6.338  16.265
30722W        W31587   6.294   5.417  15.243
30723W        W31588   5.727   5.627  16.229
30724W        W31589   6.608   5.415  16.296
30725W        W31590   3.983   4.430  16.720
30726W        W31591   6.761   5.482  17.547
30727W        W31592   7.112   7.100  16.693
30728W        W31593   5.042   6.544  16.095
30729W        W31594   6.049   7.077  17.419
30730W        W31595   6.043   4.407  17.183
30731W        W31596   5.250   7.115  17.244
30732W        W31597   6.947   4.069  15.710
30733W        W31598   6.738   5.388  17.011
30734W        W31599   3.721   4.709  17.049
30735W        W31600   6.581   4.504  16.067
30736W        W31601   6.992   4.655  17.844
30737W        W31602   5.877   6.354  16.062
30738W        W31603   5.133   6.945  15.675
30739W        W31604   4.248   4.125  14.933
30740W        W31605   5.352   3.779  16.743
30741W        W31606   4.380   6.899  14.591
30742W        W31607   4.754   5.365  15.342
30743W        W31608   5.408   5.994  17.655
30744W        W31609   5.238   4.352  15.645
30745W        W31610   6.594   3.949  16.073
30746W        W31611   6.314   7.231  16.401
30747W        W31612   5.726   6.879  16.741
30748W        W31613   5.122   5.916  16.702
30749W        W31614   6.892   6.639  16.828
30750W        W31615   4.586   4.142  15.597
30751W        W31616   5.108   6.439  16.557
30752W        W31617   4.591   4.370  14.622
30753W        W31618   5.392   4.979  17.016
30754W        W31619   6.240   3.845  16.886
30755W        W31620   3.660   5.688  16.771
30756W        W31621   5.364   5.506  14.929
30757W        W31622   4.632   3.821  14.699
30758W        W31623   5.370   4.902  15.750
30759W        W31624   6.340   3.878  17.449
30760W        W31625   4.928   5.890  17.558
30761W        W31626   5.732   5.672  17.775
30762W        W31627   6.349   5.702  17.668
30763W        W31628   5.633   3.842  18.173
30764W        W31629   4.855   4.458  16.566
30765W        W31630   4.281   4.414  15.964
30766W        W31631   4.067   7.126  15.640
30767W        W31632   5.399   6.456  17.765
30768W        W31633   4.434   5.941  15.124
30769W        W31634   6.114   5.326  16.345
30770W        W31635   6.394   5.125  16.744
30771W        W31636   5.599   5.799  16.678
30772W        W31637   6.069   6.173  14.810
30773W        W31638   5.741   4.194  16.138
30774W        W31639   7.220   4.472  15.406
30775W        W31640   3.714   7.061  17.437
30776W        W31641   4.131   6.287  16.969
30777W        W31642   3.698   7.133  15.201
30778W        W31643   5.597   4.403  17.007
30779W        W31644   4.960   6.426  14.856
30780W        W31645   6.865   6.808  15.042
30781W        W31646   5.840   5.461  15.056
30782W        W31647   4.683   4.652  15.573
30783W        W31648   5.515   4.562  14.625
30784W        W31649   6.099   6.127  17.803
30785W        W31650   6.452   4.033  15.420
30786W        W31651   3.782   3.881  14.868
30787W        W31652   5.068   6.200  17.158
30788W        W31653   4.867   6.116  16.250
30789W        W31654   4.609   6.068  14.648
30790W        W31655   3.850   6.309  15.416
30791W        W31656   4.354   5.379  17.858
30792W        W31657   5.058   3.939  18.044
30793W        W31658   5.767   4.081  17.400
30794W        W31659   4.962   3.849  15.681
30795W        W31660   6.021   3.926  15.186
30796W        W31661   3.966   3.858  16.763
30797W        W31662   4.014   4.821  16.133
30798W        W31663   6.703   3.929  16.539
30799W        W31664   4.125   4.427  15.353
30800W        W31665   6.696   4.115  16.969
30801W        W31666   7.092   5.318  14.654
30802W        W31667   4.384   4.076  16.473
30803W        W31668   5.498   4.648  17.413
30804W        W31669   3.646   4.338  14.891
30805W        W31670   4.432   5.727  17.452
30806W        W31671   5.790   5.125  16.631
30807W        W31672   5.657   7.204  14.927
30808W        W31673   3.803   5.711  14.624
30809W        W31674   4.538   6.122  17.750
30810W        W31675   4.059   5.289  17.381
30811W        W31676   5.050   5.394  17.175
30812W        W31677   6.818   3.753  17.437
30813W        W31678   7.216   5.363  17.428
30814W        W31679   7.204   5.563  15.114
30815W        W31680   6.067   5.895  15.213
30816W        W31681   6.541   7.195  14.908
30817W        W31682   5.718   5.185  18.050
30818W        W31683   4.048   6.152  18.090
30819W        W31684   7.254   4.074  18.042
30820W        W31685   6.972   5.002  16.663
30821W        W31686   5.280   7.132  18.140
30822W        W31687   5.135   3.761  14.867
30823W        W31688   6.674   6.360  14.810
30824W        W31689   4.443   4.453  17.696
30825W        W31690   4.877   6.447  17.558
30826W        W31691   7.003   4.438  17.356
30827W        W31692   6.214   7.097  15.324
30828W        W31693   6.453   5.716  16.691
30829W        W31694   4.703   4.132  17.358
30830W        W31695   5.172   5.201  18.115
30831W        W31696   4.675   6.380  15.309
30832W        W31697   6.430   5.878  15.573
30833W        W31698   4.198   4.504  17.297
30834W        W31699   5.527   6.566  15.761
30835W        W31700   7.277   5.126  15.942
30836W        W31701   5.499   3.759  17.661
30837W        W31702   6.279   6.464  16.740
30838W        W31703   6.582   6.808  16.448
30839W        W31704   5.801   6.610  14.876
30840W        W31705   3.811   6.502  17.718
30841W        W31706   4.554   4.494  16.956
30842W        W31707   4.524   3.842  16.066
30843W        W31708   6.145   4.684  16.758
30844W        W31709   4.943   5.855  14.958
30845W        W31710   6.941   5.797  16.457
30846W        W31711   4.268   6.555  17.880
30847W        W31712   6.655   7.237  15.677
30848W        W31713   4.754   4.257  16.122
30849W        W31714   4.523   5.750  16.212
30850W        W31715   4.836   7.161  16.962
30851W        W31716   6.903   7.257  17.994
30852W        W31717   6.062   5.445  16.927
30853W        W31718   3.911   5.243  14.842
30854W        W31719   7.045   6.901  15.539
30855W        W31720   6.882   4.225  15.158
30856W        W31721   5.021   3.744  17.561
30857W        W31722   6.727   6.546  16.019
30858W        W31723   6.756   5.102  15.924
30859W        W31724   4.873   4.775  16.140
30860W        W31725   5.118   5.037  17.464
30861W        W31726   6.229   6.190  17.327
30862W        W31727   4.879   4.644  17.439
30863W        W31728   4.858   7.110  16.055
30864W        W31729   4.175   7.069  17.689
30865W        W31730   4.287   6.430  14.819
30866W        W31731   6.804   6.188  15.629
30867W        W31732   4.408   4.980  17.515
30868W        W31733   7.181   4.910  14.996
30869W        W31734   4.926   5.967  15.467
30870W        W31735   6.025   5.349  17.548
30871W        W31736   5.916   4.977  17.092
30872W        W31737   4.476   5.349  17.121
30873W        W31738   6.686   7.237  16.950
30874W        W31739   6.477   3.871  17.944
30875W        W31740   4.141   4.021  17.531
30876W        W31741   4.480   5.044  16.584
30877W        W31742   4.849   4.858  14.706
30878W        W31743   3.652   6.617  17.251
30879W        W31744   5.237   5.326  16.694
30880W        W31745   5.060   4.351  14.799
30881W        W31746   4.195   5.167  15.580
30882W        W31747   3.966   7.019  17.017
30883W        W31748   6.761   5.245  15.125
30884W        W31749   6.856   4.161  17.811
30885W        W31750   6.292   6.370  15.774
30886W        W31751   3.890   5.294  17.951
30887W        W31752   6.856   3.758  15.247
30888W        W31753   6.376   6.233  15.258
30889W        W31754   5.278   5.291  15.343
30890W        W31755   6.465   4.095  14.866
30891W        W31756   6.530   4.702  17.052
30892W        W31757   4.239   5.295  16.259
30893W        W31758   4.533   6.234  15.908
30894W        W31759   6.296   4.854  15.873
30895W        W31760   5.319   4.233  16.569
30896W        W31761   7.281   6.144  17.080
30897W        W31762   7.199   4.131  16.641
30898W        W31763   3.738   6.961  16.017
30899W        W31764   4.247   6.148  15.553
30900W        W31765   4.162   3.765  18.106
30901W        W31766   5.281   6.618  18.208
30902W        W31767   7.036   5.586  15.998
30903W        W31768   6.390   5.763  14.878
30904W        W31769   5.685   7.284  17.090
30905W        W31770   6.542   6.006  18.127
30906W        W31771   5.357   3.716  15.407
30907W        W31772   6.070   4.585  16.266
30908W        W31773   3.756   6.172  16.598
30909W        W31774   5.009   4.134  15.239
30910W        W31775   4.813   5.618  18.088
30911W        W31776   5.807   4.599  15.802
30912W        W31777   6.012   6.009  16.924
30913W        W31778   4.166   6.614  17.359
30914W        W31779   4.757   6.597  18.082
30915W        W31780   4.608   4.394  15.096
30916W        W31781   6.125   4.536  15.421
30917W        W31782   6.083   6.644  17.658
30918W        W31783   4.768   5.236  16.257
30919W        W31784   4.423   6.934  17.122
30920W        W31785   7.168   7.051  14.723
30921W        W31786   4.031   5.723  17.719
30922W        W31787   6.026   5.985  16.407
30923W        W31788   4.462   5.634  15.649
30924W        W31789   4.833   6.641  17.044
30925W        W31790   5.211   4.060  16.085
30926W        W31791   3.822   6.044  15.015
30927W        W31792   5.341   4.995  14.885
30928W        W31793   3.987   5.544  15.904
30929W        W31794   5.277   4.186  17.368
30930W        W31795   6.949   3.895  14.795
30931W        W31796   7.042   5.641  17.894
30932W        W31797   5.696   6.898  18.046
30933W        W31798   7.254   5.992  17.568
30934W        W31799   6.662   6.790  18.179
30935W        W31800   4.401   7.246  16.657
30936W        W31801   7.260   5.868  15.531
30937W        W31802   5.790   5.135  16.044
30938W        W31803   5.557   3.747  15.934
30939W        W31804   4.616   6.731  15.771
30940W        W31805   5.115   4.472  16.996
30941W        W31806   4.815   3.841  16.465
30942W        W31807   3.878   6.663  15.013
30943W        W31808   5.694   6.027  15.731
30944W        W31809   4.569   6.822  17.610
30945W        W31810   4.046   5.645  15.306
30946W        W31811   3.931   4.188  16.305
30947W        W31812   5.479   6.153  16.362
30948W        W31813   3.731   4.007  15.382
30949W        W31814   6.395   5.213  17.309
30950W        W31815   6.272   4.599  14.881
30951W        W31816   6.789   6.271  16.529
30952W        W31817   5.450   6.755  16.360
30953W        W31818   4.862   6.859  15.271
30954W        W31819   6.144   3.762  14.701
30955W        W31820   3.944   7.022  16.442
30956W        W31821   6.141   4.780  18.077
30957W        W31822   4.124   4.310  18.076
30958W        W31823   3.855   4.910  15.409
30959W        W31824   4.546   4.899  15.134
30960W        W31825   6.309   5.226  17.951
30961W        W31826   4.652   5.507  16.660
30962W        W31827   6.126   3.793  15.780
30963W        W31828   5.257   7.224  16.283
30964W        W31829   6.471   6.686  17.220
30965W        W31830   6.055   6.835  16.331
30966W        W31831   6.074   5.815  15.925
30967W        W31832   5.536   4.040  14.996
30968W        W31833   7.217   3.668  15.718
30969W        W31834   4.905   5.303  14.881
30970W        W31835   7.071   4.640  15.871
30971W        W31836   5.763   5.810  14.748
30972W        W31837   6.699   6.010  17.496
30973W        W31838   6.353   6.711  14.963
30974W        W31839   4.968   4.386  17.869
30975W        W31840   4.788   4.970  17.110
30976W        W31841   6.880   6.465  17.387
30977W        W31842   5.980   4.415  17.764
30978W        W31843   3.824   4.886  17.541
30979W        W31844   5.584   5.363  17.267
30980W        W31845   3.941   6.121  15.924
30981W        W31846   4.088   5.418  16.814
30982W        W31847   6.405   5.704  17.164
30983W        W31848   6.177   7.084  17.975
30984W        W31849   6.073   4.823  17.528
30985W        W31850   6.350   6.877  15.933
30986W        W31851   5.352   6.597  17.256
30987W        W31852   4.837   6.952  16.525
30988W        W31853   6.642   6.123  16.944
30989W        W31854   5.692   6.195  18.081
30990W        W31855   4.297   6.148  16.420
30991W        W31856   6.643   5.907  16.065
30992W        W31857   6.284   6.973  16.816
30993W        W31858   4.262   6.702  16.686
30994W        W31859   5.283   4.754  17.896
30995W        W31860   5.734   6.920  15.407
30996W        W31861   5.042   6.175  18.045
30997W        W31862   5.168   6.413  15.422
30998W        W31863   4.389   5.153  14.681
30999W        W31864   3.728   7.239  21.580
31000W        W31865   4.104   6.132  21.103
31001W        W31866   6.809   5.862  18.873
31002W        W31867   6.939   6.947  20.900
31003W        W31868   4.857   6.938  18.426
31004W        W31869   4.940   5.090  19.409
31005W        W31870   4.455   4.938  19.573
31006W        W31871   5.446   5.753  19.007
31007W        W31872   5.121   6.845  21.362
31008W        W31873   3.770   4.406  21.325
31009W        W31874   4.532   3.686  21.127
31010W        W31875   6.226   4.074  20.014
31011W        W31876   5.875   4.945  18.584
31012W        W31877   6.445   4.379  21.675
31013W        W31878   3.811   4.171  20.800
31014W        W31879   3.910   6.790  21.821
31015W        W31880   5.432   6.180  18.553
31016W        W31881   3.864   4.963  20.246
31017W        W31882   4.757   4.854  21.483
31018W        W31883   7.216   4.713  19.982
31019W        W31884   6.980   5.756  20.841
31020W        W31885   5.288   5.089  19.868
31021W        W31886   5.834   6.428  20.237
31022W        W31887   4.334   5.862  20.469
31023W        W31888   3.693   5.390  20.040
31024W        W31889   4.729   5.362  21.232
31025W        W31890   7.000   5.145  21.486
31026W        W31891   4.616   6.589  19.931
31027W        W31892   5.737   6.278  21.065
31028W        W31893   4.957   4.918  20.290
31029W        W31894   5.249   5.702  19.933
31030W        W31895   6.246   6.475  21.781
31031W        W31896   5.325   5.795  21.791
31032W        W31897   5.306   5.511  21.269
31033W        W31898   3.715   4.902  21.791
31034W        W31899   6.547   6.437  21.390
31035W        W31900   4.128   4.019  19.388
31036W        W31901   4.655   6.277  20.387
31037W        W31902   7.118   6.060  19.677
31038W        W31903   6.531   4.460  20.244
31039W        W31904   6.816   4.413  18.339
31040W        W31905   7.281   5.214  20.645
31041W        W31906   5.248   6.921  20.398
31042W        W31907   7.022   6.387  18.836
31043W        W31908   4.151   7.173  18.590
31044W        W31909   4.544   7.219  19.266
31045W        W31910   4.341   3.973  20.692
31046W        W31911   6.964   4.991  20.967
31047W        W31912   6.369   5.413  19.426
31048W        W31913   6.335   5.101  18.453
31049W        W31914   5.543   6.245  20.593
31050W        W31915   5.349   4.575  19.792
31051W        W31916   5.949   6.662  20.786
31052W        W31917   6.820   5.453  19.208
31053W        W31918   5.722   4.111  19.224
31054W        W31919   4.379   6.805  18.907
31055W        W31920   3.750   4.304  19.506
31056W        W31921   6.536   4.911  19.980
31057W        W31922   3.994   6.528  19.895
31058W        W31923   5.335   6.878  18.765
31059W        W31924   6.727   4.904  18.229
31060W        W31925   3.750   6.662  20.393
31061W        W31926   4.541   6.234  20.873
31062W        W31927   4.914   5.594  19.492
31063W        W31928   4.936   3.999  20.585
31064W        W31929   7.165   3.761  19.882
31065W        W31930   4.384   5.633  18.350
31066W        W31931   4.039   4.666  18.529
31067W        W31932   4.101   6.622  19.323
31068W        W31933   5.232   6.105  19.571
31069W        W31934   6.564   6.964  21.285
31070W        W31935   5.490   4.606  18.969
31071W        W31936   6.873   7.004  19.741
31072W        W31937   6.550   4.857  21.339
31073W        W31938   7.263   6.513  19.473
31074W        W31939   5.890   5.805  20.957
31075W        W31940   3.656   5.356  19.163
31076W        W31941   4.767   5.771  20.736
31077W        W31942   5.971   5.035  19.114
31078W        W31943   5.848   5.525  19.218
31079W        W31944   4.191   4.945  20.692
31080W        W31945   4.176   4.821  21.614
31081W        W31946   4.066   3.738  19.773
31082W        W31947   5.834   4.085  20.334
31083W        W31948   5.482   4.270  21.497
31084W        W31949   5.837   4.419  18.675
31085W        W31950   7.020   6.812  21.429
31086W        W31951   5.987   3.893  21.468
31087W        W31952   7.006   6.194  21.590
31088W        W31953   6.436   4.361  21.186
31089W        W31954   6.236   4.299  19.456
31090W        W31955   6.629   5.433  21.860
31091W        W31956   4.369   7.009  19.846
31092W        W31957   5.027   4.726  18.832
31093W        W31958   4.596   4.010  21.496
31094W        W31959   6.648   4.494  19.177
31095W        W31960   7.015   4.976  19.122
31096W        W31961   4.758   7.193  21.593
31097W        W31962   4.684   3.729  18.828
31098W        W31963   7.005   4.263  19.863
31099W        W31964   7.155   6.512  18.308
31100W        W31965   4.062   5.715  20.010
31101W        W31966   5.979   4.302  18.240
31102W        W31967   7.113   6.634  19.960
31103W        W31968   7.152   3.828  20.710
31104W        W31969   5.597   5.040  21.264
31105W        W31970   5.690   6.379  18.967
31106W        W31971   6.090   5.673  21.707
31107W        W31972   5.764   3.650  20.016
31108W        W31973   4.376   4.553  20.079
31109W        W31974   3.930   5.753  20.853
31110W        W31975   5.789   6.946  19.559
31111W        W31976   6.983   4.543  20.431
31112W        W31977   5.620   6.890  21.198
31113W        W31978   6.963   5.949  18.403
31114W        W31979   5.398   5.432  19.464
31115W        W31980   7.250   3.943  21.205
31116W        W31981   5.399   5.778  20.799
31117W        W31982   5.616   4.664  20.244
31118W        W31983   6.468   4.962  19.082
31119W        W31984   6.755   4.695  18.724
31120W        W31985   6.564   6.735  19.113
31121W        W31986   6.398   6.338  19.909
31122W        W31987   6.294   5.417  18.887
31123W        W31988   5.727   5.627  19.873
31124W        W31989   6.608   5.415  19.940
31125W        W31990   3.983   4.430  20.364
31126W        W31991   6.761   5.482  21.191
31127W        W31992   7.112   7.100  20.337
31128W        W31993   5.042   6.544  19.739
31129W        W31994   6.049   7.077  21.063
31130W        W31995   6.043   4.407  20.827
31131W        W31996   5.250   7.115  20.888
31132W        W31997   6.947   4.069  19.354
31133W        W31998   6.738   5.388  20.655
31134W        W31999   3.721   4.709  20.693
31135W        W32000   6.581   4.504  19.711
31136W        W32001   6.992   4.655  21.488
31137W        W32002   5.877   6.354  19.706
31138W        W32003   5.133   6.945  19.319
31139W        W32004   4.248   4.125  18.577
31140W        W32005   5.352   3.779  20.387
31141W        W32006   4.380   6.899  18.235
31142W        W32007   4.754   5.365  18.986
31143W        W32008   5.408   5.994  21.299
31144W        W32009   5.238   4.352  19.289
31145W        W32010   6.594   3.949  19.717
31146W        W32011   6.314   7.231  20.045
31147W        W32012   5.726   6.879  20.385
31148W        W32013   5.122   5.916  20.346
31149W        W32014   6.892   6.639  20.472
31150W        W32015   4.586   4.142  19.241
31151W        W32016   5.108   6.439  20.201
31152W        W32017   4.591   4.370  18.266
31153W        W32018   5.392   4.979  20.660
31154W        W32019   6.240   3.845  20.530
31155W        W32020   3.660   5.688  20.415
31156W        W32021   5.364   5.506  18.573
31157W        W32022   4.632   3.821  18.343
31158W        W32023   5.370   4.902  19.394
31159W        W32024   6.340   3.878  21.093
31160W        W32025   4.928   5.890  21.202
31161W        W32026   5.732   5.672  21.419
31162W        W32027   6.349   5.702  21.312
31163W        W32028   5.633   3.842  21.817
31164W        W32029   4.855   4.458  20.210
31165W        W32030   4.281   4.414  19.608
31166W        W32031   4.067   7.126  19.284
31167W        W32032   5.399   6.456  21.409
31168W        W32033   4.434   5.941  18.768
31169W        W32034   6.114   5.326  19.989
31170W        W32035   6.394   5.125  20.388
31171W        W32036   5.599   5.799  20.322
31172W        W32037   6.069   6.173  18.454
31173W        W32038   5.741   4.194  19.782
31174W        W32039   7.220   4.472  19.050
31175W        W32040   3.714   7.061  21.081
31176W        W32041   4.131   6.287  20.613
31177W        W32042   3.698   7.133  18.845
31178W        W32043   5.597   4.403  20.651
31179W        W32044   4.960   6.426  18.500
31180W        W32045   6.865   6.808  18.686
31181W        W32046   5.840   5.461  18.700
31182W        W32047   4.683   4.652  19.217
31183W        W32048   5.515   4.562  18.269
31184W        W32049   6.099   6.127  21.447
31185W        W32050   6.452   4.033  19.064
31186W        W32051   3.782   3.881  18.512
31187W        W32052   5.068   6.200  20.802
31188W        W32053   4.867   6.116  19.894
31189W        W32054   4.609   6.068  18.292
31190W        W32055   3.850   6.309  19.060
31191W        W32056   4.354   5.379  21.502
31192W        W32057   5.058   3.939  21.688
31193W        W32058   5.767   4.081  21.044
31194W        W32059   4.962   3.849  19.325
31195W        W32060   6.021   3.926  18.830
31196W        W32061   3.966   3.858  20.407
31197W        W32062   4.014   4.821  19.777
31198W        W32063   6.703   3.929  20.183
31199W        W32064   4.125   4.427  18.997
31200W        W32065   6.696   4.115  20.613
31201W        W32066   7.092   5.318  18.298
31202W        W32067   4.384   4.076  20.117
31203W        W32068   5.498   4.648  21.057
31204W        W32069   3.646   4.338  18.535
31205W        W32070   4.432   5.727  21.096
31206W        W32071   5.790   5.125  20.275
31207W        W32072   5.657   7.204  18.571
31208W        W32073   3.803   5.711  18.268
31209W        W32074   4.538   6.122  21.394
31210W        W32075   4.059   5.289  21.025
31211W        W32076   5.050   5.394  20.819
31212W        W32077   6.818   3.753  21.081
31213W        W32078   7.216   5.363  21.072
31214W        W32079   7.204   5.563  18.758
31215W        W32080   6.067   5.895  18.857
31216W        W32081   6.541   7.195  18.552
31217W        W32082   5.718   5.185  21.694
31218W        W32083   4.048   6.152  21.734
31219W        W32084   7.254   4.074  21.686
31220W        W32085   6.972   5.002  20.307
31221W        W32086   5.280   7.132  21.784
31222W        W32087   5.135   3.761  18.511
31223W        W32088   6.674   6.360  18.454
31224W        W32089   4.443   4.453  21.340
31225W        W32090   4.877   6.447  21.202
31226W        W32091   7.003   4.438  21.000
31227W        W32092   6.214   7.097  18.968
31228W        W32093   6.453   5.716  20.335
31229W        W32094   4.703   4.132  21.002
31230W        W32095   5.172   5.201  21.759
31231W        W32096   4.675   6.380  18.953
31232W        W32097   6.430   5.878  19.217
31233W        W32098   4.198   4.504  20.941
31234W        W32099   5.527   6.566  19.405
31235W        W32100   7.277   5.126  19.586
31236W        W32101   5.499   3.759  21.305
31237W        W32102   6.279   6.464  20.384
31238W        W32103   6.582   6.808  20.092
31239W        W32104   5.801   6.610  18.520
31240W        W32105   3.811   6.502  21.362
31241W        W32106   4.554   4.494  20.600
31242W        W32107   4.524   3.842  19.710
31243W        W32108   6.145   4.684  20.402
31244W        W32109   4.943   5.855  18.602
31245W        W32110   6.941   5.797  20.101
31246W        W32111   4.268   6.555  21.524
31247W        W32112   6.655   7.237  19.321
31248W        W32113   4.754   4.257  19.766
31249W        W32114   4.523   5.750  19.856
31250W        W32115   4.836   7.161  20.606
31251W        W32116   6.903   7.257  21.638
31252W        W32117   6.062   5.445  20.571
31253W        W32118   3.911   5.243  18.486
31254W        W32119   7.045   6.901  19.183
31255W        W32120   6.882   4.225  18.802
31256W        W32121   5.021   3.744  21.205
31257W        W32122   6.727   6.546  19.663
31258W        W32123   6.756   5.102  19.568
31259W        W32124   4.873   4.775  19.784
31260W        W32125   5.118   5.037  21.108
31261W        W32126   6.229   6.190  20.971
31262W        W32127   4.879   4.644  21.083
31263W        W32128   4.858   7.110  19.699
31264W        W32129   4.175   7.069  21.333
31265W        W32130   4.287   6.430  18.463
31266W        W32131   6.804   6.188  19.273
31267W        W32132   4.408   4.980  21.159
31268W        W32133   7.181   4.910  18.640
31269W        W32134   4.926   5.967  19.111
31270W        W32135   6.025   5.349  21.192
31271W        W32136   5.916   4.977  20.736
31272W        W32137   4.476   5.349  20.765
31273W        W32138   6.686   7.237  20.594
31274W        W32139   6.477   3.871  21.588
31275W        W32140   4.141   4.021  21.175
31276W        W32141   4.480   5.044  20.228
31277W        W32142   4.849   4.858  18.350
31278W        W32143   3.652   6.617  20.895
31279W        W32144   5.237   5.326  20.338
31280W        W32145   5.060   4.351  18.443
31281W        W32146   4.195   5.167  19.224
31282W        W32147   3.966   7.019  20.661
31283W        W32148   6.761   5.245  18.769
31284W        W32149   6.856   4.161  21.455
31285W        W32150   6.292   6.370  19.418
31286W        W32151   3.890   5.294  21.595
31287W        W32152   6.856   3.758  18.891
31288W        W32153   6.376   6.233  18.902
31289W        W32154   5.278   5.291  18.987
31290W        W32155   6.465   4.095  18.510
31291W        W32156   6.530   4.702  20.696
31292W        W32157   4.239   5.295  19.903
31293W        W32158   4.533   6.234  19.552
31294W        W32159   6.296   4.854  19.517
31295W        W32160   5.319   4.233  20.213
31296W        W32161   7.281   6.144  20.724
31297W        W32162   7.199   4.131  20.285
31298W        W32163   3.738   6.961  19.661
31299W        W32164   4.247   6.148  19.197
31300W        W32165   4.162   3.765  21.750
31301W        W32166   5.281   6.618  21.852
31302W        W32167   7.036   5.586  19.642
31303W        W32168   6.390   5.763  18.522
31304W        W32169   5.685   7.284  20.734
31305W        W32170   6.542   6.006  21.771
31306W        W32171   5.357   3.716  19.051
31307W        W32172   6.070   4.585  19.910
31308W        W32173   3.756   6.172  20.242
31309W        W32174   5.009   4.134  18.883
31310W        W32175   4.813   5.618  21.732
31311W        W32176   5.807   4.599  19.446
31312W        W32177   6.012   6.009  20.568
31313W        W32178   4.166   6.614  21.003
31314W        W32179   4.757   6.597  21.726
31315W        W32180   4.608   4.394  18.740
31316W        W32181   6.125   4.536  19.065
31317W        W32182   6.083   6.644  21.302
31318W        W32183   4.768   5.236  19.901
31319W        W32184   4.423   6.934  20.766
31320W        W32185   7.168   7.051  18.367
31321W        W32186   4.031   5.723  21.363
31322W        W32187   6.026   5.985  20.051
31323W        W32188   4.462   5.634  19.293
31324W        W32189   4.833   6.641  20.688
31325W        W32190   5.211   4.060  19.729
31326W        W32191   3.822   6.044  18.659
31327W        W32192   5.341   4.995  18.529
31328W        W32193   3.987   5.544  19.548
31329W        W32194   5.277   4.186  21.012
31330W        W32195   6.949   3.895  18.439
31331W        W32196   7.042   5.641  21.538
31332W        W32197   5.696   6.898  21.690
31333W        W32198   7.254   5.992  21.212
31334W        W32199   6.662   6.790  21.823
31335W        W32200   4.401   7.246  20.301
31336W        W32201   7.260   5.868  19.175
31337W        W32202   5.790   5.135  19.688
31338W        W32203   5.557   3.747  19.578
31339W        W32204   4.616   6.731  19.415
31340W        W32205   5.115   4.472  20.640
31341W        W32206   4.815   3.841  20.109
31342W        W32207   3.878   6.663  18.657
31343W        W32208   5.694   6.027  19.375
31344W        W32209   4.569   6.822  21.254
31345W        W32210   4.046   5.645  18.950
31346W        W32211   3.931   4.188  19.949
31347W        W32212   5.479   6.153  20.006
31348W        W32213   3.731   4.007  19.026
31349W        W32214   6.395   5.213  20.953
31350W        W32215   6.272   4.599  18.525
31351W        W32216   6.789   6.271  20.173
31352W        W32217   5.450   6.755  20.004
31353W        W32218   4.862   6.859  18.915
31354W        W32219   6.144   3.762  18.345
31355W        W32220   3.944   7.022  20.086
31356W        W32221   6.141   4.780  21.721
31357W        W32222   4.124   4.310  21.720
31358W        W32223   3.855   4.910  19.053
31359W        W32224   4.546   4.899  18.778
31360W        W32225   6.309   5.226  21.595
31361W        W32226   4.652   5.507  20.304
31362W        W32227   6.126   3.793  19.424
31363W        W32228   5.257   7.224  19.927
31364W        W32229   6.471   6.686  20.864
31365W        W32230   6.055   6.835  19.975
31366W        W32231   6.074   5.815  19.569
31367W        W32232   5.536   4.040  18.640
31368W        W32233   7.217   3.668  19.362
31369W        W32234   4.905   5.303  18.525
31370W        W32235   7.071   4.640  19.515
31371W        W32236   5.763   5.810  18.392
31372W        W32237   6.699   6.010  21.140
31373W        W32238   6.353   6.711  18.607
31374W        W32239   4.968   4.386  21.513
31375W        W32240   4.788   4.970  20.754
31376W        W32241   6.880   6.465  21.031
31377W        W32242   5.980   4.415  21.408
31378W        W32243   3.824   4.886  21.185
31379W        W32244   5.584   5.363  20.911
31380W        W32245   3.941   6.121  19.568
31381W        W32246   4.088   5.418  20.458
31382W        W32247   6.405   5.704  20.808
31383W        W32248   6.177   7.084  21.619
31384W        W32249   6.073   4.823  21.172
31385W        W32250   6.350   6.877  19.577
31386W        W32251   5.352   6.597  20.900
31387W        W32252   4.837   6.952  20.169
31388W        W32253   6.642   6.123  20.588
31389W        W32254   5.692   6.195  21.725
31390W        W32255   4.297   6.148  20.064
31391W        W32256   6.643   5.907  19.709
31392W        W32257   6.284   6.973  20.460
31393W        W32258   4.262   6.702  20.330
31394W        W32259   5.283   4.754  21.540
31395W        W32260   5.734   6.920  19.051
31396W        W32261   5.042   6.175  21.689
31397W        W32262   5.168   6.413  19.066
31398W        W32263   4.389   5.153  18.325
31399W        W32264   3.728   7.239  25.225
31400W        W32265   4.104   6.132  24.748
31401W        W32266   6.809   5.862  22.518
31402W        W32267   6.939   6.947  24.545
31403W        W32268   4.857   6.938  22.071
31404W        W32269   4.940   5.090  23.054
31405W        W32270   4.455   4.938  23.218
31406W        W32271   5.446   5.753  22.652
31407W        W32272   5.121   6.845  25.007
31408W        W32273   3.770   4.406  24.970
31409W        W32274   4.532   3.686  24.772
31410W        W32275   6.226   4.074  23.659
31411W        W32276   5.875   4.945  22.229
31412W        W32277   6.445   4.379  25.320
31413W        W32278   3.811   4.171  24.445
31414W        W32279   3.910   6.790  25.466
31415W        W32280   5.432   6.180  22.198
31416W        W32281   3.864   4.963  23.891
31417W        W32282   4.757   4.854  25.128
31418W        W32283   7.216   4.713  23.627
31419W        W32284   6.980   5.756  24.486
31420W        W32285   5.288   5.089  23.513
31421W        W32286   5.834   6.428  23.882
31422W        W32287   4.334   5.862  24.114
31423W        W32288   3.693   5.390  23.685
31424W        W32289   4.729   5.362  24.877
31425W        W32290   7.000   5.145  25.131
31426W        W32291   4.616   6.589  23.576
31427W        W32292   5.737   6.278  24.710
31428W        W32293   4.957   4.918  23.935
31429W        W32294   5.249   5.702  23.578
31430W        W32295   6.246   6.475  25.426
31431W        W32296   5.325   5.795  25.436
31432W        W32297   5.306   5.511  24.914
31433W        W32298   3.715   4.902  25.436
31434W        W32299   6.547   6.437  25.035
31435W        W32300   4.128   4.019  23.033
31436W        W32301   4.655   6.277  24.032
31437W        W32302   7.118   6.060  23.322
31438W        W32303   6.531   4.460  23.889
31439W        W32304   6.816   4.413  21.984
31440W        W32305   7.281   5.214  24.290
31441W        W32306   5.248   6.921  24.043
31442W        W32307   7.022   6.387  22.481
31443W        W32308   4.151   7.173  22.235
31444W        W32309   4.544   7.219  22.911
31445W        W32310   4.341   3.973  24.337
31446W        W32311   6.964   4.991  24.612
31447W        W32312   6.369   5.413  23.071
31448W        W32313   6.335   5.101  22.098
31449W        W32314   5.543   6.245  24.238
31450W        W32315   5.349   4.575  23.437
31451W        W32316   5.949   6.662  24.431
31452W        W32317   6.820   5.453  22.853
31453W        W32318   5.722   4.111  22.869
31454W        W32319   4.379   6.805  22.552
31455W        W32320   3.750   4.304  23.151
31456W        W32321   6.536   4.911  23.625
31457W        W32322   3.994   6.528  23.540
31458W        W32323   5.335   6.878  22.410
31459W        W32324   6.727   4.904  21.874
31460W        W32325   3.750   6.662  24.038
31461W        W32326   4.541   6.234  24.518
31462W        W32327   4.914   5.594  23.137
31463W        W32328   4.936   3.999  24.230
31464W        W32329   7.165   3.761  23.527
31465W        W32330   4.384   5.633  21.995
31466W        W32331   4.039   4.666  22.174
31467W        W32332   4.101   6.622  22.968
31468W        W32333   5.232   6.105  23.216
31469W        W32334   6.564   6.964  24.930
31470W        W32335   5.490   4.606  22.614
31471W        W32336   6.873   7.004  23.386
31472W        W32337   6.550   4.857  24.984
31473W        W32338   7.263   6.513  23.118
31474W        W32339   5.890   5.805  24.602
31475W        W32340   3.656   5.356  22.808
31476W        W32341   4.767   5.771  24.381
31477W        W32342   5.971   5.035  22.759
31478W        W32343   5.848   5.525  22.863
31479W        W32344   4.191   4.945  24.337
31480W        W32345   4.176   4.821  25.259
31481W        W32346   4.066   3.738  23.418
31482W        W32347   5.834   4.085  23.979
31483W        W32348   5.482   4.270  25.142
31484W        W32349   5.837   4.419  22.320
31485W        W32350   7.020   6.812  25.074
31486W        W32351   5.987   3.893  25.113
31487W        W32352   7.006   6.194  25.235
31488W        W32353   6.436   4.361  24.831
31489W        W32354   6.236   4.299  23.101
31490W        W32355   6.629   5.433  25.505
31491W        W32356   4.369   7.009  23.491
31492W        W32357   5.027   4.726  22.477
31493W        W32358   4.596   4.010  25.141
31494W        W32359   6.648   4.494  22.822
31495W        W32360   7.015   4.976  22.767
31496W        W32361   4.758   7.193  25.238
31497W        W32362   4.684   3.729  22.473
31498W        W32363   7.005   4.263  23.508
31499W        W32364   7.155   6.512  21.953
31500W        W32365   4.062   5.715  23.655
31501W        W32366   5.979   4.302  21.885
31502W        W32367   7.113   6.634  23.605
31503W        W32368   7.152   3.828  24.355
31504W        W32369   5.597   5.040  24.909
31505W        W32370   5.690   6.379  22.612
31506W        W32371   6.090   5.673  25.352
31507W        W32372   5.764   3.650  23.661
31508W        W32373   4.376   4.553  23.724
31509W        W32374   3.930   5.753  24.498
31510W        W32375   5.789   6.946  23.204
31511W        W32376   6.983   4.543  24.076
31512W        W32377   5.620   6.890  24.843
31513W        W32378   6.963   5.949  22.048
31514W        W32379   5.398   5.432  23.109
31515W        W32380   7.250   3.943  24.850
31516W        W32381   5.399   5.778  24.444
31517W        W32382   5.616   4.664  23.889
31518W        W32383   6.468   4.962  22.727
31519W        W32384   6.755   4.695  22.369
31520W        W32385   6.564   6.735  22.758
31521W        W32386   6.398   6.338  23.554
31522W        W32387   6.294   5.417  22.532
31523W        W32388   5.727   5.627  23.518
31524W        W32389   6.608   5.415  23.585
31525W        W32390   3.983   4.430  24.009
31526W        W32391   7.112   7.100  23.982
31527W        W32392   5.042   6.544  23.384
31528W        W32393   6.049   7.077  24.708
31529W        W32394   6.043   4.407  24.472
31530W        W32395   5.250   7.115  24.533
31531W        W32396   6.947   4.069  22.999
31532W        W32397   3.721   4.709  24.338
31533W        W32398   6.581   4.504  23.356
31534W        W32399   6.992   4.655  25.133
31535W        W32400   5.877   6.354  23.351
31536W        W32401   5.133   6.945  22.964
31537W        W32402   4.248   4.125  22.222
31538W        W32403   5.352   3.779  24.032
31539W        W32404   4.380   6.899  21.880
31540W        W32405   4.754   5.365  22.631
31541W        W32406   5.408   5.994  24.944
31542W        W32407   5.238   4.352  22.934
31543W        W32408   6.594   3.949  23.362
31544W        W32409   6.314   7.231  23.690
31545W        W32410   5.726   6.879  24.030
31546W        W32411   5.122   5.916  23.991
31547W        W32412   6.892   6.639  24.117
31548W        W32413   4.586   4.142  22.886
31549W        W32414   5.108   6.439  23.846
31550W        W32415   4.591   4.370  21.911
31551W        W32416   5.392   4.979  24.305
31552W        W32417   6.240   3.845  24.175
31553W        W32418   3.660   5.688  24.060
31554W        W32419   5.364   5.506  22.218
31555W        W32420   4.632   3.821  21.988
31556W        W32421   5.370   4.902  23.039
31557W        W32422   6.340   3.878  24.738
31558W        W32423   4.928   5.890  24.847
31559W        W32424   5.732   5.672  25.064
31560W        W32425   6.349   5.702  24.957
31561W        W32426   5.633   3.842  25.462
31562W        W32427   4.855   4.458  23.855
31563W        W32428   4.281   4.414  23.253
31564W        W32429   4.067   7.126  22.929
31565W        W32430   5.399   6.456  25.054
31566W        W32431   4.434   5.941  22.413
31567W        W32432   6.114   5.326  23.634
31568W        W32433   6.394   5.125  24.033
31569W        W32434   5.599   5.799  23.967
31570W        W32435   6.069   6.173  22.099
31571W        W32436   5.741   4.194  23.427
31572W        W32437   7.220   4.472  22.695
31573W        W32438   3.714   7.061  24.726
31574W        W32439   4.131   6.287  24.258
31575W        W32440   3.698   7.133  22.490
31576W        W32441   5.597   4.403  24.296
31577W        W32442   4.960   6.426  22.145
31578W        W32443   6.865   6.808  22.331
31579W        W32444   5.840   5.461  22.345
31580W        W32445   4.683   4.652  22.862
31581W        W32446   5.515   4.562  21.914
31582W        W32447   6.099   6.127  25.092
31583W        W32448   6.452   4.033  22.709
31584W        W32449   3.782   3.881  22.157
31585W        W32450   5.068   6.200  24.447
31586W        W32451   4.867   6.116  23.539
31587W        W32452   4.609   6.068  21.937
31588W        W32453   3.850   6.309  22.705
31589W        W32454   4.354   5.379  25.147
31590W        W32455   5.058   3.939  25.333
31591W        W32456   5.767   4.081  24.689
31592W        W32457   4.962   3.849  22.970
31593W        W32458   6.021   3.926  22.475
31594W        W32459   3.966   3.858  24.052
31595W        W32460   4.014   4.821  23.422
31596W        W32461   6.703   3.929  23.828
31597W        W32462   4.125   4.427  22.642
31598W        W32463   6.696   4.115  24.258
31599W        W32464   7.092   5.318  21.943
31600W        W32465   4.384   4.076  23.762
31601W        W32466   5.498   4.648  24.702
31602W        W32467   3.646   4.338  22.180
31603W        W32468   4.432   5.727  24.741
31604W        W32469   5.790   5.125  23.920
31605W        W32470   5.657   7.204  22.216
31606W        W32471   3.803   5.711  21.913
31607W        W32472   4.538   6.122  25.039
31608W        W32473   4.059   5.289  24.670
31609W        W32474   5.050   5.394  24.464
31610W        W32475   6.818   3.753  24.726
31611W        W32476   7.216   5.363  24.717
31612W        W32477   7.204   5.563  22.403
31613W        W32478   6.067   5.895  22.502
31614W        W32479   6.541   7.195  22.197
31615W        W32480   5.718   5.185  25.339
31616W        W32481   4.048   6.152  25.379
31617W        W32482   7.254   4.074  25.331
31618W        W32483   6.972   5.002  23.952
31619W        W32484   5.280   7.132  25.429
31620W        W32485   5.135   3.761  22.156
31621W        W32486   6.674   6.360  22.099
31622W        W32487   4.443   4.453  24.985
31623W        W32488   4.877   6.447  24.847
31624W        W32489   7.003   4.438  24.645
31625W        W32490   6.214   7.097  22.613
31626W        W32491   6.453   5.716  23.980
31627W        W32492   4.703   4.132  24.647
31628W        W32493   5.172   5.201  25.404
31629W        W32494   4.675   6.380  22.598
31630W        W32495   6.430   5.878  22.862
31631W        W32496   4.198   4.504  24.586
31632W        W32497   5.527   6.566  23.050
31633W        W32498   7.277   5.126  23.231
31634W        W32499   5.499   3.759  24.950
31635W        W32500   6.279   6.464  24.029
31636W        W32501   6.582   6.808  23.737
31637W        W32502   5.801   6.610  22.165
31638W        W32503   3.811   6.502  25.007
31639W        W32504   4.554   4.494  24.245
31640W        W32505   4.524   3.842  23.355
31641W        W32506   6.145   4.684  24.047
31642W        W32507   4.943   5.855  22.247
31643W        W32508   6.941   5.797  23.746
31644W        W32509   4.268   6.555  25.169
31645W        W32510   6.655   7.237  22.966
31646W        W32511   4.523   5.750  23.501
31647W        W32512   4.836   7.161  24.251
31648W        W32513   6.903   7.257  25.283
31649W        W32514   6.062   5.445  24.216
31650W        W32515   3.911   5.243  22.131
31651W        W32516   7.045   6.901  22.828
31652W        W32517   6.882   4.225  22.447
31653W        W32518   5.021   3.744  24.850
31654W        W32519   6.727   6.546  23.308
31655W        W32520   6.756   5.102  23.213
31656W        W32521   4.873   4.775  23.429
31657W        W32522   5.118   5.037  24.753
31658W        W32523   6.229   6.190  24.616
31659W        W32524   4.879   4.644  24.728
31660W        W32525   4.858   7.110  23.344
31661W        W32526   4.175   7.069  24.978
31662W        W32527   4.287   6.430  22.108
31663W        W32528   6.804   6.188  22.918
31664W        W32529   4.408   4.980  24.804
31665W        W32530   7.181   4.910  22.285
31666W        W32531   4.926   5.967  22.756
31667W        W32532   6.025   5.349  24.837
31668W        W32533   5.916   4.977  24.381
31669W        W32534   4.476   5.349  24.410
31670W        W32535   6.686   7.237  24.239
31671W        W32536   6.477   3.871  25.233
31672W        W32537   4.141   4.021  24.820
31673W        W32538   4.480   5.044  23.873
31674W        W32539   4.849   4.858  21.995
31675W        W32540   3.652   6.617  24.540
31676W        W32541   5.237   5.326  23.983
31677W        W32542   5.060   4.351  22.088
31678W        W32543   4.195   5.167  22.869
31679W        W32544   3.966   7.019  24.306
31680W        W32545   6.761   5.245  22.414
31681W        W32546   6.856   4.161  25.100
31682W        W32547   6.292   6.370  23.063
31683W        W32548   3.890   5.294  25.240
31684W        W32549   6.856   3.758  22.536
31685W        W32550   6.376   6.233  22.547
31686W        W32551   5.278   5.291  22.632
31687W        W32552   6.465   4.095  22.155
31688W        W32553   6.530   4.702  24.341
31689W        W32554   4.239   5.295  23.548
31690W        W32555   4.533   6.234  23.197
31691W        W32556   6.296   4.854  23.162
31692W        W32557   5.319   4.233  23.858
31693W        W32558   7.281   6.144  24.369
31694W        W32559   7.199   4.131  23.930
31695W        W32560   3.738   6.961  23.306
31696W        W32561   4.247   6.148  22.842
31697W        W32562   4.162   3.765  25.395
31698W        W32563   5.281   6.618  25.497
31699W        W32564   7.036   5.586  23.287
31700W        W32565   6.390   5.763  22.167
31701W        W32566   5.685   7.284  24.379
31702W        W32567   6.542   6.006  25.416
31703W        W32568   5.357   3.716  22.696
31704W        W32569   6.070   4.585  23.555
31705W        W32570   3.756   6.172  23.887
31706W        W32571   5.009   4.134  22.528
31707W        W32572   4.813   5.618  25.377
31708W        W32573   5.807   4.599  23.091
31709W        W32574   6.012   6.009  24.213
31710W        W32575   4.166   6.614  24.648
31711W        W32576   4.757   6.597  25.371
31712W        W32577   4.608   4.394  22.385
31713W        W32578   6.125   4.536  22.710
31714W        W32579   6.083   6.644  24.947
31715W        W32580   4.768   5.236  23.546
31716W        W32581   4.423   6.934  24.411
31717W        W32582   7.168   7.051  22.012
31718W        W32583   4.031   5.723  25.008
31719W        W32584   6.026   5.985  23.696
31720W        W32585   4.462   5.634  22.938
31721W        W32586   4.833   6.641  24.333
31722W        W32587   5.211   4.060  23.374
31723W        W32588   3.822   6.044  22.304
31724W        W32589   5.341   4.995  22.174
31725W        W32590   3.987   5.544  23.193
31726W        W32591   5.277   4.186  24.657
31727W        W32592   6.949   3.895  22.084
31728W        W32593   7.042   5.641  25.183
31729W        W32594   5.696   6.898  25.335
31730W        W32595   7.254   5.992  24.857
31731W        W32596   6.662   6.790  25.468
31732W        W32597   4.401   7.246  23.946
31733W        W32598   7.260   5.868  22.820
31734W        W32599   5.790   5.135  23.333
31735W        W32600   5.557   3.747  23.223
31736W        W32601   4.616   6.731  23.060
31737W        W32602   5.115   4.472  24.285
31738W        W32603   4.815   3.841  23.754
31739W        W32604   3.878   6.663  22.302
31740W        W32605   5.694   6.027  23.020
31741W        W32606   4.569   6.822  24.899
31742W        W32607   4.046   5.645  22.595
31743W        W32608   3.931   4.188  23.594
31744W        W32609   5.479   6.153  23.651
31745W        W32610   3.731   4.007  22.671
31746W        W32611   6.395   5.213  24.598
31747W        W32612   6.272   4.599  22.170
31748W        W32613   6.789   6.271  23.818
31749W        W32614   5.450   6.755  23.649
31750W        W32615   4.862   6.859  22.560
31751W        W32616   6.144   3.762  21.990
31752W        W32617   3.944   7.022  23.731
31753W        W32618   6.141   4.780  25.366
31754W        W32619   4.124   4.310  25.365
31755W        W32620   3.855   4.910  22.698
31756W        W32621   4.546   4.899  22.423
31757W        W32622   6.309   5.226  25.240
31758W        W32623   4.652   5.507  23.949
31759W        W32624   6.126   3.793  23.069
31760W        W32625   5.257   7.224  23.572
31761W        W32626   6.471   6.686  24.509
31762W        W32627   6.055   6.835  23.620
31763W        W32628   6.074   5.815  23.214
31764W        W32629   5.536   4.040  22.285
31765W        W32630   7.217   3.668  23.007
31766W        W32631   4.905   5.303  22.170
31767W        W32632   7.071   4.640  23.160
31768W        W32633   5.763   5.810  22.037
31769W        W32634   6.699   6.010  24.785
31770W        W32635   6.353   6.711  22.252
31771W        W32636   4.968   4.386  25.158
31772W        W32637   4.788   4.970  24.399
31773W        W32638   6.880   6.465  24.676
31774W        W32639   5.980   4.415  25.053
31775W        W32640   3.824   4.886  24.830
31776W        W32641   5.584   5.363  24.556
31777W        W32642   3.941   6.121  23.213
31778W        W32643   4.088   5.418  24.103
31779W        W32644   6.405   5.704  24.453
31780W        W32645   6.177   7.084  25.264
31781W        W32646   6.073   4.823  24.817
31782W        W32647   6.350   6.877  23.222
31783W        W32648   5.352   6.597  24.545
31784W        W32649   4.837   6.952  23.814
31785W        W32650   6.642   6.123  24.233
31786W        W32651   5.692   6.195  25.370
31787W        W32652   4.297   6.148  23.709
31788W        W32653   6.643   5.907  23.354
31789W        W32654   6.284   6.973  24.105
31790W        W32655   4.262   6.702  23.975
31791W        W32656   5.283   4.754  25.185
31792W        W32657   5.734   6.920  22.696
31793W        W32658   5.042   6.175  25.334
31794W        W32659   5.168   6.413  22.711
31795W        W32660   4.389   5.153  21.970
31796W        W32661   3.728   7.239  28.869
31797W        W32662   4.104   6.132  28.392
31798W        W32663   6.809   5.862  26.162
31799W        W32664   6.939   6.947  28.189
31800W        W32665   4.857   6.938  25.715
31801W        W32666   4.940   5.090  26.698
31802W        W32667   4.455   4.938  26.862
31803W        W32668   5.446   5.753  26.296
31804W        W32669   5.121   6.845  28.651
31805W        W32670   3.770   4.406  28.614
31806W        W32671   4.532   3.686  28.416
31807W        W32672   6.226   4.074  27.303
31808W        W32673   5.875   4.945  25.873
31809W        W32674   6.445   4.379  28.964
31810W        W32675   3.811   4.171  28.089
31811W        W32676   3.910   6.790  29.110
31812W        W32677   5.432   6.180  25.842
31813W        W32678   3.864   4.963  27.535
31814W        W32679   4.757   4.854  28.772
31815W        W32680   7.216   4.713  27.271
31816W        W32681   6.980   5.756  28.130
31817W        W32682   5.288   5.089  27.157
31818W        W32683   5.834   6.428  27.526
31819W        W32684   4.334   5.862  27.758
31820W        W32685   3.693   5.390  27.329
31821W        W32686   4.729   5.362  28.521
31822W        W32687   7.000   5.145  28.775
31823W        W32688   4.616   6.589  27.220
31824W        W32689   5.737   6.278  28.354
31825W        W32690   4.957   4.918  27.579
31826W        W32691   5.249   5.702  27.222
31827W        W32692   6.246   6.475  29.070
31828W        W32693   5.325   5.795  29.080
31829W        W32694   5.306   5.511  28.558
31830W        W32695   3.715   4.902  29.080
31831W        W32696   6.547   6.437  28.679
31832W        W32697   4.128   4.019  26.677
31833W        W32698   4.655   6.277  27.676
31834W        W32699   7.118   6.060  26.966
31835W        W32700   6.531   4.460  27.533
31836W        W32701   6.816   4.413  25.628
31837W        W32702   7.281   5.214  27.934
31838W        W32703   5.248   6.921  27.687
31839W        W32704   7.022   6.387  26.125
31840W        W32705   4.151   7.173  25.879
31841W        W32706   4.544   7.219  26.555
31842W        W32707   4.341   3.973  27.981
31843W        W32708   6.964   4.991  28.256
31844W        W32709   6.369   5.413  26.715
31845W        W32710   6.335   5.101  25.742
31846W        W32711   5.543   6.245  27.882
31847W        W32712   5.349   4.575  27.081
31848W        W32713   5.949   6.662  28.075
31849W        W32714   6.820   5.453  26.497
31850W        W32715   5.722   4.111  26.513
31851W        W32716   4.379   6.805  26.196
31852W        W32717   3.750   4.304  26.795
31853W        W32718   6.536   4.911  27.269
31854W        W32719   3.994   6.528  27.184
31855W        W32720   5.335   6.878  26.054
31856W        W32721   6.727   4.904  25.518
31857W        W32722   3.750   6.662  27.682
31858W        W32723   4.541   6.234  28.162
31859W        W32724   4.914   5.594  26.781
31860W        W32725   4.936   3.999  27.874
31861W        W32726   7.165   3.761  27.171
31862W        W32727   4.384   5.633  25.639
31863W        W32728   4.039   4.666  25.818
31864W        W32729   4.101   6.622  26.612
31865W        W32730   5.232   6.105  26.860
31866W        W32731   6.564   6.964  28.574
31867W        W32732   5.490   4.606  26.258
31868W        W32733   6.873   7.004  27.030
31869W        W32734   6.550   4.857  28.628
31870W        W32735   7.263   6.513  26.762
31871W        W32736   5.890   5.805  28.246
31872W        W32737   3.656   5.356  26.452
31873W        W32738   4.767   5.771  28.025
31874W        W32739   5.971   5.035  26.403
31875W        W32740   5.848   5.525  26.507
31876W        W32741   4.191   4.945  27.981
31877W        W32742   4.176   4.821  28.903
31878W        W32743   4.066   3.738  27.062
31879W        W32744   5.834   4.085  27.623
31880W        W32745   5.482   4.270  28.786
31881W        W32746   5.837   4.419  25.964
31882W        W32747   7.020   6.812  28.718
31883W        W32748   5.987   3.893  28.757
31884W        W32749   7.006   6.194  28.879
31885W        W32750   6.436   4.361  28.475
31886W        W32751   6.236   4.299  26.745
31887W        W32752   6.629   5.433  29.149
31888W        W32753   4.369   7.009  27.135
31889W        W32754   5.027   4.726  26.121
31890W        W32755   4.596   4.010  28.785
31891W        W32756   6.648   4.494  26.466
31892W        W32757   7.015   4.976  26.411
31893W        W32758   4.758   7.193  28.882
31894W        W32759   4.684   3.729  26.117
31895W        W32760   7.005   4.263  27.152
31896W        W32761   7.155   6.512  25.597
31897W        W32762   4.062   5.715  27.299
31898W        W32763   5.979   4.302  25.529
31899W        W32764   7.113   6.634  27.249
31900W        W32765   7.152   3.828  27.999
31901W        W32766   5.597   5.040  28.553
31902W        W32767   5.690   6.379  26.256
31903W        W32768   6.090   5.673  28.996
31904W        W32769   5.764   3.650  27.305
31905W        W32770   4.376   4.553  27.368
31906W        W32771   3.930   5.753  28.142
31907W        W32772   5.789   6.946  26.848
31908W        W32773   6.983   4.543  27.720
31909W        W32774   5.620   6.890  28.487
31910W        W32775   6.963   5.949  25.692
31911W        W32776   5.398   5.432  26.753
31912W        W32777   7.250   3.943  28.494
31913W        W32778   5.399   5.778  28.088
31914W        W32779   5.616   4.664  27.533
31915W        W32780   6.468   4.962  26.371
31916W        W32781   6.755   4.695  26.013
31917W        W32782   6.564   6.735  26.402
31918W        W32783   6.398   6.338  27.198
31919W        W32784   6.294   5.417  26.176
31920W        W32785   5.727   5.627  27.162
31921W        W32786   6.608   5.415  27.229
31922W        W32787   3.983   4.430  27.653
31923W        W32788   6.761   5.482  28.480
31924W        W32789   7.112   7.100  27.626
31925W        W32790   5.042   6.544  27.028
31926W        W32791   6.049   7.077  28.352
31927W        W32792   6.043   4.407  28.116
31928W        W32793   5.250   7.115  28.177
31929W        W32794   6.947   4.069  26.643
31930W        W32795   6.738   5.388  27.944
31931W        W32796   3.721   4.709  27.982
31932W        W32797   6.581   4.504  27.000
31933W        W32798   6.992   4.655  28.777
31934W        W32799   5.877   6.354  26.995
31935W        W32800   5.133   6.945  26.608
31936W        W32801   4.248   4.125  25.866
31937W        W32802   5.352   3.779  27.676
31938W        W32803   4.380   6.899  25.524
31939W        W32804   4.754   5.365  26.275
31940W        W32805   5.408   5.994  28.588
31941W        W32806   5.238   4.352  26.578
31942W        W32807   6.594   3.949  27.006
31943W        W32808   6.314   7.231  27.334
31944W        W32809   5.726   6.879  27.674
31945W        W32810   5.122   5.916  27.635
31946W        W32811   6.892   6.639  27.761
31947W        W32812   4.586   4.142  26.530
31948W        W32813   5.108   6.439  27.490
31949W        W32814   4.591   4.370  25.555
31950W        W32815   5.392   4.979  27.949
31951W        W32816   6.240   3.845  27.819
31952W        W32817   3.660   5.688  27.704
31953W        W32818   5.364   5.506  25.862
31954W        W32819   4.632   3.821  25.632
31955W        W32820   5.370   4.902  26.683
31956W        W32821   6.340   3.878  28.382
31957W        W32822   4.928   5.890  28.491
31958W        W32823   5.732   5.672  28.708
31959W        W32824   6.349   5.702  28.601
31960W        W32825   5.633   3.842  29.106
31961W        W32826   4.855   4.458  27.499
31962W        W32827   4.281   4.414  26.897
31963W        W32828   4.067   7.126  26.573
31964W        W32829   5.399   6.456  28.698
31965W        W32830   4.434   5.941  26.057
31966W        W32831   6.114   5.326  27.278
31967W        W32832   6.394   5.125  27.677
31968W        W32833   5.599   5.799  27.611
31969W        W32834   6.069   6.173  25.743
31970W        W32835   5.741   4.194  27.071
31971W        W32836   7.220   4.472  26.339
31972W        W32837   3.714   7.061  28.370
31973W        W32838   4.131   6.287  27.902
31974W        W32839   3.698   7.133  26.134
31975W        W32840   5.597   4.403  27.940
31976W        W32841   4.960   6.426  25.789
31977W        W32842   6.865   6.808  25.975
31978W        W32843   5.840   5.461  25.989
31979W        W32844   4.683   4.652  26.506
31980W        W32845   5.515   4.562  25.558
31981W        W32846   6.099   6.127  28.736
31982W        W32847   6.452   4.033  26.353
31983W        W32848   3.782   3.881  25.801
31984W        W32849   5.068   6.200  28.091
31985W        W32850   4.867   6.116  27.183
31986W        W32851   4.609   6.068  25.581
31987W        W32852   3.850   6.309  26.349
31988W        W32853   4.354   5.379  28.791
31989W        W32854   5.058   3.939  28.977
31990W        W32855   5.767   4.081  28.333
31991W        W32856   4.962   3.849  26.614
31992W        W32857   6.021   3.926  26.119
31993W        W32858   3.966   3.858  27.696
31994W        W32859   4.014   4.821  27.066
31995W        W32860   6.703   3.929  27.472
31996W        W32861   4.125   4.427  26.286
31997W        W32862   6.696   4.115  27.902
31998W        W32863   7.092   5.318  25.587
31999W        W32864   4.384   4.076  27.406
32000W        W32865   5.498   4.648  28.346
32001W        W32866   3.646   4.338  25.824
32002W        W32867   4.432   5.727  28.385
32003W        W32868   5.790   5.125  27.564
32004W        W32869   5.657   7.204  25.860
32005W        W32870   3.803   5.711  25.557
32006W        W32871   4.538   6.122  28.683
32007W        W32872   4.059   5.289  28.314
32008W        W32873   5.050   5.394  28.108
32009W        W32874   6.818   3.753  28.370
32010W        W32875   7.216   5.363  28.361
32011W        W32876   7.204   5.563  26.047
32012W        W32877   6.067   5.895  26.146
32013W        W32878   6.541   7.195  25.841
32014W        W32879   5.718   5.185  28.983
32015W        W32880   4.048   6.152  29.023
32016W        W32881   7.254   4.074  28.975
32017W        W32882   6.972   5.002  27.596
32018W        W32883   5.280   7.132  29.073
32019W        W32884   5.135   3.761  25.800
32020W        W32885   6.674   6.360  25.743
32021W        W32886   4.443   4.453  28.629
32022W        W32887   4.877   6.447  28.491
32023W        W32888   7.003   4.438  28.289
32024W        W32889   6.214   7.097  26.257
32025W        W32890   6.453   5.716  27.624
32026W        W32891   4.703   4.132  28.291
32027W        W32892   5.172   5.201  29.048
32028W        W32893   4.675   6.380  26.242
32029W        W32894   6.430   5.878  26.506
32030W        W32895   4.198   4.504  28.230
32031W        W32896   5.527   6.566  26.694
32032W        W32897   7.277   5.126  26.875
32033W        W32898   5.499   3.759  28.594
32034W        W32899   6.279   6.464  27.673
32035W        W32900   6.582   6.808  27.381
32036W        W32901   5.801   6.610  25.809
32037W        W32902   3.811   6.502  28.651
32038W        W32903   4.554   4.494  27.889
32039W        W32904   4.524   3.842  26.999
32040W        W32905   6.145   4.684  27.691
32041W        W32906   4.943   5.855  25.891
32042W        W32907   6.941   5.797  27.390
32043W        W32908   4.268   6.555  28.813
32044W        W32909   6.655   7.237  26.610
32045W        W32910   4.754   4.257  27.055
32046W        W32911   4.523   5.750  27.145
32047W        W32912   4.836   7.161  27.895
32048W        W32913   6.903   7.257  28.927
32049W        W32914   6.062   5.445  27.860
32050W        W32915   3.911   5.243  25.775
32051W        W32916   7.045   6.901  26.472
32052W        W32917   6.882   4.225  26.091
32053W        W32918   5.021   3.744  28.494
32054W        W32919   6.727   6.546  26.952
32055W        W32920   6.756   5.102  26.857
32056W        W32921   4.873   4.775  27.073
32057W        W32922   5.118   5.037  28.397
32058W        W32923   6.229   6.190  28.260
32059W        W32924   4.879   4.644  28.372
32060W        W32925   4.858   7.110  26.988
32061W        W32926   4.175   7.069  28.622
32062W        W32927   4.287   6.430  25.752
32063W        W32928   6.804   6.188  26.562
32064W        W32929   4.408   4.980  28.448
32065W        W32930   7.181   4.910  25.929
32066W        W32931   4.926   5.967  26.400
32067W        W32932   6.025   5.349  28.481
32068W        W32933   5.916   4.977  28.025
32069W        W32934   4.476   5.349  28.054
32070W        W32935   6.686   7.237  27.883
32071W        W32936   6.477   3.871  28.877
32072W        W32937   4.141   4.021  28.464
32073W        W32938   4.480   5.044  27.517
32074W        W32939   4.849   4.858  25.639
32075W        W32940   3.652   6.617  28.184
32076W        W32941   5.237   5.326  27.627
32077W        W32942   5.060   4.351  25.732
32078W        W32943   4.195   5.167  26.513
32079W        W32944   3.966   7.019  27.950
32080W        W32945   6.761   5.245  26.058
32081W        W32946   6.856   4.161  28.744
32082W        W32947   6.292   6.370  26.707
32083W        W32948   3.890   5.294  28.884
32084W        W32949   6.856   3.758  26.180
32085W        W32950   6.376   6.233  26.191
32086W        W32951   5.278   5.291  26.276
32087W        W32952   6.465   4.095  25.799
32088W        W32953   6.530   4.702  27.985
32089W        W32954   4.239   5.295  27.192
32090W        W32955   4.533   6.234  26.841
32091W        W32956   6.296   4.854  26.806
32092W        W32957   5.319   4.233  27.502
32093W        W32958   7.281   6.144  28.013
32094W        W32959   7.199   4.131  27.574
32095W        W32960   3.738   6.961  26.950
32096W        W32961   4.247   6.148  26.486
32097W        W32962   4.162   3.765  29.039
32098W        W32963   5.281   6.618  29.141
32099W        W32964   7.036   5.586  26.931
32100W        W32965   6.390   5.763  25.811
32101W        W32966   5.685   7.284  28.023
32102W        W32967   6.542   6.006  29.060
32103W        W32968   5.357   3.716  26.340
32104W        W32969   6.070   4.585  27.199
32105W        W32970   3.756   6.172  27.531
32106W        W32971   5.009   4.134  26.172
32107W        W32972   4.813   5.618  29.021
32108W        W32973   5.807   4.599  26.735
32109W        W32974   6.012   6.009  27.857
32110W        W32975   4.166   6.614  28.292
32111W        W32976   4.757   6.597  29.015
32112W        W32977   4.608   4.394  26.029
32113W        W32978   6.125   4.536  26.354
32114W        W32979   6.083   6.644  28.591
32115W        W32980   4.768   5.236  27.190
32116W        W32981   4.423   6.934  28.055
32117W        W32982   7.168   7.051  25.656
32118W        W32983   4.031   5.723  28.652
32119W        W32984   6.026   5.985  27.340
32120W        W32985   4.462   5.634  26.582
32121W        W32986   4.833   6.641  27.977
32122W        W32987   5.211   4.060  27.018
32123W        W32988   3.822   6.044  25.948
32124W        W32989   5.341   4.995  25.818
32125W        W32990   3.987   5.544  26.837
32126W        W32991   5.277   4.186  28.301
32127W        W32992   6.949   3.895  25.728
32128W        W32993   7.042   5.641  28.827
32129W        W32994   5.696   6.898  28.979
32130W        W32995   7.254   5.992  28.501
32131W        W32996   6.662   6.790  29.112
32132W        W32997   4.401   7.246  27.590
32133W        W32998   7.260   5.868  26.464
32134W        W32999   5.790   5.135  26.977
32135W        W33000   5.557   3.747  26.867
32136W        W33001   4.616   6.731  26.704
32137W        W33002   5.115   4.472  27.929
32138W        W33003   4.815   3.841  27.398
32139W        W33004   3.878   6.663  25.946
32140W        W33005   5.694   6.027  26.664
32141W        W33006   4.569   6.822  28.543
32142W        W33007   4.046   5.645  26.239
32143W        W33008   3.931   4.188  27.238
32144W        W33009   5.479   6.153  27.295
32145W        W33010   3.731   4.007  26.315
32146W        W33011   6.395   5.213  28.242
32147W        W33012   6.272   4.599  25.814
32148W        W33013   6.789   6.271  27.462
32149W        W33014   5.450   6.755  27.293
32150W        W33015   4.862   6.859  26.204
32151W        W33016   6.144   3.762  25.634
32152W        W33017   3.944   7.022  27.375
32153W        W33018   6.141   4.780  29.010
32154W        W33019   4.124   4.310  29.009
32155W        W33020   3.855   4.910  26.342
32156W        W33021   4.546   4.899  26.067
32157W        W33022   6.309   5.226  28.884
32158W        W33023   4.652   5.507  27.593
32159W        W33024   6.126   3.793  26.713
32160W        W33025   5.257   7.224  27.216
32161W        W33026   6.471   6.686  28.153
32162W        W33027   6.055   6.835  27.264
32163W        W33028   6.074   5.815  26.858
32164W        W33029   5.536   4.040  25.929
32165W        W33030   7.217   3.668  26.651
32166W        W33031   4.905   5.303  25.814
32167W        W33032   7.071   4.640  26.804
32168W        W33033   5.763   5.810  25.681
32169W        W33034   6.699   6.010  28.429
32170W        W33035   6.353   6.711  25.896
32171W        W33036   4.968   4.386  28.802
32172W        W33037   4.788   4.970  28.043
32173W        W33038   6.880   6.465  28.320
32174W        W33039   5.980   4.415  28.697
32175W        W33040   3.824   4.886  28.474
32176W        W33041   5.584   5.363  28.200
32177W        W33042   3.941   6.121  26.857
32178W        W33043   4.088   5.418  27.747
32179W        W33044   6.405   5.704  28.097
32180W        W33045   6.177   7.084  28.908
32181W        W33046   6.073   4.823  28.461
32182W        W33047   6.350   6.877  26.866
32183W        W33048   5.352   6.597  28.189
32184W        W33049   4.837   6.952  27.458
32185W        W33050   6.642   6.123  27.877
32186W        W33051   5.692   6.195  29.014
32187W        W33052   4.297   6.148  27.353
32188W        W33053   6.643   5.907  26.998
32189W        W33054   6.284   6.973  27.749
32190W        W33055   4.262   6.702  27.619
32191W        W33056   5.283   4.754  28.829
32192W        W33057   5.734   6.920  26.340
32193W        W33058   5.042   6.175  28.978
32194W        W33059   5.168   6.413  26.355
32195W        W33060   4.389   5.153  25.614
32196W        W33061   3.728  10.884   3.359
32197W        W33062   4.104   9.777   2.882
32198W        W33063   6.809   9.507   0.652
32199W        W33064   6.939  10.592   2.679
32200W        W33065   4.857  10.583   0.205
32201W        W33066   4.940   8.735   1.188
32202W        W33067   4.455   8.583   1.352
32203W        W33068   5.446   9.398   0.786
32204W        W33069   5.121  10.490   3.141
32205W        W33070   3.770   8.051   3.104
32206W        W33071   4.532   7.331   2.906
32207W        W33072   6.226   7.719   1.793
32208W        W33073   5.875   8.590   0.363
32209W        W33074   6.445   8.024   3.454
32210W        W33075   3.811   7.816   2.579
32211W        W33076   3.910  10.435   3.600
32212W        W33077   5.432   9.825   0.332
32213W        W33078   3.864   8.608   2.025
32214W        W33079   4.757   8.499   3.262
32215W        W33080   7.216   8.358   1.761
32216W        W33081   6.980   9.401   2.620
32217W        W33082   5.288   8.734   1.647
32218W        W33083   5.834  10.073   2.016
32219W        W33084   4.334   9.507   2.248
32220W        W33085   3.693   9.035   1.819
32221W        W33086   4.729   9.007   3.011
32222W        W33087   7.000   8.790   3.265
32223W        W33088   4.616  10.234   1.710
32224W        W33089   5.737   9.923   2.844
32225W        W33090   4.957   8.563   2.069
32226W        W33091   5.249   9.347   1.712
32227W        W33092   6.246  10.120   3.560
32228W        W33093   5.325   9.440   3.570
32229W        W33094   5.306   9.156   3.048
32230W        W33095   3.715   8.547   3.570
32231W        W33096   6.547  10.082   3.169
32232W        W33097   4.128   7.664   1.167
32233W        W33098   4.655   9.922   2.166
32234W        W33099   7.118   9.705   1.456
32235W        W33100   6.531   8.105   2.023
32236W        W33101   6.816   8.058   0.118
32237W        W33102   7.281   8.859   2.424
32238W        W33103   5.248  10.566   2.177
32239W        W33104   7.022  10.032   0.615
32240W        W33105   4.151  10.818   0.369
32241W        W33106   4.544  10.864   1.045
32242W        W33107   4.341   7.618   2.471
32243W        W33108   6.964   8.636   2.746
32244W        W33109   6.369   9.058   1.205
32245W        W33110   6.335   8.746   0.232
32246W        W33111   5.543   9.890   2.372
32247W        W33112   5.349   8.220   1.571
32248W        W33113   5.949  10.307   2.565
32249W        W33114   6.820   9.098   0.987
32250W        W33115   5.722   7.756   1.003
32251W        W33116   4.379  10.450   0.686
32252W        W33117   3.750   7.949   1.285
32253W        W33118   6.536   8.556   1.759
32254W        W33119   3.994  10.173   1.674
32255W        W33120   5.335  10.523   0.544
32256W        W33121   6.727   8.549   0.008
32257W        W33122   3.750  10.307   2.172
32258W        W33123   4.541   9.879   2.652
32259W        W33124   4.914   9.239   1.271
32260W        W33125   4.936   7.644   2.364
32261W        W33126   7.165   7.406   1.661
32262W        W33127   4.384   9.278   0.129
32263W        W33128   4.039   8.311   0.308
32264W        W33129   4.101  10.267   1.102
32265W        W33130   5.232   9.750   1.350
32266W        W33131   6.564  10.609   3.064
32267W        W33132   5.490   8.251   0.748
32268W        W33133   6.873  10.649   1.520
32269W        W33134   6.550   8.502   3.118
32270W        W33135   7.263  10.158   1.252
32271W        W33136   5.890   9.450   2.736
32272W        W33137   3.656   9.001   0.942
32273W        W33138   4.767   9.416   2.515
32274W        W33139   5.971   8.680   0.893
32275W        W33140   5.848   9.170   0.997
32276W        W33141   4.191   8.590   2.471
32277W        W33142   4.176   8.466   3.393
32278W        W33143   4.066   7.383   1.552
32279W        W33144   5.834   7.730   2.113
32280W        W33145   5.482   7.915   3.276
32281W        W33146   5.837   8.064   0.454
32282W        W33147   7.020  10.457   3.208
32283W        W33148   5.987   7.538   3.247
32284W        W33149   7.006   9.839   3.369
32285W        W33150   6.436   8.006   2.965
32286W        W33151   6.236   7.944   1.235
32287W        W33152   6.629   9.078   3.639
32288W        W33153   4.369  10.654   1.625
32289W        W33154   5.027   8.371   0.611
32290W        W33155   4.596   7.655   3.275
32291W        W33156   6.648   8.139   0.956
32292W        W33157   7.015   8.621   0.901
32293W        W33158   4.758  10.838   3.372
32294W        W33159   7.005   7.908   1.642
32295W        W33160   7.155  10.157   0.087
32296W        W33161   4.062   9.360   1.789
32297W        W33162   5.979   7.947   0.019
32298W        W33163   7.113  10.279   1.739
32299W        W33164   7.152   7.473   2.489
32300W        W33165   5.597   8.685   3.043
32301W        W33166   5.690  10.024   0.746
32302W        W33167   6.090   9.318   3.486
32303W        W33168   5.764   7.295   1.795
32304W        W33169   4.376   8.198   1.858
32305W        W33170   3.930   9.398   2.632
32306W        W33171   5.789  10.591   1.338
32307W        W33172   6.983   8.188   2.210
32308W        W33173   5.620  10.535   2.977
32309W        W33174   6.963   9.594   0.182
32310W        W33175   5.398   9.077   1.243
32311W        W33176   7.250   7.588   2.984
32312W        W33177   5.399   9.423   2.578
32313W        W33178   5.616   8.309   2.023
32314W        W33179   6.468   8.607   0.861
32315W        W33180   6.755   8.340   0.503
32316W        W33181   6.564  10.380   0.892
32317W        W33182   6.398   9.983   1.688
32318W        W33183   6.294   9.062   0.666
32319W        W33184   5.727   9.272   1.652
32320W        W33185   6.608   9.060   1.719
32321W        W33186   3.983   8.075   2.143
32322W        W33187   6.761   9.127   2.970
32323W        W33188   7.112  10.745   2.116
32324W        W33189   5.042  10.189   1.518
32325W        W33190   6.049  10.722   2.842
32326W        W33191   6.043   8.052   2.606
32327W        W33192   5.250  10.760   2.667
32328W        W33193   6.947   7.714   1.133
32329W        W33194   6.738   9.033   2.434
32330W        W33195   3.721   8.354   2.472
32331W        W33196   6.581   8.149   1.490
32332W        W33197   6.992   8.300   3.267
32333W        W33198   5.877   9.999   1.485
32334W        W33199   5.133  10.590   1.098
32335W        W33200   4.248   7.770   0.356
32336W        W33201   5.352   7.424   2.166
32337W        W33202   4.380  10.544   0.014
32338W        W33203   4.754   9.010   0.765
32339W        W33204   5.408   9.639   3.078
32340W        W33205   5.238   7.997   1.068
32341W        W33206   6.594   7.594   1.496
32342W        W33207   6.314  10.876   1.824
32343W        W33208   5.726  10.524   2.164
32344W        W33209   5.122   9.561   2.125
32345W        W33210   6.892  10.284   2.251
32346W        W33211   4.586   7.787   1.020
32347W        W33212   5.108  10.084   1.980
32348W        W33213   4.591   8.015   0.045
32349W        W33214   5.392   8.624   2.439
32350W        W33215   6.240   7.490   2.309
32351W        W33216   3.660   9.333   2.194
32352W        W33217   5.364   9.151   0.352
32353W        W33218   4.632   7.466   0.122
32354W        W33219   5.370   8.547   1.173
32355W        W33220   6.340   7.523   2.872
32356W        W33221   4.928   9.535   2.981
32357W        W33222   5.732   9.317   3.198
32358W        W33223   6.349   9.347   3.091
32359W        W33224   5.633   7.487   3.596
32360W        W33225   4.855   8.103   1.989
32361W        W33226   4.281   8.059   1.387
32362W        W33227   4.067  10.771   1.063
32363W        W33228   5.399  10.101   3.188
32364W        W33229   4.434   9.586   0.547
32365W        W33230   6.114   8.971   1.768
32366W        W33231   6.394   8.770   2.167
32367W        W33232   5.599   9.444   2.101
32368W        W33233   6.069   9.818   0.233
32369W        W33234   5.741   7.839   1.561
32370W        W33235   7.220   8.117   0.829
32371W        W33236   3.714  10.706   2.860
32372W        W33237   4.131   9.932   2.392
32373W        W33238   3.698  10.778   0.624
32374W        W33239   5.597   8.048   2.430
32375W        W33240   4.960  10.071   0.279
32376W        W33241   6.865  10.453   0.465
32377W        W33242   5.840   9.106   0.479
32378W        W33243   4.683   8.297   0.996
32379W        W33244   5.515   8.207   0.048
32380W        W33245   6.099   9.772   3.226
32381W        W33246   6.452   7.678   0.843
32382W        W33247   3.782   7.526   0.291
32383W        W33248   5.068   9.845   2.581
32384W        W33249   4.867   9.761   1.673
32385W        W33250   4.609   9.713   0.071
32386W        W33251   3.850   9.954   0.839
32387W        W33252   4.354   9.024   3.281
32388W        W33253   5.058   7.584   3.467
32389W        W33254   5.767   7.726   2.823
32390W        W33255   4.962   7.494   1.104
32391W        W33256   6.021   7.571   0.609
32392W        W33257   3.966   7.503   2.186
32393W        W33258   4.014   8.466   1.556
32394W        W33259   6.703   7.574   1.962
32395W        W33260   4.125   8.072   0.776
32396W        W33261   6.696   7.760   2.392
32397W        W33262   7.092   8.963   0.077
32398W        W33263   4.384   7.721   1.896
32399W        W33264   5.498   8.293   2.836
32400W        W33265   3.646   7.983   0.314
32401W        W33266   4.432   9.372   2.875
32402W        W33267   5.790   8.770   2.054
32403W        W33268   5.657  10.849   0.350
32404W        W33269   3.803   9.356   0.047
32405W        W33270   4.538   9.767   3.173
32406W        W33271   4.059   8.934   2.804
32407W        W33272   5.050   9.039   2.598
32408W        W33273   6.818   7.398   2.860
32409W        W33274   7.216   9.008   2.851
32410W        W33275   7.204   9.208   0.537
32411W        W33276   6.067   9.540   0.636
32412W        W33277   6.541  10.840   0.331
32413W        W33278   5.718   8.830   3.473
32414W        W33279   4.048   9.797   3.513
32415W        W33280   7.254   7.719   3.465
32416W        W33281   6.972   8.647   2.086
32417W        W33282   5.280  10.777   3.563
32418W        W33283   5.135   7.406   0.290
32419W        W33284   6.674  10.005   0.233
32420W        W33285   4.443   8.098   3.119
32421W        W33286   4.877  10.092   2.981
32422W        W33287   7.003   8.083   2.779
32423W        W33288   6.214  10.742   0.747
32424W        W33289   6.453   9.361   2.114
32425W        W33290   4.703   7.777   2.781
32426W        W33291   5.172   8.846   3.538
32427W        W33292   4.675  10.025   0.732
32428W        W33293   6.430   9.523   0.996
32429W        W33294   4.198   8.149   2.720
32430W        W33295   5.527  10.211   1.184
32431W        W33296   7.277   8.771   1.365
32432W        W33297   5.499   7.404   3.084
32433W        W33298   6.279  10.109   2.163
32434W        W33299   6.582  10.453   1.871
32435W        W33300   5.801  10.255   0.299
32436W        W33301   3.811  10.147   3.141
32437W        W33302   4.554   8.139   2.379
32438W        W33303   4.524   7.487   1.489
32439W        W33304   6.145   8.329   2.181
32440W        W33305   4.943   9.500   0.381
32441W        W33306   6.941   9.442   1.880
32442W        W33307   4.268  10.200   3.303
32443W        W33308   6.655  10.882   1.100
32444W        W33309   4.754   7.902   1.545
32445W        W33310   4.523   9.395   1.635
32446W        W33311   4.836  10.806   2.385
32447W        W33312   6.903  10.902   3.417
32448W        W33313   6.062   9.090   2.350
32449W        W33314   3.911   8.888   0.265
32450W        W33315   7.045  10.546   0.962
32451W        W33316   6.882   7.870   0.581
32452W        W33317   5.021   7.389   2.984
32453W        W33318   6.727  10.191   1.442
32454W        W33319   6.756   8.747   1.347
32455W        W33320   4.873   8.420   1.563
32456W        W33321   5.118   8.682   2.887
32457W        W33322   6.229   9.835   2.750
32458W        W33323   4.879   8.289   2.862
32459W        W33324   4.858  10.755   1.478
32460W        W33325   4.175  10.714   3.112
32461W        W33326   4.287  10.075   0.242
32462W        W33327   6.804   9.833   1.052
32463W        W33328   4.408   8.625   2.938
32464W        W33329   7.181   8.555   0.419
32465W        W33330   4.926   9.612   0.890
32466W        W33331   6.025   8.994   2.971
32467W        W33332   5.916   8.622   2.515
32468W        W33333   4.476   8.994   2.544
32469W        W33334   6.686  10.882   2.373
32470W        W33335   6.477   7.516   3.367
32471W        W33336   4.141   7.666   2.954
32472W        W33337   4.480   8.689   2.007
32473W        W33338   4.849   8.503   0.129
32474W        W33339   3.652  10.262   2.674
32475W        W33340   5.237   8.971   2.117
32476W        W33341   5.060   7.996   0.222
32477W        W33342   4.195   8.812   1.003
32478W        W33343   3.966  10.664   2.440
32479W        W33344   6.761   8.890   0.548
32480W        W33345   6.856   7.806   3.234
32481W        W33346   6.292  10.015   1.197
32482W        W33347   3.890   8.939   3.374
32483W        W33348   6.856   7.403   0.670
32484W        W33349   6.376   9.878   0.681
32485W        W33350   5.278   8.936   0.766
32486W        W33351   6.465   7.740   0.289
32487W        W33352   6.530   8.347   2.475
32488W        W33353   4.239   8.940   1.682
32489W        W33354   4.533   9.879   1.331
32490W        W33355   6.296   8.499   1.296
32491W        W33356   5.319   7.878   1.992
32492W        W33357   7.281   9.789   2.503
32493W        W33358   7.199   7.776   2.064
32494W        W33359   3.738  10.606   1.440
32495W        W33360   4.247   9.793   0.976
32496W        W33361   4.162   7.410   3.529
32497W        W33362   5.281  10.263   3.631
32498W        W33363   7.036   9.231   1.421
32499W        W33364   6.390   9.408   0.301
32500W        W33365   5.685  10.929   2.513
32501W        W33366   6.542   9.651   3.550
32502W        W33367   5.357   7.361   0.830
32503W        W33368   6.070   8.230   1.689
32504W        W33369   3.756   9.817   2.021
32505W        W33370   5.009   7.779   0.662
32506W        W33371   4.813   9.263   3.511
32507W        W33372   5.807   8.244   1.225
32508W        W33373   6.012   9.654   2.347
32509W        W33374   4.166  10.259   2.782
32510W        W33375   4.757  10.242   3.505
32511W        W33376   4.608   8.039   0.519
32512W        W33377   6.125   8.181   0.844
32513W        W33378   6.083  10.289   3.081
32514W        W33379   4.768   8.881   1.680
32515W        W33380   4.423  10.579   2.545
32516W        W33381   7.168  10.696   0.146
32517W        W33382   4.031   9.368   3.142
32518W        W33383   6.026   9.630   1.830
32519W        W33384   4.462   9.279   1.072
32520W        W33385   4.833  10.286   2.467
32521W        W33386   5.211   7.705   1.508
32522W        W33387   3.822   9.689   0.438
32523W        W33388   5.341   8.640   0.308
32524W        W33389   3.987   9.189   1.327
32525W        W33390   5.277   7.831   2.791
32526W        W33391   6.949   7.540   0.218
32527W        W33392   7.042   9.286   3.317
32528W        W33393   5.696  10.543   3.469
32529W        W33394   7.254   9.637   2.991
32530W        W33395   6.662  10.435   3.602
32531W        W33396   4.401  10.891   2.080
32532W        W33397   7.260   9.513   0.954
32533W        W33398   5.790   8.780   1.467
32534W        W33399   5.557   7.392   1.357
32535W        W33400   4.616  10.376   1.194
32536W        W33401   5.115   8.117   2.419
32537W        W33402   4.815   7.486   1.888
32538W        W33403   3.878  10.308   0.436
32539W        W33404   5.694   9.672   1.154
32540W        W33405   4.569  10.467   3.033
32541W        W33406   4.046   9.290   0.729
32542W        W33407   3.931   7.833   1.728
32543W        W33408   5.479   9.798   1.785
32544W        W33409   3.731   7.652   0.805
32545W        W33410   6.395   8.858   2.732
32546W        W33411   6.272   8.244   0.304
32547W        W33412   6.789   9.916   1.952
32548W        W33413   5.450  10.400   1.783
32549W        W33414   4.862  10.504   0.694
32550W        W33415   6.144   7.407   0.124
32551W        W33416   3.944  10.667   1.865
32552W        W33417   6.141   8.425   3.500
32553W        W33418   4.124   7.955   3.499
32554W        W33419   3.855   8.555   0.832
32555W        W33420   4.546   8.544   0.557
32556W        W33421   6.309   8.871   3.374
32557W        W33422   4.652   9.152   2.083
32558W        W33423   6.126   7.438   1.203
32559W        W33424   5.257  10.869   1.706
32560W        W33425   6.471  10.331   2.643
32561W        W33426   6.055  10.480   1.754
32562W        W33427   6.074   9.460   1.348
32563W        W33428   5.536   7.685   0.419
32564W        W33429   7.217   7.313   1.141
32565W        W33430   4.905   8.948   0.304
32566W        W33431   7.071   8.285   1.294
32567W        W33432   5.763   9.455   0.171
32568W        W33433   6.699   9.655   2.919
32569W        W33434   6.353  10.356   0.386
32570W        W33435   4.968   8.031   3.292
32571W        W33436   4.788   8.615   2.533
32572W        W33437   6.880  10.110   2.810
32573W        W33438   5.980   8.060   3.187
32574W        W33439   3.824   8.531   2.964
32575W        W33440   5.584   9.008   2.690
32576W        W33441   3.941   9.766   1.347
32577W        W33442   4.088   9.063   2.237
32578W        W33443   6.405   9.349   2.587
32579W        W33444   6.177  10.729   3.398
32580W        W33445   6.073   8.468   2.951
32581W        W33446   6.350  10.522   1.356
32582W        W33447   5.352  10.242   2.679
32583W        W33448   4.837  10.597   1.948
32584W        W33449   6.642   9.768   2.367
32585W        W33450   5.692   9.840   3.504
32586W        W33451   4.297   9.793   1.843
32587W        W33452   6.643   9.552   1.488
32588W        W33453   6.284  10.618   2.239
32589W        W33454   4.262  10.347   2.109
32590W        W33455   5.283   8.399   3.319
32591W        W33456   5.734  10.565   0.830
32592W        W33457   5.042   9.820   3.468
32593W        W33458   5.168  10.058   0.845
32594W        W33459   4.389   8.798   0.104
32595W        W33460   3.728  10.884   7.003
32596W        W33461   4.104   9.777   6.526
32597W        W33462   6.809   9.507   4.296
32598W        W33463   6.939  10.592   6.323
32599W        W33464   4.857  10.583   3.849
32600W        W33465   4.940   8.735   4.832
32601W        W33466   4.455   8.583   4.996
32602W        W33467   5.446   9.398   4.430
32603W        W33468   5.121  10.490   6.785
32604W        W33469   3.770   8.051   6.748
32605W        W33470   4.532   7.331   6.550
32606W        W33471   6.226   7.719   5.437
32607W        W33472   5.875   8.590   4.007
32608W        W33473   6.445   8.024   7.098
32609W        W33474   3.811   7.816   6.223
32610W        W33475   3.910  10.435   7.244
32611W        W33476   5.432   9.825   3.976
32612W        W33477   3.864   8.608   5.669
32613W        W33478   4.757   8.499   6.906
32614W        W33479   7.216   8.358   5.405
32615W        W33480   6.980   9.401   6.264
32616W        W33481   5.288   8.734   5.291
32617W        W33482   5.834  10.073   5.660
32618W        W33483   4.334   9.507   5.892
32619W        W33484   3.693   9.035   5.463
32620W        W33485   4.729   9.007   6.655
32621W        W33486   7.000   8.790   6.909
32622W        W33487   4.616  10.234   5.354
32623W        W33488   5.737   9.923   6.488
32624W        W33489   4.957   8.563   5.713
32625W        W33490   5.249   9.347   5.356
32626W        W33491   6.246  10.120   7.204
32627W        W33492   5.325   9.440   7.214
32628W        W33493   5.306   9.156   6.692
32629W        W33494   3.715   8.547   7.214
32630W        W33495   6.547  10.082   6.813
32631W        W33496   4.128   7.664   4.811
32632W        W33497   4.655   9.922   5.810
32633W        W33498   7.118   9.705   5.100
32634W        W33499   6.531   8.105   5.667
32635W        W33500   6.816   8.058   3.762
32636W        W33501   7.281   8.859   6.068
32637W        W33502   5.248  10.566   5.821
32638W        W33503   7.022  10.032   4.259
32639W        W33504   4.151  10.818   4.013
32640W        W33505   4.544  10.864   4.689
32641W        W33506   4.341   7.618   6.115
32642W        W33507   6.964   8.636   6.390
32643W        W33508   6.369   9.058   4.849
32644W        W33509   6.335   8.746   3.876
32645W        W33510   5.543   9.890   6.016
32646W        W33511   5.349   8.220   5.215
32647W        W33512   5.949  10.307   6.209
32648W        W33513   6.820   9.098   4.631
32649W        W33514   5.722   7.756   4.647
32650W        W33515   4.379  10.450   4.330
32651W        W33516   3.750   7.949   4.929
32652W        W33517   6.536   8.556   5.403
32653W        W33518   3.994  10.173   5.318
32654W        W33519   5.335  10.523   4.188
32655W        W33520   6.727   8.549   3.652
32656W        W33521   3.750  10.307   5.816
32657W        W33522   4.541   9.879   6.296
32658W        W33523   4.914   9.239   4.915
32659W        W33524   4.936   7.644   6.008
32660W        W33525   7.165   7.406   5.305
32661W        W33526   4.384   9.278   3.773
32662W        W33527   4.039   8.311   3.952
32663W        W33528   4.101  10.267   4.746
32664W        W33529   5.232   9.750   4.994
32665W        W33530   6.564  10.609   6.708
32666W        W33531   5.490   8.251   4.392
32667W        W33532   6.873  10.649   5.164
32668W        W33533   6.550   8.502   6.762
32669W        W33534   7.263  10.158   4.896
32670W        W33535   5.890   9.450   6.380
32671W        W33536   3.656   9.001   4.586
32672W        W33537   4.767   9.416   6.159
32673W        W33538   5.971   8.680   4.537
32674W        W33539   5.848   9.170   4.641
32675W        W33540   4.191   8.590   6.115
32676W        W33541   4.176   8.466   7.037
32677W        W33542   4.066   7.383   5.196
32678W        W33543   5.834   7.730   5.757
32679W        W33544   5.482   7.915   6.920
32680W        W33545   5.837   8.064   4.098
32681W        W33546   7.020  10.457   6.852
32682W        W33547   5.987   7.538   6.891
32683W        W33548   7.006   9.839   7.013
32684W        W33549   6.436   8.006   6.609
32685W        W33550   6.236   7.944   4.879
32686W        W33551   6.629   9.078   7.283
32687W        W33552   4.369  10.654   5.269
32688W        W33553   5.027   8.371   4.255
32689W        W33554   4.596   7.655   6.919
32690W        W33555   6.648   8.139   4.600
32691W        W33556   7.015   8.621   4.545
32692W        W33557   4.758  10.838   7.016
32693W        W33558   4.684   7.374   4.251
32694W        W33559   7.005   7.908   5.286
32695W        W33560   7.155  10.157   3.731
32696W        W33561   4.062   9.360   5.433
32697W        W33562   5.979   7.947   3.663
32698W        W33563   7.113  10.279   5.383
32699W        W33564   7.152   7.473   6.133
32700W        W33565   5.597   8.685   6.687
32701W        W33566   5.690  10.024   4.390
32702W        W33567   6.090   9.318   7.130
32703W        W33568   5.764   7.295   5.439
32704W        W33569   4.376   8.198   5.502
32705W        W33570   3.930   9.398   6.276
32706W        W33571   5.789  10.591   4.982
32707W        W33572   6.983   8.188   5.854
32708W        W33573   5.620  10.535   6.621
32709W        W33574   6.963   9.594   3.826
32710W        W33575   5.398   9.077   4.887
32711W        W33576   7.250   7.588   6.628
32712W        W33577   5.399   9.423   6.222
32713W        W33578   5.616   8.309   5.667
32714W        W33579   6.468   8.607   4.505
32715W        W33580   6.755   8.340   4.147
32716W        W33581   6.564  10.380   4.536
32717W        W33582   6.398   9.983   5.332
32718W        W33583   6.294   9.062   4.310
32719W        W33584   5.727   9.272   5.296
32720W        W33585   6.608   9.060   5.363
32721W        W33586   3.983   8.075   5.787
32722W        W33587   6.761   9.127   6.614
32723W        W33588   7.112  10.745   5.760
32724W        W33589   5.042  10.189   5.162
32725W        W33590   6.049  10.722   6.486
32726W        W33591   6.043   8.052   6.250
32727W        W33592   5.250  10.760   6.311
32728W        W33593   6.947   7.714   4.777
32729W        W33594   6.738   9.033   6.078
32730W        W33595   3.721   8.354   6.116
32731W        W33596   6.581   8.149   5.134
32732W        W33597   6.992   8.300   6.911
32733W        W33598   5.877   9.999   5.129
32734W        W33599   5.133  10.590   4.742
32735W        W33600   4.248   7.770   4.000
32736W        W33601   5.352   7.424   5.810
32737W        W33602   4.380  10.544   3.658
32738W        W33603   4.754   9.010   4.409
32739W        W33604   5.408   9.639   6.722
32740W        W33605   5.238   7.997   4.712
32741W        W33606   6.594   7.594   5.140
32742W        W33607   6.314  10.876   5.468
32743W        W33608   5.726  10.524   5.808
32744W        W33609   5.122   9.561   5.769
32745W        W33610   6.892  10.284   5.895
32746W        W33611   4.586   7.787   4.664
32747W        W33612   5.108  10.084   5.624
32748W        W33613   4.591   8.015   3.689
32749W        W33614   5.392   8.624   6.083
32750W        W33615   6.240   7.490   5.953
32751W        W33616   3.660   9.333   5.838
32752W        W33617   5.364   9.151   3.996
32753W        W33618   4.632   7.466   3.766
32754W        W33619   5.370   8.547   4.817
32755W        W33620   6.340   7.523   6.516
32756W        W33621   4.928   9.535   6.625
32757W        W33622   5.732   9.317   6.842
32758W        W33623   6.349   9.347   6.735
32759W        W33624   5.633   7.487   7.240
32760W        W33625   4.855   8.103   5.633
32761W        W33626   4.281   8.059   5.031
32762W        W33627   4.067  10.771   4.707
32763W        W33628   5.399  10.101   6.832
32764W        W33629   4.434   9.586   4.191
32765W        W33630   6.114   8.971   5.412
32766W        W33631   6.394   8.770   5.811
32767W        W33632   5.599   9.444   5.745
32768W        W33633   6.069   9.818   3.877
32769W        W33634   5.741   7.839   5.205
32770W        W33635   7.220   8.117   4.473
32771W        W33636   3.714  10.706   6.504
32772W        W33637   4.131   9.932   6.036
32773W        W33638   3.698  10.778   4.268
32774W        W33639   5.597   8.048   6.074
32775W        W33640   4.960  10.071   3.923
32776W        W33641   6.865  10.453   4.109
32777W        W33642   5.840   9.106   4.123
32778W        W33643   4.683   8.297   4.640
32779W        W33644   5.515   8.207   3.692
32780W        W33645   6.099   9.772   6.870
32781W        W33646   6.452   7.678   4.487
32782W        W33647   3.782   7.526   3.935
32783W        W33648   5.068   9.845   6.225
32784W        W33649   4.867   9.761   5.317
32785W        W33650   4.609   9.713   3.715
32786W        W33651   3.850   9.954   4.483
32787W        W33652   4.354   9.024   6.925
32788W        W33653   5.058   7.584   7.111
32789W        W33654   5.767   7.726   6.467
32790W        W33655   4.962   7.494   4.748
32791W        W33656   6.021   7.571   4.253
32792W        W33657   3.966   7.503   5.830
32793W        W33658   4.014   8.466   5.200
32794W        W33659   6.703   7.574   5.606
32795W        W33660   4.125   8.072   4.420
32796W        W33661   6.696   7.760   6.036
32797W        W33662   7.092   8.963   3.721
32798W        W33663   4.384   7.721   5.540
32799W        W33664   5.498   8.293   6.480
32800W        W33665   3.646   7.983   3.958
32801W        W33666   4.432   9.372   6.519
32802W        W33667   5.790   8.770   5.698
32803W        W33668   5.657  10.849   3.994
32804W        W33669   3.803   9.356   3.691
32805W        W33670   4.538   9.767   6.817
32806W        W33671   4.059   8.934   6.448
32807W        W33672   5.050   9.039   6.242
32808W        W33673   6.818   7.398   6.504
32809W        W33674   7.216   9.008   6.495
32810W        W33675   7.204   9.208   4.181
32811W        W33676   6.067   9.540   4.280
32812W        W33677   6.541  10.840   3.975
32813W        W33678   5.718   8.830   7.117
32814W        W33679   4.048   9.797   7.157
32815W        W33680   7.254   7.719   7.109
32816W        W33681   6.972   8.647   5.730
32817W        W33682   5.280  10.777   7.207
32818W        W33683   5.135   7.406   3.934
32819W        W33684   6.674  10.005   3.877
32820W        W33685   4.443   8.098   6.763
32821W        W33686   4.877  10.092   6.625
32822W        W33687   7.003   8.083   6.423
32823W        W33688   6.214  10.742   4.391
32824W        W33689   6.453   9.361   5.758
32825W        W33690   4.703   7.777   6.425
32826W        W33691   5.172   8.846   7.182
32827W        W33692   4.675  10.025   4.376
32828W        W33693   6.430   9.523   4.640
32829W        W33694   4.198   8.149   6.364
32830W        W33695   5.527  10.211   4.828
32831W        W33696   7.277   8.771   5.009
32832W        W33697   5.499   7.404   6.728
32833W        W33698   6.279  10.109   5.807
32834W        W33699   6.582  10.453   5.515
32835W        W33700   5.801  10.255   3.943
32836W        W33701   3.811  10.147   6.785
32837W        W33702   4.554   8.139   6.023
32838W        W33703   4.524   7.487   5.133
32839W        W33704   6.145   8.329   5.825
32840W        W33705   4.943   9.500   4.025
32841W        W33706   6.941   9.442   5.524
32842W        W33707   4.268  10.200   6.947
32843W        W33708   6.655  10.882   4.744
32844W        W33709   4.754   7.902   5.189
32845W        W33710   4.523   9.395   5.279
32846W        W33711   4.836  10.806   6.029
32847W        W33712   6.903  10.902   7.061
32848W        W33713   6.062   9.090   5.994
32849W        W33714   3.911   8.888   3.909
32850W        W33715   7.045  10.546   4.606
32851W        W33716   6.882   7.870   4.225
32852W        W33717   5.021   7.389   6.628
32853W        W33718   6.727  10.191   5.086
32854W        W33719   6.756   8.747   4.991
32855W        W33720   4.873   8.420   5.207
32856W        W33721   5.118   8.682   6.531
32857W        W33722   6.229   9.835   6.394
32858W        W33723   4.879   8.289   6.506
32859W        W33724   4.858  10.755   5.122
32860W        W33725   4.175  10.714   6.756
32861W        W33726   4.287  10.075   3.886
32862W        W33727   6.804   9.833   4.696
32863W        W33728   4.408   8.625   6.582
32864W        W33729   7.181   8.555   4.063
32865W        W33730   4.926   9.612   4.534
32866W        W33731   6.025   8.994   6.615
32867W        W33732   5.916   8.622   6.159
32868W        W33733   4.476   8.994   6.188
32869W        W33734   6.686  10.882   6.017
32870W        W33735   6.477   7.516   7.011
32871W        W33736   4.141   7.666   6.598
32872W        W33737   4.480   8.689   5.651
32873W        W33738   4.849   8.503   3.773
32874W        W33739   3.652  10.262   6.318
32875W        W33740   5.237   8.971   5.761
32876W        W33741   5.060   7.996   3.866
32877W        W33742   4.195   8.812   4.647
32878W        W33743   3.966  10.664   6.084
32879W        W33744   6.761   8.890   4.192
32880W        W33745   6.856   7.806   6.878
32881W        W33746   6.292  10.015   4.841
32882W        W33747   3.890   8.939   7.018
32883W        W33748   6.856   7.403   4.314
32884W        W33749   6.376   9.878   4.325
32885W        W33750   5.278   8.936   4.410
32886W        W33751   6.465   7.740   3.933
32887W        W33752   6.530   8.347   6.119
32888W        W33753   4.239   8.940   5.326
32889W        W33754   4.533   9.879   4.975
32890W        W33755   6.296   8.499   4.940
32891W        W33756   5.319   7.878   5.636
32892W        W33757   7.281   9.789   6.147
32893W        W33758   7.199   7.776   5.708
32894W        W33759   3.738  10.606   5.084
32895W        W33760   4.247   9.793   4.620
32896W        W33761   4.162   7.410   7.173
32897W        W33762   5.281  10.263   7.275
32898W        W33763   7.036   9.231   5.065
32899W        W33764   6.390   9.408   3.945
32900W        W33765   5.685  10.929   6.157
32901W        W33766   6.542   9.651   7.194
32902W        W33767   5.357   7.361   4.474
32903W        W33768   6.070   8.230   5.333
32904W        W33769   3.756   9.817   5.665
32905W        W33770   5.009   7.779   4.306
32906W        W33771   4.813   9.263   7.155
32907W        W33772   5.807   8.244   4.869
32908W        W33773   6.012   9.654   5.991
32909W        W33774   4.166  10.259   6.426
32910W        W33775   4.757  10.242   7.149
32911W        W33776   4.608   8.039   4.163
32912W        W33777   6.125   8.181   4.488
32913W        W33778   6.083  10.289   6.725
32914W        W33779   4.768   8.881   5.324
32915W        W33780   4.423  10.579   6.189
32916W        W33781   7.168  10.696   3.790
32917W        W33782   4.031   9.368   6.786
32918W        W33783   6.026   9.630   5.474
32919W        W33784   4.462   9.279   4.716
32920W        W33785   4.833  10.286   6.111
32921W        W33786   5.211   7.705   5.152
32922W        W33787   3.822   9.689   4.082
32923W        W33788   5.341   8.640   3.952
32924W        W33789   3.987   9.189   4.971
32925W        W33790   5.277   7.831   6.435
32926W        W33791   6.949   7.540   3.862
32927W        W33792   7.042   9.286   6.961
32928W        W33793   5.696  10.543   7.113
32929W        W33794   7.254   9.637   6.635
32930W        W33795   6.662  10.435   7.246
32931W        W33796   4.401  10.891   5.724
32932W        W33797   7.260   9.513   4.598
32933W        W33798   5.790   8.780   5.111
32934W        W33799   5.557   7.392   5.001
32935W        W33800   4.616  10.376   4.838
32936W        W33801   5.115   8.117   6.063
32937W        W33802   4.815   7.486   5.532
32938W        W33803   3.878  10.308   4.080
32939W        W33804   5.694   9.672   4.798
32940W        W33805   4.569  10.467   6.677
32941W        W33806   4.046   9.290   4.373
32942W        W33807   3.931   7.833   5.372
32943W        W33808   5.479   9.798   5.429
32944W        W33809   3.731   7.652   4.449
32945W        W33810   6.395   8.858   6.376
32946W        W33811   6.272   8.244   3.948
32947W        W33812   6.789   9.916   5.596
32948W        W33813   5.450  10.400   5.427
32949W        W33814   4.862  10.504   4.338
32950W        W33815   6.144   7.407   3.768
32951W        W33816   3.944  10.667   5.509
32952W        W33817   6.141   8.425   7.144
32953W        W33818   4.124   7.955   7.143
32954W        W33819   3.855   8.555   4.476
32955W        W33820   4.546   8.544   4.201
32956W        W33821   6.309   8.871   7.018
32957W        W33822   4.652   9.152   5.727
32958W        W33823   6.126   7.438   4.847
32959W        W33824   5.257  10.869   5.350
32960W        W33825   6.471  10.331   6.287
32961W        W33826   6.055  10.480   5.398
32962W        W33827   6.074   9.460   4.992
32963W        W33828   5.536   7.685   4.063
32964W        W33829   7.217   7.313   4.785
32965W        W33830   4.905   8.948   3.948
32966W        W33831   7.071   8.285   4.938
32967W        W33832   5.763   9.455   3.815
32968W        W33833   6.699   9.655   6.563
32969W        W33834   6.353  10.356   4.030
32970W        W33835   4.968   8.031   6.936
32971W        W33836   4.788   8.615   6.177
32972W        W33837   6.880  10.110   6.454
32973W        W33838   5.980   8.060   6.831
32974W        W33839   3.824   8.531   6.608
32975W        W33840   5.584   9.008   6.334
32976W        W33841   3.941   9.766   4.991
32977W        W33842   4.088   9.063   5.881
32978W        W33843   6.405   9.349   6.231
32979W        W33844   6.177  10.729   7.042
32980W        W33845   6.073   8.468   6.595
32981W        W33846   6.350  10.522   5.000
32982W        W33847   5.352  10.242   6.323
32983W        W33848   4.837  10.597   5.592
32984W        W33849   6.642   9.768   6.011
32985W        W33850   5.692   9.840   7.148
32986W        W33851   4.297   9.793   5.487
32987W        W33852   6.643   9.552   5.132
32988W        W33853   6.284  10.618   5.883
32989W        W33854   4.262  10.347   5.753
32990W        W33855   5.283   8.399   6.963
32991W        W33856   5.734  10.565   4.474
32992W        W33857   5.042   9.820   7.112
32993W        W33858   5.168  10.058   4.489
32994W        W33859   4.389   8.798   3.748
32995W        W33860   3.728  10.884  10.648
32996W        W33861   4.104   9.777  10.171
32997W        W33862   6.809   9.507   7.941
32998W        W33863   6.939  10.592   9.968
32999W        W33864   4.857  10.583   7.494
33000W        W33865   4.940   8.735   8.477
33001W        W33866   4.455   8.583   8.641
33002W        W33867   5.446   9.398   8.075
33003W        W33868   5.121  10.490  10.430
33004W        W33869   3.770   8.051  10.393
33005W        W33870   4.532   7.331  10.195
33006W        W33871   6.226   7.719   9.082
33007W        W33872   5.875   8.590   7.652
33008W        W33873   6.445   8.024  10.743
33009W        W33874   3.811   7.816   9.868
33010W        W33875   3.910  10.435  10.889
33011W        W33876   5.432   9.825   7.621
33012W        W33877   3.864   8.608   9.314
33013W        W33878   4.757   8.499  10.551
33014W        W33879   7.216   8.358   9.050
33015W        W33880   6.980   9.401   9.909
33016W        W33881   5.288   8.734   8.936
33017W        W33882   5.834  10.073   9.305
33018W        W33883   4.334   9.507   9.537
33019W        W33884   3.693   9.035   9.108
33020W        W33885   4.729   9.007  10.300
33021W        W33886   7.000   8.790  10.554
33022W        W33887   4.616  10.234   8.999
33023W        W33888   5.737   9.923  10.133
33024W        W33889   4.957   8.563   9.358
33025W        W33890   5.249   9.347   9.001
33026W        W33891   6.246  10.120  10.849
33027W        W33892   5.325   9.440  10.859
33028W        W33893   5.306   9.156  10.337
33029W        W33894   3.715   8.547  10.859
33030W        W33895   6.547  10.082  10.458
33031W        W33896   4.128   7.664   8.456
33032W        W33897   4.655   9.922   9.455
33033W        W33898   7.118   9.705   8.745
33034W        W33899   6.531   8.105   9.312
33035W        W33900   6.816   8.058   7.407
33036W        W33901   7.281   8.859   9.713
33037W        W33902   5.248  10.566   9.466
33038W        W33903   7.022  10.032   7.904
33039W        W33904   4.151  10.818   7.658
33040W        W33905   4.544  10.864   8.334
33041W        W33906   4.341   7.618   9.760
33042W        W33907   6.964   8.636  10.035
33043W        W33908   6.369   9.058   8.494
33044W        W33909   6.335   8.746   7.521
33045W        W33910   5.543   9.890   9.661
33046W        W33911   5.349   8.220   8.860
33047W        W33912   5.949  10.307   9.854
33048W        W33913   6.820   9.098   8.276
33049W        W33914   5.722   7.756   8.292
33050W        W33915   4.379  10.450   7.975
33051W        W33916   3.750   7.949   8.574
33052W        W33917   6.536   8.556   9.048
33053W        W33918   3.994  10.173   8.963
33054W        W33919   5.335  10.523   7.833
33055W        W33920   6.727   8.549   7.297
33056W        W33921   3.750  10.307   9.461
33057W        W33922   4.541   9.879   9.941
33058W        W33923   4.914   9.239   8.560
33059W        W33924   4.936   7.644   9.653
33060W        W33925   7.165   7.406   8.950
33061W        W33926   4.384   9.278   7.418
33062W        W33927   4.039   8.311   7.597
33063W        W33928   4.101  10.267   8.391
33064W        W33929   5.232   9.750   8.639
33065W        W33930   6.564  10.609  10.353
33066W        W33931   5.490   8.251   8.037
33067W        W33932   6.873  10.649   8.809
33068W        W33933   6.550   8.502  10.407
33069W        W33934   7.263  10.158   8.541
33070W        W33935   5.890   9.450  10.025
33071W        W33936   3.656   9.001   8.231
33072W        W33937   4.767   9.416   9.804
33073W        W33938   5.971   8.680   8.182
33074W        W33939   5.848   9.170   8.286
33075W        W33940   4.191   8.590   9.760
33076W        W33941   4.176   8.466  10.682
33077W        W33942   4.066   7.383   8.841
33078W        W33943   5.834   7.730   9.402
33079W        W33944   5.482   7.915  10.565
33080W        W33945   5.837   8.064   7.743
33081W        W33946   7.020  10.457  10.497
33082W        W33947   5.987   7.538  10.536
33083W        W33948   7.006   9.839  10.658
33084W        W33949   6.436   8.006  10.254
33085W        W33950   6.236   7.944   8.524
33086W        W33951   6.629   9.078  10.928
33087W        W33952   4.369  10.654   8.914
33088W        W33953   5.027   8.371   7.900
33089W        W33954   4.596   7.655  10.564
33090W        W33955   6.648   8.139   8.245
33091W        W33956   7.015   8.621   8.190
33092W        W33957   4.758  10.838  10.661
33093W        W33958   4.684   7.374   7.896
33094W        W33959   7.005   7.908   8.931
33095W        W33960   7.155  10.157   7.376
33096W        W33961   4.062   9.360   9.078
33097W        W33962   5.979   7.947   7.308
33098W        W33963   7.113  10.279   9.028
33099W        W33964   7.152   7.473   9.778
33100W        W33965   5.597   8.685  10.332
33101W        W33966   5.690  10.024   8.035
33102W        W33967   6.090   9.318  10.775
33103W        W33968   5.764   7.295   9.084
33104W        W33969   4.376   8.198   9.147
33105W        W33970   3.930   9.398   9.921
33106W        W33971   5.789  10.591   8.627
33107W        W33972   6.983   8.188   9.499
33108W        W33973   5.620  10.535  10.266
33109W        W33974   6.963   9.594   7.471
33110W        W33975   5.398   9.077   8.532
33111W        W33976   7.250   7.588  10.273
33112W        W33977   5.399   9.423   9.867
33113W        W33978   5.616   8.309   9.312
33114W        W33979   6.468   8.607   8.150
33115W        W33980   6.755   8.340   7.792
33116W        W33981   6.564  10.380   8.181
33117W        W33982   6.398   9.983   8.977
33118W        W33983   6.294   9.062   7.955
33119W        W33984   5.727   9.272   8.941
33120W        W33985   6.608   9.060   9.008
33121W        W33986   3.983   8.075   9.432
33122W        W33987   6.761   9.127  10.259
33123W        W33988   7.112  10.745   9.405
33124W        W33989   5.042  10.189   8.807
33125W        W33990   6.049  10.722  10.131
33126W        W33991   6.043   8.052   9.895
33127W        W33992   5.250  10.760   9.956
33128W        W33993   6.947   7.714   8.422
33129W        W33994   6.738   9.033   9.723
33130W        W33995   3.721   8.354   9.761
33131W        W33996   6.581   8.149   8.779
33132W        W33997   6.992   8.300  10.556
33133W        W33998   5.877   9.999   8.774
33134W        W33999   5.133  10.590   8.387
33135W        W34000   4.248   7.770   7.645
33136W        W34001   5.352   7.424   9.455
33137W        W34002   4.380  10.544   7.303
33138W        W34003   4.754   9.010   8.054
33139W        W34004   5.408   9.639  10.367
33140W        W34005   5.238   7.997   8.357
33141W        W34006   6.594   7.594   8.785
33142W        W34007   6.314  10.876   9.113
33143W        W34008   5.726  10.524   9.453
33144W        W34009   5.122   9.561   9.414
33145W        W34010   6.892  10.284   9.540
33146W        W34011   4.586   7.787   8.309
33147W        W34012   5.108  10.084   9.269
33148W        W34013   4.591   8.015   7.334
33149W        W34014   5.392   8.624   9.728
33150W        W34015   6.240   7.490   9.598
33151W        W34016   3.660   9.333   9.483
33152W        W34017   5.364   9.151   7.641
33153W        W34018   4.632   7.466   7.411
33154W        W34019   5.370   8.547   8.462
33155W        W34020   6.340   7.523  10.161
33156W        W34021   4.928   9.535  10.270
33157W        W34022   5.732   9.317  10.487
33158W        W34023   6.349   9.347  10.380
33159W        W34024   5.633   7.487  10.885
33160W        W34025   4.855   8.103   9.278
33161W        W34026   4.281   8.059   8.676
33162W        W34027   4.067  10.771   8.352
33163W        W34028   5.399  10.101  10.477
33164W        W34029   4.434   9.586   7.836
33165W        W34030   6.114   8.971   9.057
33166W        W34031   6.394   8.770   9.456
33167W        W34032   5.599   9.444   9.390
33168W        W34033   6.069   9.818   7.522
33169W        W34034   5.741   7.839   8.850
33170W        W34035   7.220   8.117   8.118
33171W        W34036   3.714  10.706  10.149
33172W        W34037   4.131   9.932   9.681
33173W        W34038   3.698  10.778   7.913
33174W        W34039   5.597   8.048   9.719
33175W        W34040   4.960  10.071   7.568
33176W        W34041   6.865  10.453   7.754
33177W        W34042   5.840   9.106   7.768
33178W        W34043   4.683   8.297   8.285
33179W        W34044   5.515   8.207   7.337
33180W        W34045   6.099   9.772  10.515
33181W        W34046   6.452   7.678   8.132
33182W        W34047   3.782   7.526   7.580
33183W        W34048   5.068   9.845   9.870
33184W        W34049   4.867   9.761   8.962
33185W        W34050   4.609   9.713   7.360
33186W        W34051   3.850   9.954   8.128
33187W        W34052   4.354   9.024  10.570
33188W        W34053   5.058   7.584  10.756
33189W        W34054   5.767   7.726  10.112
33190W        W34055   4.962   7.494   8.393
33191W        W34056   6.021   7.571   7.898
33192W        W34057   3.966   7.503   9.475
33193W        W34058   4.014   8.466   8.845
33194W        W34059   6.703   7.574   9.251
33195W        W34060   4.125   8.072   8.065
33196W        W34061   6.696   7.760   9.681
33197W        W34062   7.092   8.963   7.366
33198W        W34063   4.384   7.721   9.185
33199W        W34064   5.498   8.293  10.125
33200W        W34065   3.646   7.983   7.603
33201W        W34066   4.432   9.372  10.164
33202W        W34067   5.790   8.770   9.343
33203W        W34068   5.657  10.849   7.639
33204W        W34069   3.803   9.356   7.336
33205W        W34070   4.538   9.767  10.462
33206W        W34071   4.059   8.934  10.093
33207W        W34072   5.050   9.039   9.887
33208W        W34073   6.818   7.398  10.149
33209W        W34074   7.216   9.008  10.140
33210W        W34075   7.204   9.208   7.826
33211W        W34076   6.067   9.540   7.925
33212W        W34077   6.541  10.840   7.620
33213W        W34078   5.718   8.830  10.762
33214W        W34079   4.048   9.797  10.802
33215W        W34080   7.254   7.719  10.754
33216W        W34081   6.972   8.647   9.375
33217W        W34082   5.280  10.777  10.852
33218W        W34083   5.135   7.406   7.579
33219W        W34084   6.674  10.005   7.522
33220W        W34085   4.443   8.098  10.408
33221W        W34086   4.877  10.092  10.270
33222W        W34087   7.003   8.083  10.068
33223W        W34088   6.214  10.742   8.036
33224W        W34089   6.453   9.361   9.403
33225W        W34090   4.703   7.777  10.070
33226W        W34091   5.172   8.846  10.827
33227W        W34092   4.675  10.025   8.021
33228W        W34093   6.430   9.523   8.285
33229W        W34094   4.198   8.149  10.009
33230W        W34095   5.527  10.211   8.473
33231W        W34096   7.277   8.771   8.654
33232W        W34097   5.499   7.404  10.373
33233W        W34098   6.279  10.109   9.452
33234W        W34099   6.582  10.453   9.160
33235W        W34100   5.801  10.255   7.588
33236W        W34101   3.811  10.147  10.430
33237W        W34102   4.554   8.139   9.668
33238W        W34103   4.524   7.487   8.778
33239W        W34104   6.145   8.329   9.470
33240W        W34105   4.943   9.500   7.670
33241W        W34106   6.941   9.442   9.169
33242W        W34107   4.268  10.200  10.592
33243W        W34108   6.655  10.882   8.389
33244W        W34109   4.754   7.902   8.834
33245W        W34110   4.523   9.395   8.924
33246W        W34111   4.836  10.806   9.674
33247W        W34112   6.903  10.902  10.706
33248W        W34113   6.062   9.090   9.639
33249W        W34114   3.911   8.888   7.554
33250W        W34115   7.045  10.546   8.251
33251W        W34116   6.882   7.870   7.870
33252W        W34117   5.021   7.389  10.273
33253W        W34118   6.727  10.191   8.731
33254W        W34119   6.756   8.747   8.636
33255W        W34120   4.873   8.420   8.852
33256W        W34121   5.118   8.682  10.176
33257W        W34122   6.229   9.835  10.039
33258W        W34123   4.879   8.289  10.151
33259W        W34124   4.858  10.755   8.767
33260W        W34125   4.175  10.714  10.401
33261W        W34126   4.287  10.075   7.531
33262W        W34127   6.804   9.833   8.341
33263W        W34128   4.408   8.625  10.227
33264W        W34129   7.181   8.555   7.708
33265W        W34130   4.926   9.612   8.179
33266W        W34131   6.025   8.994  10.260
33267W        W34132   5.916   8.622   9.804
33268W        W34133   4.476   8.994   9.833
33269W        W34134   6.686  10.882   9.662
33270W        W34135   6.477   7.516  10.656
33271W        W34136   4.141   7.666  10.243
33272W        W34137   4.480   8.689   9.296
33273W        W34138   4.849   8.503   7.418
33274W        W34139   3.652  10.262   9.963
33275W        W34140   5.237   8.971   9.406
33276W        W34141   5.060   7.996   7.511
33277W        W34142   4.195   8.812   8.292
33278W        W34143   3.966  10.664   9.729
33279W        W34144   6.761   8.890   7.837
33280W        W34145   6.856   7.806  10.523
33281W        W34146   6.292  10.015   8.486
33282W        W34147   3.890   8.939  10.663
33283W        W34148   6.856   7.403   7.959
33284W        W34149   6.376   9.878   7.970
33285W        W34150   5.278   8.936   8.055
33286W        W34151   6.465   7.740   7.578
33287W        W34152   6.530   8.347   9.764
33288W        W34153   4.239   8.940   8.971
33289W        W34154   4.533   9.879   8.620
33290W        W34155   6.296   8.499   8.585
33291W        W34156   5.319   7.878   9.281
33292W        W34157   7.281   9.789   9.792
33293W        W34158   7.199   7.776   9.353
33294W        W34159   3.738  10.606   8.729
33295W        W34160   4.247   9.793   8.265
33296W        W34161   4.162   7.410  10.818
33297W        W34162   5.281  10.263  10.920
33298W        W34163   7.036   9.231   8.710
33299W        W34164   6.390   9.408   7.590
33300W        W34165   5.685  10.929   9.802
33301W        W34166   6.542   9.651  10.839
33302W        W34167   5.357   7.361   8.119
33303W        W34168   6.070   8.230   8.978
33304W        W34169   3.756   9.817   9.310
33305W        W34170   5.009   7.779   7.951
33306W        W34171   4.813   9.263  10.800
33307W        W34172   5.807   8.244   8.514
33308W        W34173   6.012   9.654   9.636
33309W        W34174   4.166  10.259  10.071
33310W        W34175   4.757  10.242  10.794
33311W        W34176   4.608   8.039   7.808
33312W        W34177   6.125   8.181   8.133
33313W        W34178   6.083  10.289  10.370
33314W        W34179   4.768   8.881   8.969
33315W        W34180   4.423  10.579   9.834
33316W        W34181   7.168  10.696   7.435
33317W        W34182   4.031   9.368  10.431
33318W        W34183   6.026   9.630   9.119
33319W        W34184   4.462   9.279   8.361
33320W        W34185   4.833  10.286   9.756
33321W        W34186   5.211   7.705   8.797
33322W        W34187   3.822   9.689   7.727
33323W        W34188   5.341   8.640   7.597
33324W        W34189   3.987   9.189   8.616
33325W        W34190   5.277   7.831  10.080
33326W        W34191   6.949   7.540   7.507
33327W        W34192   7.042   9.286  10.606
33328W        W34193   5.696  10.543  10.758
33329W        W34194   7.254   9.637  10.280
33330W        W34195   6.662  10.435  10.891
33331W        W34196   4.401  10.891   9.369
33332W        W34197   7.260   9.513   8.243
33333W        W34198   5.790   8.780   8.756
33334W        W34199   5.557   7.392   8.646
33335W        W34200   4.616  10.376   8.483
33336W        W34201   5.115   8.117   9.708
33337W        W34202   4.815   7.486   9.177
33338W        W34203   3.878  10.308   7.725
33339W        W34204   5.694   9.672   8.443
33340W        W34205   4.569  10.467  10.322
33341W        W34206   4.046   9.290   8.018
33342W        W34207   3.931   7.833   9.017
33343W        W34208   5.479   9.798   9.074
33344W        W34209   3.731   7.652   8.094
33345W        W34210   6.395   8.858  10.021
33346W        W34211   6.272   8.244   7.593
33347W        W34212   6.789   9.916   9.241
33348W        W34213   5.450  10.400   9.072
33349W        W34214   4.862  10.504   7.983
33350W        W34215   6.144   7.407   7.413
33351W        W34216   3.944  10.667   9.154
33352W        W34217   6.141   8.425  10.789
33353W        W34218   4.124   7.955  10.788
33354W        W34219   3.855   8.555   8.121
33355W        W34220   4.546   8.544   7.846
33356W        W34221   6.309   8.871  10.663
33357W        W34222   4.652   9.152   9.372
33358W        W34223   6.126   7.438   8.492
33359W        W34224   5.257  10.869   8.995
33360W        W34225   6.471  10.331   9.932
33361W        W34226   6.055  10.480   9.043
33362W        W34227   6.074   9.460   8.637
33363W        W34228   5.536   7.685   7.708
33364W        W34229   7.217   7.313   8.430
33365W        W34230   4.905   8.948   7.593
33366W        W34231   7.071   8.285   8.583
33367W        W34232   5.763   9.455   7.460
33368W        W34233   6.699   9.655  10.208
33369W        W34234   6.353  10.356   7.675
33370W        W34235   4.968   8.031  10.581
33371W        W34236   4.788   8.615   9.822
33372W        W34237   6.880  10.110  10.099
33373W        W34238   5.980   8.060  10.476
33374W        W34239   3.824   8.531  10.253
33375W        W34240   5.584   9.008   9.979
33376W        W34241   3.941   9.766   8.636
33377W        W34242   4.088   9.063   9.526
33378W        W34243   6.405   9.349   9.876
33379W        W34244   6.177  10.729  10.687
33380W        W34245   6.073   8.468  10.240
33381W        W34246   6.350  10.522   8.645
33382W        W34247   5.352  10.242   9.968
33383W        W34248   4.837  10.597   9.237
33384W        W34249   6.642   9.768   9.656
33385W        W34250   5.692   9.840  10.793
33386W        W34251   4.297   9.793   9.132
33387W        W34252   6.643   9.552   8.777
33388W        W34253   6.284  10.618   9.528
33389W        W34254   4.262  10.347   9.398
33390W        W34255   5.283   8.399  10.608
33391W        W34256   5.734  10.565   8.119
33392W        W34257   5.042   9.820  10.757
33393W        W34258   5.168  10.058   8.134
33394W        W34259   4.389   8.798   7.393
33395W        W34260   3.728  10.884  14.292
33396W        W34261   4.104   9.777  13.815
33397W        W34262   6.809   9.507  11.585
33398W        W34263   6.939  10.592  13.612
33399W        W34264   4.857  10.583  11.138
33400W        W34265   4.940   8.735  12.121
33401W        W34266   4.455   8.583  12.285
33402W        W34267   5.446   9.398  11.719
33403W        W34268   5.121  10.490  14.074
33404W        W34269   3.770   8.051  14.037
33405W        W34270   4.532   7.331  13.839
33406W        W34271   6.226   7.719  12.726
33407W        W34272   5.875   8.590  11.296
33408W        W34273   6.445   8.024  14.387
33409W        W34274   3.811   7.816  13.512
33410W        W34275   3.910  10.435  14.533
33411W        W34276   5.432   9.825  11.265
33412W        W34277   3.864   8.608  12.958
33413W        W34278   4.757   8.499  14.195
33414W        W34279   7.216   8.358  12.694
33415W        W34280   6.980   9.401  13.553
33416W        W34281   5.288   8.734  12.580
33417W        W34282   5.834  10.073  12.949
33418W        W34283   4.334   9.507  13.181
33419W        W34284   3.693   9.035  12.752
33420W        W34285   4.729   9.007  13.944
33421W        W34286   7.000   8.790  14.198
33422W        W34287   4.616  10.234  12.643
33423W        W34288   5.737   9.923  13.777
33424W        W34289   4.957   8.563  13.002
33425W        W34290   5.249   9.347  12.645
33426W        W34291   6.246  10.120  14.493
33427W        W34292   5.325   9.440  14.503
33428W        W34293   5.306   9.156  13.981
33429W        W34294   3.715   8.547  14.503
33430W        W34295   6.547  10.082  14.102
33431W        W34296   4.128   7.664  12.100
33432W        W34297   4.655   9.922  13.099
33433W        W34298   7.118   9.705  12.389
33434W        W34299   6.531   8.105  12.956
33435W        W34300   6.816   8.058  11.051
33436W        W34301   7.281   8.859  13.357
33437W        W34302   5.248  10.566  13.110
33438W        W34303   7.022  10.032  11.548
33439W        W34304   4.151  10.818  11.302
33440W        W34305   4.544  10.864  11.978
33441W        W34306   4.341   7.618  13.404
33442W        W34307   6.964   8.636  13.679
33443W        W34308   6.369   9.058  12.138
33444W        W34309   6.335   8.746  11.165
33445W        W34310   5.543   9.890  13.305
33446W        W34311   5.349   8.220  12.504
33447W        W34312   5.949  10.307  13.498
33448W        W34313   6.820   9.098  11.920
33449W        W34314   5.722   7.756  11.936
33450W        W34315   4.379  10.450  11.619
33451W        W34316   3.750   7.949  12.218
33452W        W34317   6.536   8.556  12.692
33453W        W34318   3.994  10.173  12.607
33454W        W34319   5.335  10.523  11.477
33455W        W34320   6.727   8.549  10.941
33456W        W34321   3.750  10.307  13.105
33457W        W34322   4.541   9.879  13.585
33458W        W34323   4.914   9.239  12.204
33459W        W34324   4.936   7.644  13.297
33460W        W34325   7.165   7.406  12.594
33461W        W34326   4.384   9.278  11.062
33462W        W34327   4.039   8.311  11.241
33463W        W34328   4.101  10.267  12.035
33464W        W34329   5.232   9.750  12.283
33465W        W34330   6.564  10.609  13.997
33466W        W34331   5.490   8.251  11.681
33467W        W34332   6.873  10.649  12.453
33468W        W34333   6.550   8.502  14.051
33469W        W34334   7.263  10.158  12.185
33470W        W34335   5.890   9.450  13.669
33471W        W34336   3.656   9.001  11.875
33472W        W34337   4.767   9.416  13.448
33473W        W34338   5.971   8.680  11.826
33474W        W34339   5.848   9.170  11.930
33475W        W34340   4.191   8.590  13.404
33476W        W34341   4.176   8.466  14.326
33477W        W34342   4.066   7.383  12.485
33478W        W34343   5.834   7.730  13.046
33479W        W34344   5.482   7.915  14.209
33480W        W34345   5.837   8.064  11.387
33481W        W34346   7.020  10.457  14.141
33482W        W34347   5.987   7.538  14.180
33483W        W34348   7.006   9.839  14.302
33484W        W34349   6.436   8.006  13.898
33485W        W34350   6.236   7.944  12.168
33486W        W34351   6.629   9.078  14.572
33487W        W34352   4.369  10.654  12.558
33488W        W34353   5.027   8.371  11.544
33489W        W34354   4.596   7.655  14.208
33490W        W34355   6.648   8.139  11.889
33491W        W34356   7.015   8.621  11.834
33492W        W34357   4.758  10.838  14.305
33493W        W34358   4.684   7.374  11.540
33494W        W34359   7.005   7.908  12.575
33495W        W34360   7.155  10.157  11.020
33496W        W34361   4.062   9.360  12.722
33497W        W34362   5.979   7.947  10.952
33498W        W34363   7.113  10.279  12.672
33499W        W34364   7.152   7.473  13.422
33500W        W34365   5.597   8.685  13.976
33501W        W34366   5.690  10.024  11.679
33502W        W34367   6.090   9.318  14.419
33503W        W34368   5.764   7.295  12.728
33504W        W34369   4.376   8.198  12.791
33505W        W34370   3.930   9.398  13.565
33506W        W34371   5.789  10.591  12.271
33507W        W34372   6.983   8.188  13.143
33508W        W34373   5.620  10.535  13.910
33509W        W34374   6.963   9.594  11.115
33510W        W34375   5.398   9.077  12.176
33511W        W34376   7.250   7.588  13.917
33512W        W34377   5.399   9.423  13.511
33513W        W34378   5.616   8.309  12.956
33514W        W34379   6.468   8.607  11.794
33515W        W34380   6.755   8.340  11.436
33516W        W34381   6.564  10.380  11.825
33517W        W34382   6.398   9.983  12.621
33518W        W34383   6.294   9.062  11.599
33519W        W34384   5.727   9.272  12.585
33520W        W34385   6.608   9.060  12.652
33521W        W34386   3.983   8.075  13.076
33522W        W34387   6.761   9.127  13.903
33523W        W34388   7.112  10.745  13.049
33524W        W34389   5.042  10.189  12.451
33525W        W34390   6.049  10.722  13.775
33526W        W34391   6.043   8.052  13.539
33527W        W34392   5.250  10.760  13.600
33528W        W34393   6.947   7.714  12.066
33529W        W34394   6.738   9.033  13.367
33530W        W34395   3.721   8.354  13.405
33531W        W34396   6.581   8.149  12.423
33532W        W34397   6.992   8.300  14.200
33533W        W34398   5.877   9.999  12.418
33534W        W34399   5.133  10.590  12.031
33535W        W34400   4.248   7.770  11.289
33536W        W34401   5.352   7.424  13.099
33537W        W34402   4.380  10.544  10.947
33538W        W34403   4.754   9.010  11.698
33539W        W34404   5.408   9.639  14.011
33540W        W34405   5.238   7.997  12.001
33541W        W34406   6.594   7.594  12.429
33542W        W34407   6.314  10.876  12.757
33543W        W34408   5.726  10.524  13.097
33544W        W34409   5.122   9.561  13.058
33545W        W34410   6.892  10.284  13.184
33546W        W34411   4.586   7.787  11.953
33547W        W34412   5.108  10.084  12.913
33548W        W34413   4.591   8.015  10.978
33549W        W34414   5.392   8.624  13.372
33550W        W34415   6.240   7.490  13.242
33551W        W34416   3.660   9.333  13.127
33552W        W34417   5.364   9.151  11.285
33553W        W34418   4.632   7.466  11.055
33554W        W34419   5.370   8.547  12.106
33555W        W34420   6.340   7.523  13.805
33556W        W34421   4.928   9.535  13.914
33557W        W34422   5.732   9.317  14.131
33558W        W34423   6.349   9.347  14.024
33559W        W34424   5.633   7.487  14.529
33560W        W34425   4.855   8.103  12.922
33561W        W34426   4.281   8.059  12.320
33562W        W34427   4.067  10.771  11.996
33563W        W34428   5.399  10.101  14.121
33564W        W34429   4.434   9.586  11.480
33565W        W34430   6.114   8.971  12.701
33566W        W34431   6.394   8.770  13.100
33567W        W34432   5.599   9.444  13.034
33568W        W34433   6.069   9.818  11.166
33569W        W34434   5.741   7.839  12.494
33570W        W34435   7.220   8.117  11.762
33571W        W34436   3.714  10.706  13.793
33572W        W34437   4.131   9.932  13.325
33573W        W34438   3.698  10.778  11.557
33574W        W34439   5.597   8.048  13.363
33575W        W34440   4.960  10.071  11.212
33576W        W34441   6.865  10.453  11.398
33577W        W34442   5.840   9.106  11.412
33578W        W34443   4.683   8.297  11.929
33579W        W34444   5.515   8.207  10.981
33580W        W34445   6.099   9.772  14.159
33581W        W34446   6.452   7.678  11.776
33582W        W34447   3.782   7.526  11.224
33583W        W34448   5.068   9.845  13.514
33584W        W34449   4.867   9.761  12.606
33585W        W34450   4.609   9.713  11.004
33586W        W34451   3.850   9.954  11.772
33587W        W34452   4.354   9.024  14.214
33588W        W34453   5.058   7.584  14.400
33589W        W34454   5.767   7.726  13.756
33590W        W34455   4.962   7.494  12.037
33591W        W34456   6.021   7.571  11.542
33592W        W34457   3.966   7.503  13.119
33593W        W34458   4.014   8.466  12.489
33594W        W34459   6.703   7.574  12.895
33595W        W34460   4.125   8.072  11.709
33596W        W34461   6.696   7.760  13.325
33597W        W34462   7.092   8.963  11.010
33598W        W34463   4.384   7.721  12.829
33599W        W34464   5.498   8.293  13.769
33600W        W34465   3.646   7.983  11.247
33601W        W34466   4.432   9.372  13.808
33602W        W34467   5.790   8.770  12.987
33603W        W34468   5.657  10.849  11.283
33604W        W34469   3.803   9.356  10.980
33605W        W34470   4.538   9.767  14.106
33606W        W34471   4.059   8.934  13.737
33607W        W34472   5.050   9.039  13.531
33608W        W34473   6.818   7.398  13.793
33609W        W34474   7.216   9.008  13.784
33610W        W34475   7.204   9.208  11.470
33611W        W34476   6.067   9.540  11.569
33612W        W34477   6.541  10.840  11.264
33613W        W34478   5.718   8.830  14.406
33614W        W34479   4.048   9.797  14.446
33615W        W34480   7.254   7.719  14.398
33616W        W34481   6.972   8.647  13.019
33617W        W34482   5.280  10.777  14.496
33618W        W34483   5.135   7.406  11.223
33619W        W34484   6.674  10.005  11.166
33620W        W34485   4.443   8.098  14.052
33621W        W34486   4.877  10.092  13.914
33622W        W34487   7.003   8.083  13.712
33623W        W34488   6.214  10.742  11.680
33624W        W34489   6.453   9.361  13.047
33625W        W34490   4.703   7.777  13.714
33626W        W34491   5.172   8.846  14.471
33627W        W34492   4.675  10.025  11.665
33628W        W34493   6.430   9.523  11.929
33629W        W34494   4.198   8.149  13.653
33630W        W34495   5.527  10.211  12.117
33631W        W34496   7.277   8.771  12.298
33632W        W34497   5.499   7.404  14.017
33633W        W34498   6.279  10.109  13.096
33634W        W34499   6.582  10.453  12.804
33635W        W34500   5.801  10.255  11.232
33636W        W34501   3.811  10.147  14.074
33637W        W34502   4.554   8.139  13.312
33638W        W34503   4.524   7.487  12.422
33639W        W34504   6.145   8.329  13.114
33640W        W34505   4.943   9.500  11.314
33641W        W34506   6.941   9.442  12.813
33642W        W34507   4.268  10.200  14.236
33643W        W34508   6.655  10.882  12.033
33644W        W34509   4.754   7.902  12.478
33645W        W34510   4.523   9.395  12.568
33646W        W34511   4.836  10.806  13.318
33647W        W34512   6.903  10.902  14.350
33648W        W34513   6.062   9.090  13.283
33649W        W34514   3.911   8.888  11.198
33650W        W34515   7.045  10.546  11.895
33651W        W34516   6.882   7.870  11.514
33652W        W34517   5.021   7.389  13.917
33653W        W34518   6.727  10.191  12.375
33654W        W34519   6.756   8.747  12.280
33655W        W34520   4.873   8.420  12.496
33656W        W34521   5.118   8.682  13.820
33657W        W34522   6.229   9.835  13.683
33658W        W34523   4.879   8.289  13.795
33659W        W34524   4.858  10.755  12.411
33660W        W34525   4.175  10.714  14.045
33661W        W34526   4.287  10.075  11.175
33662W        W34527   6.804   9.833  11.985
33663W        W34528   4.408   8.625  13.871
33664W        W34529   7.181   8.555  11.352
33665W        W34530   4.926   9.612  11.823
33666W        W34531   6.025   8.994  13.904
33667W        W34532   5.916   8.622  13.448
33668W        W34533   4.476   8.994  13.477
33669W        W34534   6.686  10.882  13.306
33670W        W34535   6.477   7.516  14.300
33671W        W34536   4.141   7.666  13.887
33672W        W34537   4.480   8.689  12.940
33673W        W34538   4.849   8.503  11.062
33674W        W34539   3.652  10.262  13.607
33675W        W34540   5.237   8.971  13.050
33676W        W34541   5.060   7.996  11.155
33677W        W34542   4.195   8.812  11.936
33678W        W34543   3.966  10.664  13.373
33679W        W34544   6.761   8.890  11.481
33680W        W34545   6.856   7.806  14.167
33681W        W34546   6.292  10.015  12.130
33682W        W34547   3.890   8.939  14.307
33683W        W34548   6.856   7.403  11.603
33684W        W34549   6.376   9.878  11.614
33685W        W34550   5.278   8.936  11.699
33686W        W34551   6.465   7.740  11.222
33687W        W34552   6.530   8.347  13.408
33688W        W34553   4.239   8.940  12.615
33689W        W34554   4.533   9.879  12.264
33690W        W34555   6.296   8.499  12.229
33691W        W34556   5.319   7.878  12.925
33692W        W34557   7.281   9.789  13.436
33693W        W34558   7.199   7.776  12.997
33694W        W34559   3.738  10.606  12.373
33695W        W34560   4.247   9.793  11.909
33696W        W34561   4.162   7.410  14.462
33697W        W34562   5.281  10.263  14.564
33698W        W34563   7.036   9.231  12.354
33699W        W34564   6.390   9.408  11.234
33700W        W34565   5.685  10.929  13.446
33701W        W34566   6.542   9.651  14.483
33702W        W34567   5.357   7.361  11.763
33703W        W34568   6.070   8.230  12.622
33704W        W34569   3.756   9.817  12.954
33705W        W34570   5.009   7.779  11.595
33706W        W34571   4.813   9.263  14.444
33707W        W34572   5.807   8.244  12.158
33708W        W34573   6.012   9.654  13.280
33709W        W34574   4.166  10.259  13.715
33710W        W34575   4.757  10.242  14.438
33711W        W34576   4.608   8.039  11.452
33712W        W34577   6.125   8.181  11.777
33713W        W34578   6.083  10.289  14.014
33714W        W34579   4.768   8.881  12.613
33715W        W34580   4.423  10.579  13.478
33716W        W34581   7.168  10.696  11.079
33717W        W34582   4.031   9.368  14.075
33718W        W34583   6.026   9.630  12.763
33719W        W34584   4.462   9.279  12.005
33720W        W34585   4.833  10.286  13.400
33721W        W34586   5.211   7.705  12.441
33722W        W34587   3.822   9.689  11.371
33723W        W34588   5.341   8.640  11.241
33724W        W34589   3.987   9.189  12.260
33725W        W34590   5.277   7.831  13.724
33726W        W34591   6.949   7.540  11.151
33727W        W34592   7.042   9.286  14.250
33728W        W34593   5.696  10.543  14.402
33729W        W34594   7.254   9.637  13.924
33730W        W34595   6.662  10.435  14.535
33731W        W34596   4.401  10.891  13.013
33732W        W34597   7.260   9.513  11.887
33733W        W34598   5.790   8.780  12.400
33734W        W34599   5.557   7.392  12.290
33735W        W34600   4.616  10.376  12.127
33736W        W34601   5.115   8.117  13.352
33737W        W34602   4.815   7.486  12.821
33738W        W34603   3.878  10.308  11.369
33739W        W34604   5.694   9.672  12.087
33740W        W34605   4.569  10.467  13.966
33741W        W34606   4.046   9.290  11.662
33742W        W34607   3.931   7.833  12.661
33743W        W34608   5.479   9.798  12.718
33744W        W34609   3.731   7.652  11.738
33745W        W34610   6.395   8.858  13.665
33746W        W34611   6.272   8.244  11.237
33747W        W34612   6.789   9.916  12.885
33748W        W34613   5.450  10.400  12.716
33749W        W34614   4.862  10.504  11.627
33750W        W34615   6.144   7.407  11.057
33751W        W34616   3.944  10.667  12.798
33752W        W34617   6.141   8.425  14.433
33753W        W34618   4.124   7.955  14.432
33754W        W34619   3.855   8.555  11.765
33755W        W34620   4.546   8.544  11.490
33756W        W34621   6.309   8.871  14.307
33757W        W34622   4.652   9.152  13.016
33758W        W34623   6.126   7.438  12.136
33759W        W34624   5.257  10.869  12.639
33760W        W34625   6.471  10.331  13.576
33761W        W34626   6.055  10.480  12.687
33762W        W34627   6.074   9.460  12.281
33763W        W34628   5.536   7.685  11.352
33764W        W34629   7.217   7.313  12.074
33765W        W34630   4.905   8.948  11.237
33766W        W34631   7.071   8.285  12.227
33767W        W34632   5.763   9.455  11.104
33768W        W34633   6.699   9.655  13.852
33769W        W34634   6.353  10.356  11.319
33770W        W34635   4.968   8.031  14.225
33771W        W34636   4.788   8.615  13.466
33772W        W34637   6.880  10.110  13.743
33773W        W34638   5.980   8.060  14.120
33774W        W34639   3.824   8.531  13.897
33775W        W34640   5.584   9.008  13.623
33776W        W34641   3.941   9.766  12.280
33777W        W34642   4.088   9.063  13.170
33778W        W34643   6.405   9.349  13.520
33779W        W34644   6.177  10.729  14.331
33780W        W34645   6.073   8.468  13.884
33781W        W34646   6.350  10.522  12.289
33782W        W34647   5.352  10.242  13.612
33783W        W34648   4.837  10.597  12.881
33784W        W34649   6.642   9.768  13.300
33785W        W34650   5.692   9.840  14.437
33786W        W34651   4.297   9.793  12.776
33787W        W34652   6.643   9.552  12.421
33788W        W34653   6.284  10.618  13.172
33789W        W34654   4.262  10.347  13.042
33790W        W34655   5.283   8.399  14.252
33791W        W34656   5.734  10.565  11.763
33792W        W34657   5.042   9.820  14.401
33793W        W34658   5.168  10.058  11.778
33794W        W34659   4.389   8.798  11.037
33795W        W34660   3.728  10.884  17.936
33796W        W34661   4.104   9.777  17.459
33797W        W34662   6.809   9.507  15.229
33798W        W34663   6.939  10.592  17.256
33799W        W34664   4.857  10.583  14.782
33800W        W34665   4.940   8.735  15.765
33801W        W34666   4.455   8.583  15.929
33802W        W34667   5.446   9.398  15.363
33803W        W34668   5.121  10.490  17.718
33804W        W34669   3.770   8.051  17.681
33805W        W34670   4.532   7.331  17.483
33806W        W34671   6.226   7.719  16.370
33807W        W34672   5.875   8.590  14.940
33808W        W34673   6.445   8.024  18.031
33809W        W34674   3.811   7.816  17.156
33810W        W34675   3.910  10.435  18.177
33811W        W34676   5.432   9.825  14.909
33812W        W34677   3.864   8.608  16.602
33813W        W34678   4.757   8.499  17.839
33814W        W34679   7.216   8.358  16.338
33815W        W34680   6.980   9.401  17.197
33816W        W34681   5.288   8.734  16.224
33817W        W34682   5.834  10.073  16.593
33818W        W34683   4.334   9.507  16.825
33819W        W34684   3.693   9.035  16.396
33820W        W34685   4.729   9.007  17.588
33821W        W34686   7.000   8.790  17.842
33822W        W34687   4.616  10.234  16.287
33823W        W34688   5.737   9.923  17.421
33824W        W34689   4.957   8.563  16.646
33825W        W34690   5.249   9.347  16.289
33826W        W34691   6.246  10.120  18.137
33827W        W34692   5.325   9.440  18.147
33828W        W34693   5.306   9.156  17.625
33829W        W34694   3.715   8.547  18.147
33830W        W34695   6.547  10.082  17.746
33831W        W34696   4.128   7.664  15.744
33832W        W34697   4.655   9.922  16.743
33833W        W34698   7.118   9.705  16.033
33834W        W34699   6.531   8.105  16.600
33835W        W34700   6.816   8.058  14.695
33836W        W34701   7.281   8.859  17.001
33837W        W34702   5.248  10.566  16.754
33838W        W34703   7.022  10.032  15.192
33839W        W34704   4.151  10.818  14.946
33840W        W34705   4.544  10.864  15.622
33841W        W34706   4.341   7.618  17.048
33842W        W34707   6.964   8.636  17.323
33843W        W34708   6.369   9.058  15.782
33844W        W34709   6.335   8.746  14.809
33845W        W34710   5.543   9.890  16.949
33846W        W34711   5.349   8.220  16.148
33847W        W34712   5.949  10.307  17.142
33848W        W34713   6.820   9.098  15.564
33849W        W34714   5.722   7.756  15.580
33850W        W34715   4.379  10.450  15.263
33851W        W34716   3.750   7.949  15.862
33852W        W34717   6.536   8.556  16.336
33853W        W34718   3.994  10.173  16.251
33854W        W34719   5.335  10.523  15.121
33855W        W34720   6.727   8.549  14.585
33856W        W34721   3.750  10.307  16.749
33857W        W34722   4.541   9.879  17.229
33858W        W34723   4.914   9.239  15.848
33859W        W34724   4.936   7.644  16.941
33860W        W34725   7.165   7.406  16.238
33861W        W34726   4.384   9.278  14.706
33862W        W34727   4.039   8.311  14.885
33863W        W34728   4.101  10.267  15.679
33864W        W34729   5.232   9.750  15.927
33865W        W34730   6.564  10.609  17.641
33866W        W34731   5.490   8.251  15.325
33867W        W34732   6.873  10.649  16.097
33868W        W34733   6.550   8.502  17.695
33869W        W34734   7.263  10.158  15.829
33870W        W34735   5.890   9.450  17.313
33871W        W34736   3.656   9.001  15.519
33872W        W34737   4.767   9.416  17.092
33873W        W34738   5.971   8.680  15.470
33874W        W34739   5.848   9.170  15.574
33875W        W34740   4.191   8.590  17.048
33876W        W34741   4.176   8.466  17.970
33877W        W34742   4.066   7.383  16.129
33878W        W34743   5.834   7.730  16.690
33879W        W34744   5.482   7.915  17.853
33880W        W34745   5.837   8.064  15.031
33881W        W34746   7.020  10.457  17.785
33882W        W34747   5.987   7.538  17.824
33883W        W34748   7.006   9.839  17.946
33884W        W34749   6.436   8.006  17.542
33885W        W34750   6.236   7.944  15.812
33886W        W34751   6.629   9.078  18.216
33887W        W34752   4.369  10.654  16.202
33888W        W34753   5.027   8.371  15.188
33889W        W34754   4.596   7.655  17.852
33890W        W34755   6.648   8.139  15.533
33891W        W34756   7.015   8.621  15.478
33892W        W34757   4.758  10.838  17.949
33893W        W34758   4.684   7.374  15.184
33894W        W34759   7.005   7.908  16.219
33895W        W34760   7.155  10.157  14.664
33896W        W34761   4.062   9.360  16.366
33897W        W34762   5.979   7.947  14.596
33898W        W34763   7.113  10.279  16.316
33899W        W34764   7.152   7.473  17.066
33900W        W34765   5.597   8.685  17.620
33901W        W34766   5.690  10.024  15.323
33902W        W34767   6.090   9.318  18.063
33903W        W34768   4.376   8.198  16.435
33904W        W34769   3.930   9.398  17.209
33905W        W34770   5.789  10.591  15.915
33906W        W34771   6.983   8.188  16.787
33907W        W34772   5.620  10.535  17.554
33908W        W34773   6.963   9.594  14.759
33909W        W34774   5.398   9.077  15.820
33910W        W34775   7.250   7.588  17.561
33911W        W34776   5.399   9.423  17.155
33912W        W34777   5.616   8.309  16.600
33913W        W34778   6.468   8.607  15.438
33914W        W34779   6.755   8.340  15.080
33915W        W34780   6.564  10.380  15.469
33916W        W34781   6.398   9.983  16.265
33917W        W34782   6.294   9.062  15.243
33918W        W34783   5.727   9.272  16.229
33919W        W34784   6.608   9.060  16.296
33920W        W34785   3.983   8.075  16.720
33921W        W34786   6.761   9.127  17.547
33922W        W34787   7.112  10.745  16.693
33923W        W34788   5.042  10.189  16.095
33924W        W34789   6.049  10.722  17.419
33925W        W34790   6.043   8.052  17.183
33926W        W34791   5.250  10.760  17.244
33927W        W34792   6.947   7.714  15.710
33928W        W34793   6.738   9.033  17.011
33929W        W34794   3.721   8.354  17.049
33930W        W34795   6.581   8.149  16.067
33931W        W34796   6.992   8.300  17.844
33932W        W34797   5.877   9.999  16.062
33933W        W34798   5.133  10.590  15.675
33934W        W34799   4.248   7.770  14.933
33935W        W34800   5.352   7.424  16.743
33936W        W34801   4.380  10.544  14.591
33937W        W34802   4.754   9.010  15.342
33938W        W34803   5.408   9.639  17.655
33939W        W34804   5.238   7.997  15.645
33940W        W34805   6.594   7.594  16.073
33941W        W34806   6.314  10.876  16.401
33942W        W34807   5.726  10.524  16.741
33943W        W34808   5.122   9.561  16.702
33944W        W34809   6.892  10.284  16.828
33945W        W34810   4.586   7.787  15.597
33946W        W34811   5.108  10.084  16.557
33947W        W34812   4.591   8.015  14.622
33948W        W34813   5.392   8.624  17.016
33949W        W34814   6.240   7.490  16.886
33950W        W34815   3.660   9.333  16.771
33951W        W34816   5.364   9.151  14.929
33952W        W34817   4.632   7.466  14.699
33953W        W34818   5.370   8.547  15.750
33954W        W34819   6.340   7.523  17.449
33955W        W34820   4.928   9.535  17.558
33956W        W34821   5.732   9.317  17.775
33957W        W34822   6.349   9.347  17.668
33958W        W34823   5.633   7.487  18.173
33959W        W34824   4.855   8.103  16.566
33960W        W34825   4.281   8.059  15.964
33961W        W34826   4.067  10.771  15.640
33962W        W34827   5.399  10.101  17.765
33963W        W34828   4.434   9.586  15.124
33964W        W34829   6.114   8.971  16.345
33965W        W34830   6.394   8.770  16.744
33966W        W34831   5.599   9.444  16.678
33967W        W34832   6.069   9.818  14.810
33968W        W34833   5.741   7.839  16.138
33969W        W34834   7.220   8.117  15.406
33970W        W34835   3.714  10.706  17.437
33971W        W34836   4.131   9.932  16.969
33972W        W34837   3.698  10.778  15.201
33973W        W34838   5.597   8.048  17.007
33974W        W34839   4.960  10.071  14.856
33975W        W34840   6.865  10.453  15.042
33976W        W34841   5.840   9.106  15.056
33977W        W34842   4.683   8.297  15.573
33978W        W34843   5.515   8.207  14.625
33979W        W34844   6.099   9.772  17.803
33980W        W34845   6.452   7.678  15.420
33981W        W34846   3.782   7.526  14.868
33982W        W34847   5.068   9.845  17.158
33983W        W34848   4.867   9.761  16.250
33984W        W34849   4.609   9.713  14.648
33985W        W34850   3.850   9.954  15.416
33986W        W34851   4.354   9.024  17.858
33987W        W34852   5.058   7.584  18.044
33988W        W34853   5.767   7.726  17.400
33989W        W34854   4.962   7.494  15.681
33990W        W34855   6.021   7.571  15.186
33991W        W34856   3.966   7.503  16.763
33992W        W34857   4.014   8.466  16.133
33993W        W34858   6.703   7.574  16.539
33994W        W34859   4.125   8.072  15.353
33995W        W34860   6.696   7.760  16.969
33996W        W34861   7.092   8.963  14.654
33997W        W34862   4.384   7.721  16.473
33998W        W34863   5.498   8.293  17.413
33999W        W34864   3.646   7.983  14.891
34000W        W34865   4.432   9.372  17.452
34001W        W34866   5.790   8.770  16.631
34002W        W34867   5.657  10.849  14.927
34003W        W34868   3.803   9.356  14.624
34004W        W34869   4.538   9.767  17.750
34005W        W34870   4.059   8.934  17.381
34006W        W34871   5.050   9.039  17.175
34007W        W34872   6.818   7.398  17.437
34008W        W34873   7.216   9.008  17.428
34009W        W34874   7.204   9.208  15.114
34010W        W34875   6.067   9.540  15.213
34011W        W34876   6.541  10.840  14.908
34012W        W34877   5.718   8.830  18.050
34013W        W34878   4.048   9.797  18.090
34014W        W34879   7.254   7.719  18.042
34015W        W34880   6.972   8.647  16.663
34016W        W34881   5.280  10.777  18.140
34017W        W34882   5.135   7.406  14.867
34018W        W34883   6.674  10.005  14.810
34019W        W34884   4.443   8.098  17.696
34020W        W34885   4.877  10.092  17.558
34021W        W34886   7.003   8.083  17.356
34022W        W34887   6.214  10.742  15.324
34023W        W34888   6.453   9.361  16.691
34024W        W34889   4.703   7.777  17.358
34025W        W34890   5.172   8.846  18.115
34026W        W34891   4.675  10.025  15.309
34027W        W34892   6.430   9.523  15.573
34028W        W34893   4.198   8.149  17.297
34029W        W34894   5.527  10.211  15.761
34030W        W34895   7.277   8.771  15.942
34031W        W34896   5.499   7.404  17.661
34032W        W34897   6.279  10.109  16.740
34033W        W34898   6.582  10.453  16.448
34034W        W34899   5.801  10.255  14.876
34035W        W34900   3.811  10.147  17.718
34036W        W34901   4.554   8.139  16.956
34037W        W34902   4.524   7.487  16.066
34038W        W34903   6.145   8.329  16.758
34039W        W34904   4.943   9.500  14.958
34040W        W34905   6.941   9.442  16.457
34041W        W34906   4.268  10.200  17.880
34042W        W34907   6.655  10.882  15.677
34043W        W34908   4.754   7.902  16.122
34044W        W34909   4.523   9.395  16.212
34045W        W34910   4.836  10.806  16.962
34046W        W34911   6.903  10.902  17.994
34047W        W34912   6.062   9.090  16.927
34048W        W34913   3.911   8.888  14.842
34049W        W34914   7.045  10.546  15.539
34050W        W34915   6.882   7.870  15.158
34051W        W34916   5.021   7.389  17.561
34052W        W34917   6.727  10.191  16.019
34053W        W34918   6.756   8.747  15.924
34054W        W34919   4.873   8.420  16.140
34055W        W34920   5.118   8.682  17.464
34056W        W34921   6.229   9.835  17.327
34057W        W34922   4.879   8.289  17.439
34058W        W34923   4.858  10.755  16.055
34059W        W34924   4.175  10.714  17.689
34060W        W34925   4.287  10.075  14.819
34061W        W34926   6.804   9.833  15.629
34062W        W34927   4.408   8.625  17.515
34063W        W34928   7.181   8.555  14.996
34064W        W34929   4.926   9.612  15.467
34065W        W34930   6.025   8.994  17.548
34066W        W34931   5.916   8.622  17.092
34067W        W34932   4.476   8.994  17.121
34068W        W34933   6.686  10.882  16.950
34069W        W34934   6.477   7.516  17.944
34070W        W34935   4.141   7.666  17.531
34071W        W34936   4.480   8.689  16.584
34072W        W34937   4.849   8.503  14.706
34073W        W34938   3.652  10.262  17.251
34074W        W34939   5.237   8.971  16.694
34075W        W34940   5.060   7.996  14.799
34076W        W34941   4.195   8.812  15.580
34077W        W34942   3.966  10.664  17.017
34078W        W34943   6.761   8.890  15.125
34079W        W34944   6.856   7.806  17.811
34080W        W34945   6.292  10.015  15.774
34081W        W34946   3.890   8.939  17.951
34082W        W34947   6.856   7.403  15.247
34083W        W34948   6.376   9.878  15.258
34084W        W34949   5.278   8.936  15.343
34085W        W34950   6.465   7.740  14.866
34086W        W34951   6.530   8.347  17.052
34087W        W34952   4.239   8.940  16.259
34088W        W34953   4.533   9.879  15.908
34089W        W34954   6.296   8.499  15.873
34090W        W34955   5.319   7.878  16.569
34091W        W34956   7.281   9.789  17.080
34092W        W34957   7.199   7.776  16.641
34093W        W34958   3.738  10.606  16.017
34094W        W34959   4.247   9.793  15.553
34095W        W34960   4.162   7.410  18.106
34096W        W34961   5.281  10.263  18.208
34097W        W34962   7.036   9.231  15.998
34098W        W34963   6.390   9.408  14.878
34099W        W34964   5.685  10.929  17.090
34100W        W34965   6.542   9.651  18.127
34101W        W34966   5.357   7.361  15.407
34102W        W34967   6.070   8.230  16.266
34103W        W34968   3.756   9.817  16.598
34104W        W34969   5.009   7.779  15.239
34105W        W34970   4.813   9.263  18.088
34106W        W34971   5.807   8.244  15.802
34107W        W34972   6.012   9.654  16.924
34108W        W34973   4.166  10.259  17.359
34109W        W34974   4.757  10.242  18.082
34110W        W34975   4.608   8.039  15.096
34111W        W34976   6.125   8.181  15.421
34112W        W34977   6.083  10.289  17.658
34113W        W34978   4.768   8.881  16.257
34114W        W34979   4.423  10.579  17.122
34115W        W34980   7.168  10.696  14.723
34116W        W34981   4.031   9.368  17.719
34117W        W34982   6.026   9.630  16.407
34118W        W34983   4.462   9.279  15.649
34119W        W34984   4.833  10.286  17.044
34120W        W34985   5.211   7.705  16.085
34121W        W34986   3.822   9.689  15.015
34122W        W34987   5.341   8.640  14.885
34123W        W34988   3.987   9.189  15.904
34124W        W34989   5.277   7.831  17.368
34125W        W34990   6.949   7.540  14.795
34126W        W34991   7.042   9.286  17.894
34127W        W34992   5.696  10.543  18.046
34128W        W34993   7.254   9.637  17.568
34129W        W34994   6.662  10.435  18.179
34130W        W34995   4.401  10.891  16.657
34131W        W34996   7.260   9.513  15.531
34132W        W34997   5.790   8.780  16.044
34133W        W34998   5.557   7.392  15.934
34134W        W34999   4.616  10.376  15.771
34135W        W35000   5.115   8.117  16.996
34136W        W35001   4.815   7.486  16.465
34137W        W35002   3.878  10.308  15.013
34138W        W35003   5.694   9.672  15.731
34139W        W35004   4.569  10.467  17.610
34140W        W35005   4.046   9.290  15.306
34141W        W35006   3.931   7.833  16.305
34142W        W35007   5.479   9.798  16.362
34143W        W35008   3.731   7.652  15.382
34144W        W35009   6.395   8.858  17.309
34145W        W35010   6.272   8.244  14.881
34146W        W35011   6.789   9.916  16.529
34147W        W35012   5.450  10.400  16.360
34148W        W35013   4.862  10.504  15.271
34149W        W35014   6.144   7.407  14.701
34150W        W35015   3.944  10.667  16.442
34151W        W35016   6.141   8.425  18.077
34152W        W35017   4.124   7.955  18.076
34153W        W35018   3.855   8.555  15.409
34154W        W35019   4.546   8.544  15.134
34155W        W35020   6.309   8.871  17.951
34156W        W35021   4.652   9.152  16.660
34157W        W35022   6.126   7.438  15.780
34158W        W35023   5.257  10.869  16.283
34159W        W35024   6.471  10.331  17.220
34160W        W35025   6.055  10.480  16.331
34161W        W35026   6.074   9.460  15.925
34162W        W35027   5.536   7.685  14.996
34163W        W35028   7.217   7.313  15.718
34164W        W35029   4.905   8.948  14.881
34165W        W35030   7.071   8.285  15.871
34166W        W35031   5.763   9.455  14.748
34167W        W35032   6.699   9.655  17.496
34168W        W35033   6.353  10.356  14.963
34169W        W35034   4.968   8.031  17.869
34170W        W35035   4.788   8.615  17.110
34171W        W35036   6.880  10.110  17.387
34172W        W35037   5.980   8.060  17.764
34173W        W35038   3.824   8.531  17.541
34174W        W35039   5.584   9.008  17.267
34175W        W35040   3.941   9.766  15.924
34176W        W35041   4.088   9.063  16.814
34177W        W35042   6.405   9.349  17.164
34178W        W35043   6.177  10.729  17.975
34179W        W35044   6.073   8.468  17.528
34180W        W35045   6.350  10.522  15.933
34181W        W35046   5.352  10.242  17.256
34182W        W35047   4.837  10.597  16.525
34183W        W35048   6.642   9.768  16.944
34184W        W35049   5.692   9.840  18.081
34185W        W35050   4.297   9.793  16.420
34186W        W35051   6.643   9.552  16.065
34187W        W35052   6.284  10.618  16.816
34188W        W35053   4.262  10.347  16.686
34189W        W35054   5.283   8.399  17.896
34190W        W35055   5.734  10.565  15.407
34191W        W35056   5.042   9.820  18.045
34192W        W35057   5.168  10.058  15.422
34193W        W35058   4.389   8.798  14.681
34194W        W35059   3.728  10.884  21.580
34195W        W35060   4.104   9.777  21.103
34196W        W35061   6.809   9.507  18.873
34197W        W35062   6.939  10.592  20.900
34198W        W35063   4.857  10.583  18.426
34199W        W35064   4.940   8.735  19.409
34200W        W35065   4.455   8.583  19.573
34201W        W35066   5.446   9.398  19.007
34202W        W35067   5.121  10.490  21.362
34203W        W35068   3.770   8.051  21.325
34204W        W35069   4.532   7.331  21.127
34205W        W35070   6.226   7.719  20.014
34206W        W35071   5.875   8.590  18.584
34207W        W35072   6.445   8.024  21.675
34208W        W35073   3.811   7.816  20.800
34209W        W35074   3.910  10.435  21.821
34210W        W35075   5.432   9.825  18.553
34211W        W35076   3.864   8.608  20.246
34212W        W35077   4.757   8.499  21.483
34213W        W35078   7.216   8.358  19.982
34214W        W35079   6.980   9.401  20.841
34215W        W35080   5.288   8.734  19.868
34216W        W35081   5.834  10.073  20.237
34217W        W35082   4.334   9.507  20.469
34218W        W35083   3.693   9.035  20.040
34219W        W35084   4.729   9.007  21.232
34220W        W35085   7.000   8.790  21.486
34221W        W35086   4.616  10.234  19.931
34222W        W35087   5.737   9.923  21.065
34223W        W35088   4.957   8.563  20.290
34224W        W35089   5.249   9.347  19.933
34225W        W35090   6.246  10.120  21.781
34226W        W35091   5.325   9.440  21.791
34227W        W35092   5.306   9.156  21.269
34228W        W35093   3.715   8.547  21.791
34229W        W35094   6.547  10.082  21.390
34230W        W35095   4.128   7.664  19.388
34231W        W35096   4.655   9.922  20.387
34232W        W35097   7.118   9.705  19.677
34233W        W35098   6.531   8.105  20.244
34234W        W35099   6.816   8.058  18.339
34235W        W35100   7.281   8.859  20.645
34236W        W35101   5.248  10.566  20.398
34237W        W35102   7.022  10.032  18.836
34238W        W35103   4.151  10.818  18.590
34239W        W35104   4.544  10.864  19.266
34240W        W35105   4.341   7.618  20.692
34241W        W35106   6.964   8.636  20.967
34242W        W35107   6.369   9.058  19.426
34243W        W35108   6.335   8.746  18.453
34244W        W35109   5.543   9.890  20.593
34245W        W35110   5.349   8.220  19.792
34246W        W35111   5.949  10.307  20.786
34247W        W35112   6.820   9.098  19.208
34248W        W35113   5.722   7.756  19.224
34249W        W35114   4.379  10.450  18.907
34250W        W35115   3.750   7.949  19.506
34251W        W35116   6.536   8.556  19.980
34252W        W35117   3.994  10.173  19.895
34253W        W35118   5.335  10.523  18.765
34254W        W35119   6.727   8.549  18.229
34255W        W35120   3.750  10.307  20.393
34256W        W35121   4.541   9.879  20.873
34257W        W35122   4.914   9.239  19.492
34258W        W35123   4.936   7.644  20.585
34259W        W35124   7.165   7.406  19.882
34260W        W35125   4.384   9.278  18.350
34261W        W35126   4.039   8.311  18.529
34262W        W35127   4.101  10.267  19.323
34263W        W35128   5.232   9.750  19.571
34264W        W35129   6.564  10.609  21.285
34265W        W35130   5.490   8.251  18.969
34266W        W35131   6.873  10.649  19.741
34267W        W35132   6.550   8.502  21.339
34268W        W35133   7.263  10.158  19.473
34269W        W35134   5.890   9.450  20.957
34270W        W35135   3.656   9.001  19.163
34271W        W35136   4.767   9.416  20.736
34272W        W35137   5.971   8.680  19.114
34273W        W35138   5.848   9.170  19.218
34274W        W35139   4.191   8.590  20.692
34275W        W35140   4.176   8.466  21.614
34276W        W35141   4.066   7.383  19.773
34277W        W35142   5.834   7.730  20.334
34278W        W35143   5.482   7.915  21.497
34279W        W35144   5.837   8.064  18.675
34280W        W35145   7.020  10.457  21.429
34281W        W35146   5.987   7.538  21.468
34282W        W35147   7.006   9.839  21.590
34283W        W35148   6.436   8.006  21.186
34284W        W35149   6.236   7.944  19.456
34285W        W35150   6.629   9.078  21.860
34286W        W35151   4.369  10.654  19.846
34287W        W35152   5.027   8.371  18.832
34288W        W35153   4.596   7.655  21.496
34289W        W35154   6.648   8.139  19.177
34290W        W35155   7.015   8.621  19.122
34291W        W35156   4.758  10.838  21.593
34292W        W35157   4.684   7.374  18.828
34293W        W35158   7.005   7.908  19.863
34294W        W35159   7.155  10.157  18.308
34295W        W35160   4.062   9.360  20.010
34296W        W35161   5.979   7.947  18.240
34297W        W35162   7.113  10.279  19.960
34298W        W35163   7.152   7.473  20.710
34299W        W35164   5.597   8.685  21.264
34300W        W35165   5.690  10.024  18.967
34301W        W35166   6.090   9.318  21.707
34302W        W35167   5.764   7.295  20.016
34303W        W35168   4.376   8.198  20.079
34304W        W35169   3.930   9.398  20.853
34305W        W35170   5.789  10.591  19.559
34306W        W35171   6.983   8.188  20.431
34307W        W35172   5.620  10.535  21.198
34308W        W35173   6.963   9.594  18.403
34309W        W35174   5.398   9.077  19.464
34310W        W35175   7.250   7.588  21.205
34311W        W35176   5.399   9.423  20.799
34312W        W35177   5.616   8.309  20.244
34313W        W35178   6.468   8.607  19.082
34314W        W35179   6.755   8.340  18.724
34315W        W35180   6.564  10.380  19.113
34316W        W35181   6.398   9.983  19.909
34317W        W35182   6.294   9.062  18.887
34318W        W35183   5.727   9.272  19.873
34319W        W35184   6.608   9.060  19.940
34320W        W35185   3.983   8.075  20.364
34321W        W35186   6.761   9.127  21.191
34322W        W35187   7.112  10.745  20.337
34323W        W35188   5.042  10.189  19.739
34324W        W35189   6.049  10.722  21.063
34325W        W35190   6.043   8.052  20.827
34326W        W35191   5.250  10.760  20.888
34327W        W35192   6.947   7.714  19.354
34328W        W35193   6.738   9.033  20.655
34329W        W35194   3.721   8.354  20.693
34330W        W35195   6.581   8.149  19.711
34331W        W35196   6.992   8.300  21.488
34332W        W35197   5.877   9.999  19.706
34333W        W35198   5.133  10.590  19.319
34334W        W35199   4.248   7.770  18.577
34335W        W35200   5.352   7.424  20.387
34336W        W35201   4.380  10.544  18.235
34337W        W35202   4.754   9.010  18.986
34338W        W35203   5.408   9.639  21.299
34339W        W35204   5.238   7.997  19.289
34340W        W35205   6.594   7.594  19.717
34341W        W35206   6.314  10.876  20.045
34342W        W35207   5.726  10.524  20.385
34343W        W35208   5.122   9.561  20.346
34344W        W35209   6.892  10.284  20.472
34345W        W35210   4.586   7.787  19.241
34346W        W35211   5.108  10.084  20.201
34347W        W35212   4.591   8.015  18.266
34348W        W35213   5.392   8.624  20.660
34349W        W35214   6.240   7.490  20.530
34350W        W35215   3.660   9.333  20.415
34351W        W35216   5.364   9.151  18.573
34352W        W35217   4.632   7.466  18.343
34353W        W35218   5.370   8.547  19.394
34354W        W35219   6.340   7.523  21.093
34355W        W35220   4.928   9.535  21.202
34356W        W35221   5.732   9.317  21.419
34357W        W35222   6.349   9.347  21.312
34358W        W35223   5.633   7.487  21.817
34359W        W35224   4.855   8.103  20.210
34360W        W35225   4.281   8.059  19.608
34361W        W35226   4.067  10.771  19.284
34362W        W35227   5.399  10.101  21.409
34363W        W35228   4.434   9.586  18.768
34364W        W35229   6.114   8.971  19.989
34365W        W35230   6.394   8.770  20.388
34366W        W35231   5.599   9.444  20.322
34367W        W35232   6.069   9.818  18.454
34368W        W35233   5.741   7.839  19.782
34369W        W35234   7.220   8.117  19.050
34370W        W35235   3.714  10.706  21.081
34371W        W35236   4.131   9.932  20.613
34372W        W35237   3.698  10.778  18.845
34373W        W35238   5.597   8.048  20.651
34374W        W35239   4.960  10.071  18.500
34375W        W35240   6.865  10.453  18.686
34376W        W35241   5.840   9.106  18.700
34377W        W35242   4.683   8.297  19.217
34378W        W35243   5.515   8.207  18.269
34379W        W35244   6.099   9.772  21.447
34380W        W35245   6.452   7.678  19.064
34381W        W35246   3.782   7.526  18.512
34382W        W35247   5.068   9.845  20.802
34383W        W35248   4.867   9.761  19.894
34384W        W35249   4.609   9.713  18.292
34385W        W35250   3.850   9.954  19.060
34386W        W35251   4.354   9.024  21.502
34387W        W35252   5.058   7.584  21.688
34388W        W35253   5.767   7.726  21.044
34389W        W35254   4.962   7.494  19.325
34390W        W35255   6.021   7.571  18.830
34391W        W35256   3.966   7.503  20.407
34392W        W35257   4.014   8.466  19.777
34393W        W35258   6.703   7.574  20.183
34394W        W35259   4.125   8.072  18.997
34395W        W35260   6.696   7.760  20.613
34396W        W35261   7.092   8.963  18.298
34397W        W35262   4.384   7.721  20.117
34398W        W35263   5.498   8.293  21.057
34399W        W35264   3.646   7.983  18.535
34400W        W35265   4.432   9.372  21.096
34401W        W35266   5.790   8.770  20.275
34402W        W35267   5.657  10.849  18.571
34403W        W35268   3.803   9.356  18.268
34404W        W35269   4.538   9.767  21.394
34405W        W35270   4.059   8.934  21.025
34406W        W35271   5.050   9.039  20.819
34407W        W35272   6.818   7.398  21.081
34408W        W35273   7.216   9.008  21.072
34409W        W35274   7.204   9.208  18.758
34410W        W35275   6.067   9.540  18.857
34411W        W35276   6.541  10.840  18.552
34412W        W35277   5.718   8.830  21.694
34413W        W35278   4.048   9.797  21.734
34414W        W35279   7.254   7.719  21.686
34415W        W35280   6.972   8.647  20.307
34416W        W35281   5.280  10.777  21.784
34417W        W35282   5.135   7.406  18.511
34418W        W35283   6.674  10.005  18.454
34419W        W35284   4.443   8.098  21.340
34420W        W35285   4.877  10.092  21.202
34421W        W35286   7.003   8.083  21.000
34422W        W35287   6.214  10.742  18.968
34423W        W35288   6.453   9.361  20.335
34424W        W35289   4.703   7.777  21.002
34425W        W35290   5.172   8.846  21.759
34426W        W35291   4.675  10.025  18.953
34427W        W35292   6.430   9.523  19.217
34428W        W35293   4.198   8.149  20.941
34429W        W35294   5.527  10.211  19.405
34430W        W35295   7.277   8.771  19.586
34431W        W35296   5.499   7.404  21.305
34432W        W35297   6.279  10.109  20.384
34433W        W35298   6.582  10.453  20.092
34434W        W35299   5.801  10.255  18.520
34435W        W35300   3.811  10.147  21.362
34436W        W35301   4.554   8.139  20.600
34437W        W35302   4.524   7.487  19.710
34438W        W35303   6.145   8.329  20.402
34439W        W35304   4.943   9.500  18.602
34440W        W35305   6.941   9.442  20.101
34441W        W35306   4.268  10.200  21.524
34442W        W35307   6.655  10.882  19.321
34443W        W35308   4.754   7.902  19.766
34444W        W35309   4.523   9.395  19.856
34445W        W35310   4.836  10.806  20.606
34446W        W35311   6.903  10.902  21.638
34447W        W35312   6.062   9.090  20.571
34448W        W35313   3.911   8.888  18.486
34449W        W35314   7.045  10.546  19.183
34450W        W35315   6.882   7.870  18.802
34451W        W35316   5.021   7.389  21.205
34452W        W35317   6.727  10.191  19.663
34453W        W35318   6.756   8.747  19.568
34454W        W35319   4.873   8.420  19.784
34455W        W35320   5.118   8.682  21.108
34456W        W35321   6.229   9.835  20.971
34457W        W35322   4.879   8.289  21.083
34458W        W35323   4.858  10.755  19.699
34459W        W35324   4.175  10.714  21.333
34460W        W35325   4.287  10.075  18.463
34461W        W35326   6.804   9.833  19.273
34462W        W35327   4.408   8.625  21.159
34463W        W35328   7.181   8.555  18.640
34464W        W35329   4.926   9.612  19.111
34465W        W35330   6.025   8.994  21.192
34466W        W35331   5.916   8.622  20.736
34467W        W35332   4.476   8.994  20.765
34468W        W35333   6.686  10.882  20.594
34469W        W35334   6.477   7.516  21.588
34470W        W35335   4.141   7.666  21.175
34471W        W35336   4.480   8.689  20.228
34472W        W35337   4.849   8.503  18.350
34473W        W35338   3.652  10.262  20.895
34474W        W35339   5.237   8.971  20.338
34475W        W35340   5.060   7.996  18.443
34476W        W35341   4.195   8.812  19.224
34477W        W35342   3.966  10.664  20.661
34478W        W35343   6.761   8.890  18.769
34479W        W35344   6.856   7.806  21.455
34480W        W35345   6.292  10.015  19.418
34481W        W35346   3.890   8.939  21.595
34482W        W35347   6.856   7.403  18.891
34483W        W35348   6.376   9.878  18.902
34484W        W35349   5.278   8.936  18.987
34485W        W35350   6.465   7.740  18.510
34486W        W35351   6.530   8.347  20.696
34487W        W35352   4.239   8.940  19.903
34488W        W35353   4.533   9.879  19.552
34489W        W35354   6.296   8.499  19.517
34490W        W35355   5.319   7.878  20.213
34491W        W35356   7.281   9.789  20.724
34492W        W35357   7.199   7.776  20.285
34493W        W35358   3.738  10.606  19.661
34494W        W35359   4.247   9.793  19.197
34495W        W35360   4.162   7.410  21.750
34496W        W35361   5.281  10.263  21.852
34497W        W35362   7.036   9.231  19.642
34498W        W35363   6.390   9.408  18.522
34499W        W35364   5.685  10.929  20.734
34500W        W35365   6.542   9.651  21.771
34501W        W35366   5.357   7.361  19.051
34502W        W35367   6.070   8.230  19.910
34503W        W35368   3.756   9.817  20.242
34504W        W35369   5.009   7.779  18.883
34505W        W35370   4.813   9.263  21.732
34506W        W35371   5.807   8.244  19.446
34507W        W35372   6.012   9.654  20.568
34508W        W35373   4.166  10.259  21.003
34509W        W35374   4.757  10.242  21.726
34510W        W35375   4.608   8.039  18.740
34511W        W35376   6.125   8.181  19.065
34512W        W35377   6.083  10.289  21.302
34513W        W35378   4.768   8.881  19.901
34514W        W35379   4.423  10.579  20.766
34515W        W35380   7.168  10.696  18.367
34516W        W35381   4.031   9.368  21.363
34517W        W35382   6.026   9.630  20.051
34518W        W35383   4.462   9.279  19.293
34519W        W35384   4.833  10.286  20.688
34520W        W35385   5.211   7.705  19.729
34521W        W35386   3.822   9.689  18.659
34522W        W35387   5.341   8.640  18.529
34523W        W35388   3.987   9.189  19.548
34524W        W35389   5.277   7.831  21.012
34525W        W35390   6.949   7.540  18.439
34526W        W35391   7.042   9.286  21.538
34527W        W35392   5.696  10.543  21.690
34528W        W35393   7.254   9.637  21.212
34529W        W35394   6.662  10.435  21.823
34530W        W35395   4.401  10.891  20.301
34531W        W35396   7.260   9.513  19.175
34532W        W35397   5.790   8.780  19.688
34533W        W35398   5.557   7.392  19.578
34534W        W35399   4.616  10.376  19.415
34535W        W35400   5.115   8.117  20.640
34536W        W35401   4.815   7.486  20.109
34537W        W35402   3.878  10.308  18.657
34538W        W35403   5.694   9.672  19.375
34539W        W35404   4.569  10.467  21.254
34540W        W35405   4.046   9.290  18.950
34541W        W35406   3.931   7.833  19.949
34542W        W35407   5.479   9.798  20.006
34543W        W35408   3.731   7.652  19.026
34544W        W35409   6.395   8.858  20.953
34545W        W35410   6.272   8.244  18.525
34546W        W35411   6.789   9.916  20.173
34547W        W35412   5.450  10.400  20.004
34548W        W35413   4.862  10.504  18.915
34549W        W35414   6.144   7.407  18.345
34550W        W35415   3.944  10.667  20.086
34551W        W35416   6.141   8.425  21.721
34552W        W35417   4.124   7.955  21.720
34553W        W35418   3.855   8.555  19.053
34554W        W35419   4.546   8.544  18.778
34555W        W35420   6.309   8.871  21.595
34556W        W35421   4.652   9.152  20.304
34557W        W35422   6.126   7.438  19.424
34558W        W35423   5.257  10.869  19.927
34559W        W35424   6.471  10.331  20.864
34560W        W35425   6.055  10.480  19.975
34561W        W35426   6.074   9.460  19.569
34562W        W35427   5.536   7.685  18.640
34563W        W35428   7.217   7.313  19.362
34564W        W35429   4.905   8.948  18.525
34565W        W35430   7.071   8.285  19.515
34566W        W35431   5.763   9.455  18.392
34567W        W35432   6.699   9.655  21.140
34568W        W35433   6.353  10.356  18.607
34569W        W35434   4.968   8.031  21.513
34570W        W35435   4.788   8.615  20.754
34571W        W35436   6.880  10.110  21.031
34572W        W35437   5.980   8.060  21.408
34573W        W35438   3.824   8.531  21.185
34574W        W35439   5.584   9.008  20.911
34575W        W35440   3.941   9.766  19.568
34576W        W35441   4.088   9.063  20.458
34577W        W35442   6.405   9.349  20.808
34578W        W35443   6.177  10.729  21.619
34579W        W35444   6.073   8.468  21.172
34580W        W35445   6.350  10.522  19.577
34581W        W35446   5.352  10.242  20.900
34582W        W35447   4.837  10.597  20.169
34583W        W35448   6.642   9.768  20.588
34584W        W35449   5.692   9.840  21.725
34585W        W35450   4.297   9.793  20.064
34586W        W35451   6.643   9.552  19.709
34587W        W35452   6.284  10.618  20.460
34588W        W35453   4.262  10.347  20.330
34589W        W35454   5.283   8.399  21.540
34590W        W35455   5.734  10.565  19.051
34591W        W35456   5.042   9.820  21.689
34592W        W35457   5.168  10.058  19.066
34593W        W35458   4.389   8.798  18.325
34594W        W35459   3.728  10.884  25.225
34595W        W35460   4.104   9.777  24.748
34596W        W35461   6.809   9.507  22.518
34597W        W35462   6.939  10.592  24.545
34598W        W35463   4.857  10.583  22.071
34599W        W35464   4.940   8.735  23.054
34600W        W35465   4.455   8.583  23.218
34601W        W35466   5.446   9.398  22.652
34602W        W35467   5.121  10.490  25.007
34603W        W35468   3.770   8.051  24.970
34604W        W35469   4.532   7.331  24.772
34605W        W35470   6.226   7.719  23.659
34606W        W35471   5.875   8.590  22.229
34607W        W35472   6.445   8.024  25.320
34608W        W35473   3.811   7.816  24.445
34609W        W35474   3.910  10.435  25.466
34610W        W35475   5.432   9.825  22.198
34611W        W35476   3.864   8.608  23.891
34612W        W35477   4.757   8.499  25.128
34613W        W35478   7.216   8.358  23.627
34614W        W35479   6.980   9.401  24.486
34615W        W35480   5.288   8.734  23.513
34616W        W35481   5.834  10.073  23.882
34617W        W35482   4.334   9.507  24.114
34618W        W35483   3.693   9.035  23.685
34619W        W35484   4.729   9.007  24.877
34620W        W35485   7.000   8.790  25.131
34621W        W35486   4.616  10.234  23.576
34622W        W35487   5.737   9.923  24.710
34623W        W35488   4.957   8.563  23.935
34624W        W35489   5.249   9.347  23.578
34625W        W35490   6.246  10.120  25.426
34626W        W35491   5.325   9.440  25.436
34627W        W35492   5.306   9.156  24.914
34628W        W35493   3.715   8.547  25.436
34629W        W35494   6.547  10.082  25.035
34630W        W35495   4.128   7.664  23.033
34631W        W35496   4.655   9.922  24.032
34632W        W35497   7.118   9.705  23.322
34633W        W35498   6.531   8.105  23.889
34634W        W35499   6.816   8.058  21.984
34635W        W35500   7.281   8.859  24.290
34636W        W35501   5.248  10.566  24.043
34637W        W35502   7.022  10.032  22.481
34638W        W35503   4.151  10.818  22.235
34639W        W35504   4.544  10.864  22.911
34640W        W35505   4.341   7.618  24.337
34641W        W35506   6.964   8.636  24.612
34642W        W35507   6.369   9.058  23.071
34643W        W35508   6.335   8.746  22.098
34644W        W35509   5.543   9.890  24.238
34645W        W35510   5.349   8.220  23.437
34646W        W35511   5.949  10.307  24.431
34647W        W35512   6.820   9.098  22.853
34648W        W35513   5.722   7.756  22.869
34649W        W35514   4.379  10.450  22.552
34650W        W35515   3.750   7.949  23.151
34651W        W35516   6.536   8.556  23.625
34652W        W35517   3.994  10.173  23.540
34653W        W35518   5.335  10.523  22.410
34654W        W35519   6.727   8.549  21.874
34655W        W35520   3.750  10.307  24.038
34656W        W35521   4.541   9.879  24.518
34657W        W35522   4.914   9.239  23.137
34658W        W35523   4.936   7.644  24.230
34659W        W35524   7.165   7.406  23.527
34660W        W35525   4.384   9.278  21.995
34661W        W35526   4.039   8.311  22.174
34662W        W35527   4.101  10.267  22.968
34663W        W35528   5.232   9.750  23.216
34664W        W35529   6.564  10.609  24.930
34665W        W35530   5.490   8.251  22.614
34666W        W35531   6.873  10.649  23.386
34667W        W35532   6.550   8.502  24.984
34668W        W35533   7.263  10.158  23.118
34669W        W35534   5.890   9.450  24.602
34670W        W35535   3.656   9.001  22.808
34671W        W35536   4.767   9.416  24.381
34672W        W35537   5.971   8.680  22.759
34673W        W35538   5.848   9.170  22.863
34674W        W35539   4.191   8.590  24.337
34675W        W35540   4.176   8.466  25.259
34676W        W35541   4.066   7.383  23.418
34677W        W35542   5.834   7.730  23.979
34678W        W35543   5.482   7.915  25.142
34679W        W35544   5.837   8.064  22.320
34680W        W35545   7.020  10.457  25.074
34681W        W35546   5.987   7.538  25.113
34682W        W35547   7.006   9.839  25.235
34683W        W35548   6.436   8.006  24.831
34684W        W35549   6.236   7.944  23.101
34685W        W35550   6.629   9.078  25.505
34686W        W35551   4.369  10.654  23.491
34687W        W35552   5.027   8.371  22.477
34688W        W35553   4.596   7.655  25.141
34689W        W35554   6.648   8.139  22.822
34690W        W35555   7.015   8.621  22.767
34691W        W35556   4.758  10.838  25.238
34692W        W35557   4.684   7.374  22.473
34693W        W35558   7.005   7.908  23.508
34694W        W35559   7.155  10.157  21.953
34695W        W35560   4.062   9.360  23.655
34696W        W35561   5.979   7.947  21.885
34697W        W35562   7.113  10.279  23.605
34698W        W35563   7.152   7.473  24.355
34699W        W35564   5.597   8.685  24.909
34700W        W35565   5.690  10.024  22.612
34701W        W35566   6.090   9.318  25.352
34702W        W35567   5.764   7.295  23.661
34703W        W35568   4.376   8.198  23.724
34704W        W35569   3.930   9.398  24.498
34705W        W35570   5.789  10.591  23.204
34706W        W35571   6.983   8.188  24.076
34707W        W35572   5.620  10.535  24.843
34708W        W35573   6.963   9.594  22.048
34709W        W35574   5.398   9.077  23.109
34710W        W35575   7.250   7.588  24.850
34711W        W35576   5.399   9.423  24.444
34712W        W35577   5.616   8.309  23.889
34713W        W35578   6.468   8.607  22.727
34714W        W35579   6.755   8.340  22.369
34715W        W35580   6.564  10.380  22.758
34716W        W35581   6.398   9.983  23.554
34717W        W35582   6.294   9.062  22.532
34718W        W35583   5.727   9.272  23.518
34719W        W35584   6.608   9.060  23.585
34720W        W35585   3.983   8.075  24.009
34721W        W35586   6.761   9.127  24.836
34722W        W35587   7.112  10.745  23.982
34723W        W35588   5.042  10.189  23.384
34724W        W35589   6.049  10.722  24.708
34725W        W35590   6.043   8.052  24.472
34726W        W35591   5.250  10.760  24.533
34727W        W35592   6.947   7.714  22.999
34728W        W35593   6.738   9.033  24.300
34729W        W35594   3.721   8.354  24.338
34730W        W35595   6.581   8.149  23.356
34731W        W35596   6.992   8.300  25.133
34732W        W35597   5.877   9.999  23.351
34733W        W35598   5.133  10.590  22.964
34734W        W35599   4.248   7.770  22.222
34735W        W35600   5.352   7.424  24.032
34736W        W35601   4.380  10.544  21.880
34737W        W35602   4.754   9.010  22.631
34738W        W35603   5.408   9.639  24.944
34739W        W35604   5.238   7.997  22.934
34740W        W35605   6.594   7.594  23.362
34741W        W35606   6.314  10.876  23.690
34742W        W35607   5.726  10.524  24.030
34743W        W35608   5.122   9.561  23.991
34744W        W35609   6.892  10.284  24.117
34745W        W35610   4.586   7.787  22.886
34746W        W35611   5.108  10.084  23.846
34747W        W35612   4.591   8.015  21.911
34748W        W35613   5.392   8.624  24.305
34749W        W35614   6.240   7.490  24.175
34750W        W35615   3.660   9.333  24.060
34751W        W35616   5.364   9.151  22.218
34752W        W35617   4.632   7.466  21.988
34753W        W35618   5.370   8.547  23.039
34754W        W35619   6.340   7.523  24.738
34755W        W35620   4.928   9.535  24.847
34756W        W35621   5.732   9.317  25.064
34757W        W35622   6.349   9.347  24.957
34758W        W35623   5.633   7.487  25.462
34759W        W35624   4.855   8.103  23.855
34760W        W35625   4.281   8.059  23.253
34761W        W35626   4.067  10.771  22.929
34762W        W35627   5.399  10.101  25.054
34763W        W35628   4.434   9.586  22.413
34764W        W35629   6.114   8.971  23.634
34765W        W35630   6.394   8.770  24.033
34766W        W35631   5.599   9.444  23.967
34767W        W35632   6.069   9.818  22.099
34768W        W35633   5.741   7.839  23.427
34769W        W35634   7.220   8.117  22.695
34770W        W35635   3.714  10.706  24.726
34771W        W35636   4.131   9.932  24.258
34772W        W35637   3.698  10.778  22.490
34773W        W35638   5.597   8.048  24.296
34774W        W35639   4.960  10.071  22.145
34775W        W35640   6.865  10.453  22.331
34776W        W35641   5.840   9.106  22.345
34777W        W35642   4.683   8.297  22.862
34778W        W35643   5.515   8.207  21.914
34779W        W35644   6.099   9.772  25.092
34780W        W35645   6.452   7.678  22.709
34781W        W35646   3.782   7.526  22.157
34782W        W35647   5.068   9.845  24.447
34783W        W35648   4.867   9.761  23.539
34784W        W35649   4.609   9.713  21.937
34785W        W35650   3.850   9.954  22.705
34786W        W35651   4.354   9.024  25.147
34787W        W35652   5.058   7.584  25.333
34788W        W35653   5.767   7.726  24.689
34789W        W35654   4.962   7.494  22.970
34790W        W35655   6.021   7.571  22.475
34791W        W35656   3.966   7.503  24.052
34792W        W35657   4.014   8.466  23.422
34793W        W35658   6.703   7.574  23.828
34794W        W35659   4.125   8.072  22.642
34795W        W35660   6.696   7.760  24.258
34796W        W35661   7.092   8.963  21.943
34797W        W35662   4.384   7.721  23.762
34798W        W35663   5.498   8.293  24.702
34799W        W35664   3.646   7.983  22.180
34800W        W35665   4.432   9.372  24.741
34801W        W35666   5.790   8.770  23.920
34802W        W35667   5.657  10.849  22.216
34803W        W35668   3.803   9.356  21.913
34804W        W35669   4.538   9.767  25.039
34805W        W35670   4.059   8.934  24.670
34806W        W35671   5.050   9.039  24.464
34807W        W35672   6.818   7.398  24.726
34808W        W35673   7.216   9.008  24.717
34809W        W35674   7.204   9.208  22.403
34810W        W35675   6.067   9.540  22.502
34811W        W35676   6.541  10.840  22.197
34812W        W35677   5.718   8.830  25.339
34813W        W35678   4.048   9.797  25.379
34814W        W35679   7.254   7.719  25.331
34815W        W35680   6.972   8.647  23.952
34816W        W35681   5.280  10.777  25.429
34817W        W35682   5.135   7.406  22.156
34818W        W35683   6.674  10.005  22.099
34819W        W35684   4.443   8.098  24.985
34820W        W35685   4.877  10.092  24.847
34821W        W35686   7.003   8.083  24.645
34822W        W35687   6.214  10.742  22.613
34823W        W35688   6.453   9.361  23.980
34824W        W35689   4.703   7.777  24.647
34825W        W35690   5.172   8.846  25.404
34826W        W35691   4.675  10.025  22.598
34827W        W35692   6.430   9.523  22.862
34828W        W35693   4.198   8.149  24.586
34829W        W35694   5.527  10.211  23.050
34830W        W35695   7.277   8.771  23.231
34831W        W35696   5.499   7.404  24.950
34832W        W35697   6.279  10.109  24.029
34833W        W35698   6.582  10.453  23.737
34834W        W35699   5.801  10.255  22.165
34835W        W35700   3.811  10.147  25.007
34836W        W35701   4.554   8.139  24.245
34837W        W35702   4.524   7.487  23.355
34838W        W35703   6.145   8.329  24.047
34839W        W35704   4.943   9.500  22.247
34840W        W35705   6.941   9.442  23.746
34841W        W35706   4.268  10.200  25.169
34842W        W35707   6.655  10.882  22.966
34843W        W35708   4.754   7.902  23.411
34844W        W35709   4.523   9.395  23.501
34845W        W35710   4.836  10.806  24.251
34846W        W35711   6.903  10.902  25.283
34847W        W35712   6.062   9.090  24.216
34848W        W35713   3.911   8.888  22.131
34849W        W35714   7.045  10.546  22.828
34850W        W35715   6.882   7.870  22.447
34851W        W35716   5.021   7.389  24.850
34852W        W35717   6.727  10.191  23.308
34853W        W35718   6.756   8.747  23.213
34854W        W35719   4.873   8.420  23.429
34855W        W35720   5.118   8.682  24.753
34856W        W35721   6.229   9.835  24.616
34857W        W35722   4.879   8.289  24.728
34858W        W35723   4.858  10.755  23.344
34859W        W35724   4.175  10.714  24.978
34860W        W35725   4.287  10.075  22.108
34861W        W35726   6.804   9.833  22.918
34862W        W35727   4.408   8.625  24.804
34863W        W35728   7.181   8.555  22.285
34864W        W35729   4.926   9.612  22.756
34865W        W35730   6.025   8.994  24.837
34866W        W35731   5.916   8.622  24.381
34867W        W35732   4.476   8.994  24.410
34868W        W35733   6.686  10.882  24.239
34869W        W35734   6.477   7.516  25.233
34870W        W35735   4.141   7.666  24.820
34871W        W35736   4.480   8.689  23.873
34872W        W35737   4.849   8.503  21.995
34873W        W35738   3.652  10.262  24.540
34874W        W35739   5.237   8.971  23.983
34875W        W35740   5.060   7.996  22.088
34876W        W35741   4.195   8.812  22.869
34877W        W35742   3.966  10.664  24.306
34878W        W35743   6.761   8.890  22.414
34879W        W35744   6.856   7.806  25.100
34880W        W35745   6.292  10.015  23.063
34881W        W35746   3.890   8.939  25.240
34882W        W35747   6.856   7.403  22.536
34883W        W35748   6.376   9.878  22.547
34884W        W35749   5.278   8.936  22.632
34885W        W35750   6.465   7.740  22.155
34886W        W35751   6.530   8.347  24.341
34887W        W35752   4.239   8.940  23.548
34888W        W35753   4.533   9.879  23.197
34889W        W35754   6.296   8.499  23.162
34890W        W35755   5.319   7.878  23.858
34891W        W35756   7.281   9.789  24.369
34892W        W35757   7.199   7.776  23.930
34893W        W35758   3.738  10.606  23.306
34894W        W35759   4.247   9.793  22.842
34895W        W35760   4.162   7.410  25.395
34896W        W35761   5.281  10.263  25.497
34897W        W35762   7.036   9.231  23.287
34898W        W35763   6.390   9.408  22.167
34899W        W35764   5.685  10.929  24.379
34900W        W35765   6.542   9.651  25.416
34901W        W35766   5.357   7.361  22.696
34902W        W35767   6.070   8.230  23.555
34903W        W35768   3.756   9.817  23.887
34904W        W35769   5.009   7.779  22.528
34905W        W35770   4.813   9.263  25.377
34906W        W35771   5.807   8.244  23.091
34907W        W35772   6.012   9.654  24.213
34908W        W35773   4.166  10.259  24.648
34909W        W35774   4.757  10.242  25.371
34910W        W35775   4.608   8.039  22.385
34911W        W35776   6.125   8.181  22.710
34912W        W35777   6.083  10.289  24.947
34913W        W35778   4.768   8.881  23.546
34914W        W35779   4.423  10.579  24.411
34915W        W35780   7.168  10.696  22.012
34916W        W35781   4.031   9.368  25.008
34917W        W35782   6.026   9.630  23.696
34918W        W35783   4.462   9.279  22.938
34919W        W35784   4.833  10.286  24.333
34920W        W35785   5.211   7.705  23.374
34921W        W35786   3.822   9.689  22.304
34922W        W35787   5.341   8.640  22.174
34923W        W35788   3.987   9.189  23.193
34924W        W35789   5.277   7.831  24.657
34925W        W35790   6.949   7.540  22.084
34926W        W35791   7.042   9.286  25.183
34927W        W35792   5.696  10.543  25.335
34928W        W35793   7.254   9.637  24.857
34929W        W35794   6.662  10.435  25.468
34930W        W35795   4.401  10.891  23.946
34931W        W35796   7.260   9.513  22.820
34932W        W35797   5.790   8.780  23.333
34933W        W35798   5.557   7.392  23.223
34934W        W35799   4.616  10.376  23.060
34935W        W35800   5.115   8.117  24.285
34936W        W35801   4.815   7.486  23.754
34937W        W35802   3.878  10.308  22.302
34938W        W35803   5.694   9.672  23.020
34939W        W35804   4.569  10.467  24.899
34940W        W35805   4.046   9.290  22.595
34941W        W35806   3.931   7.833  23.594
34942W        W35807   5.479   9.798  23.651
34943W        W35808   3.731   7.652  22.671
34944W        W35809   6.395   8.858  24.598
34945W        W35810   6.272   8.244  22.170
34946W        W35811   6.789   9.916  23.818
34947W        W35812   5.450  10.400  23.649
34948W        W35813   4.862  10.504  22.560
34949W        W35814   6.144   7.407  21.990
34950W        W35815   3.944  10.667  23.731
34951W        W35816   6.141   8.425  25.366
34952W        W35817   4.124   7.955  25.365
34953W        W35818   3.855   8.555  22.698
34954W        W35819   4.546   8.544  22.423
34955W        W35820   6.309   8.871  25.240
34956W        W35821   4.652   9.152  23.949
34957W        W35822   6.126   7.438  23.069
34958W        W35823   5.257  10.869  23.572
34959W        W35824   6.471  10.331  24.509
34960W        W35825   6.055  10.480  23.620
34961W        W35826   6.074   9.460  23.214
34962W        W35827   5.536   7.685  22.285
34963W        W35828   7.217   7.313  23.007
34964W        W35829   4.905   8.948  22.170
34965W        W35830   7.071   8.285  23.160
34966W        W35831   5.763   9.455  22.037
34967W        W35832   6.699   9.655  24.785
34968W        W35833   6.353  10.356  22.252
34969W        W35834   4.968   8.031  25.158
34970W        W35835   4.788   8.615  24.399
34971W        W35836   6.880  10.110  24.676
34972W        W35837   5.980   8.060  25.053
34973W        W35838   3.824   8.531  24.830
34974W        W35839   5.584   9.008  24.556
34975W        W35840   3.941   9.766  23.213
34976W        W35841   4.088   9.063  24.103
34977W        W35842   6.405   9.349  24.453
34978W        W35843   6.177  10.729  25.264
34979W        W35844   6.073   8.468  24.817
34980W        W35845   6.350  10.522  23.222
34981W        W35846   5.352  10.242  24.545
34982W        W35847   4.837  10.597  23.814
34983W        W35848   6.642   9.768  24.233
34984W        W35849   5.692   9.840  25.370
34985W        W35850   4.297   9.793  23.709
34986W        W35851   6.643   9.552  23.354
34987W        W35852   6.284  10.618  24.105
34988W        W35853   4.262  10.347  23.975
34989W        W35854   5.283   8.399  25.185
34990W        W35855   5.734  10.565  22.696
34991W        W35856   5.042   9.820  25.334
34992W        W35857   5.168  10.058  22.711
34993W        W35858   4.389   8.798  21.970
34994W        W35859   3.728  10.884  28.869
34995W        W35860   4.104   9.777  28.392
34996W        W35861   6.809   9.507  26.162
34997W        W35862   6.939  10.592  28.189
34998W        W35863   4.857  10.583  25.715
34999W        W35864   4.940   8.735  26.698
35000W        W35865   4.455   8.583  26.862
35001W        W35866   5.446   9.398  26.296
35002W        W35867   5.121  10.490  28.651
35003W        W35868   3.770   8.051  28.614
35004W        W35869   4.532   7.331  28.416
35005W        W35870   6.226   7.719  27.303
35006W        W35871   5.875   8.590  25.873
35007W        W35872   6.445   8.024  28.964
35008W        W35873   3.811   7.816  28.089
35009W        W35874   3.910  10.435  29.110
35010W        W35875   5.432   9.825  25.842
35011W        W35876   3.864   8.608  27.535
35012W        W35877   4.757   8.499  28.772
35013W        W35878   7.216   8.358  27.271
35014W        W35879   6.980   9.401  28.130
35015W        W35880   5.288   8.734  27.157
35016W        W35881   5.834  10.073  27.526
35017W        W35882   4.334   9.507  27.758
35018W        W35883   3.693   9.035  27.329
35019W        W35884   4.729   9.007  28.521
35020W        W35885   7.000   8.790  28.775
35021W        W35886   4.616  10.234  27.220
35022W        W35887   5.737   9.923  28.354
35023W        W35888   4.957   8.563  27.579
35024W        W35889   5.249   9.347  27.222
35025W        W35890   6.246  10.120  29.070
35026W        W35891   5.325   9.440  29.080
35027W        W35892   5.306   9.156  28.558
35028W        W35893   3.715   8.547  29.080
35029W        W35894   6.547  10.082  28.679
35030W        W35895   4.128   7.664  26.677
35031W        W35896   4.655   9.922  27.676
35032W        W35897   7.118   9.705  26.966
35033W        W35898   6.531   8.105  27.533
35034W        W35899   6.816   8.058  25.628
35035W        W35900   7.281   8.859  27.934
35036W        W35901   5.248  10.566  27.687
35037W        W35902   7.022  10.032  26.125
35038W        W35903   4.151  10.818  25.879
35039W        W35904   4.544  10.864  26.555
35040W        W35905   4.341   7.618  27.981
35041W        W35906   6.964   8.636  28.256
35042W        W35907   6.369   9.058  26.715
35043W        W35908   6.335   8.746  25.742
35044W        W35909   5.543   9.890  27.882
35045W        W35910   5.349   8.220  27.081
35046W        W35911   5.949  10.307  28.075
35047W        W35912   6.820   9.098  26.497
35048W        W35913   5.722   7.756  26.513
35049W        W35914   4.379  10.450  26.196
35050W        W35915   3.750   7.949  26.795
35051W        W35916   6.536   8.556  27.269
35052W        W35917   3.994  10.173  27.184
35053W        W35918   5.335  10.523  26.054
35054W        W35919   6.727   8.549  25.518
35055W        W35920   3.750  10.307  27.682
35056W        W35921   4.541   9.879  28.162
35057W        W35922   4.914   9.239  26.781
35058W        W35923   4.936   7.644  27.874
35059W        W35924   7.165   7.406  27.171
35060W        W35925   4.384   9.278  25.639
35061W        W35926   4.039   8.311  25.818
35062W        W35927   4.101  10.267  26.612
35063W        W35928   5.232   9.750  26.860
35064W        W35929   6.564  10.609  28.574
35065W        W35930   5.490   8.251  26.258
35066W        W35931   6.873  10.649  27.030
35067W        W35932   6.550   8.502  28.628
35068W        W35933   7.263  10.158  26.762
35069W        W35934   5.890   9.450  28.246
35070W        W35935   3.656   9.001  26.452
35071W        W35936   4.767   9.416  28.025
35072W        W35937   5.971   8.680  26.403
35073W        W35938   5.848   9.170  26.507
35074W        W35939   4.191   8.590  27.981
35075W        W35940   4.176   8.466  28.903
35076W        W35941   4.066   7.383  27.062
35077W        W35942   5.834   7.730  27.623
35078W        W35943   5.482   7.915  28.786
35079W        W35944   5.837   8.064  25.964
35080W        W35945   7.020  10.457  28.718
35081W        W35946   5.987   7.538  28.757
35082W        W35947   7.006   9.839  28.879
35083W        W35948   6.436   8.006  28.475
35084W        W35949   6.236   7.944  26.745
35085W        W35950   6.629   9.078  29.149
35086W        W35951   4.369  10.654  27.135
35087W        W35952   5.027   8.371  26.121
35088W        W35953   4.596   7.655  28.785
35089W        W35954   6.648   8.139  26.466
35090W        W35955   7.015   8.621  26.411
35091W        W35956   4.758  10.838  28.882
35092W        W35957   4.684   7.374  26.117
35093W        W35958   7.005   7.908  27.152
35094W        W35959   7.155  10.157  25.597
35095W        W35960   4.062   9.360  27.299
35096W        W35961   5.979   7.947  25.529
35097W        W35962   7.113  10.279  27.249
35098W        W35963   7.152   7.473  27.999
35099W        W35964   5.597   8.685  28.553
35100W        W35965   5.690  10.024  26.256
35101W        W35966   6.090   9.318  28.996
35102W        W35967   5.764   7.295  27.305
35103W        W35968   4.376   8.198  27.368
35104W        W35969   3.930   9.398  28.142
35105W        W35970   5.789  10.591  26.848
35106W        W35971   6.983   8.188  27.720
35107W        W35972   5.620  10.535  28.487
35108W        W35973   6.963   9.594  25.692
35109W        W35974   5.398   9.077  26.753
35110W        W35975   7.250   7.588  28.494
35111W        W35976   5.399   9.423  28.088
35112W        W35977   5.616   8.309  27.533
35113W        W35978   6.468   8.607  26.371
35114W        W35979   6.755   8.340  26.013
35115W        W35980   6.564  10.380  26.402
35116W        W35981   6.398   9.983  27.198
35117W        W35982   6.294   9.062  26.176
35118W        W35983   5.727   9.272  27.162
35119W        W35984   6.608   9.060  27.229
35120W        W35985   3.983   8.075  27.653
35121W        W35986   6.761   9.127  28.480
35122W        W35987   7.112  10.745  27.626
35123W        W35988   5.042  10.189  27.028
35124W        W35989   6.049  10.722  28.352
35125W        W35990   6.043   8.052  28.116
35126W        W35991   5.250  10.760  28.177
35127W        W35992   6.947   7.714  26.643
35128W        W35993   6.738   9.033  27.944
35129W        W35994   3.721   8.354  27.982
35130W        W35995   6.581   8.149  27.000
35131W        W35996   6.992   8.300  28.777
35132W        W35997   5.877   9.999  26.995
35133W        W35998   5.133  10.590  26.608
35134W        W35999   4.248   7.770  25.866
35135W        W36000   5.352   7.424  27.676
35136W        W36001   4.380  10.544  25.524
35137W        W36002   4.754   9.010  26.275
35138W        W36003   5.408   9.639  28.588
35139W        W36004   5.238   7.997  26.578
35140W        W36005   6.594   7.594  27.006
35141W        W36006   6.314  10.876  27.334
35142W        W36007   5.726  10.524  27.674
35143W        W36008   5.122   9.561  27.635
35144W        W36009   6.892  10.284  27.761
35145W        W36010   4.586   7.787  26.530
35146W        W36011   5.108  10.084  27.490
35147W        W36012   4.591   8.015  25.555
35148W        W36013   5.392   8.624  27.949
35149W        W36014   6.240   7.490  27.819
35150W        W36015   3.660   9.333  27.704
35151W        W36016   5.364   9.151  25.862
35152W        W36017   4.632   7.466  25.632
35153W        W36018   5.370   8.547  26.683
35154W        W36019   6.340   7.523  28.382
35155W        W36020   4.928   9.535  28.491
35156W        W36021   5.732   9.317  28.708
35157W        W36022   6.349   9.347  28.601
35158W        W36023   5.633   7.487  29.106
35159W        W36024   4.855   8.103  27.499
35160W        W36025   4.281   8.059  26.897
35161W        W36026   4.067  10.771  26.573
35162W        W36027   5.399  10.101  28.698
35163W        W36028   4.434   9.586  26.057
35164W        W36029   6.114   8.971  27.278
35165W        W36030   6.394   8.770  27.677
35166W        W36031   5.599   9.444  27.611
35167W        W36032   6.069   9.818  25.743
35168W        W36033   5.741   7.839  27.071
35169W        W36034   7.220   8.117  26.339
35170W        W36035   3.714  10.706  28.370
35171W        W36036   4.131   9.932  27.902
35172W        W36037   3.698  10.778  26.134
35173W        W36038   5.597   8.048  27.940
35174W        W36039   4.960  10.071  25.789
35175W        W36040   6.865  10.453  25.975
35176W        W36041   5.840   9.106  25.989
35177W        W36042   4.683   8.297  26.506
35178W        W36043   5.515   8.207  25.558
35179W        W36044   6.099   9.772  28.736
35180W        W36045   6.452   7.678  26.353
35181W        W36046   3.782   7.526  25.801
35182W        W36047   5.068   9.845  28.091
35183W        W36048   4.867   9.761  27.183
35184W        W36049   4.609   9.713  25.581
35185W        W36050   3.850   9.954  26.349
35186W        W36051   4.354   9.024  28.791
35187W        W36052   5.058   7.584  28.977
35188W        W36053   5.767   7.726  28.333
35189W        W36054   4.962   7.494  26.614
35190W        W36055   6.021   7.571  26.119
35191W        W36056   3.966   7.503  27.696
35192W        W36057   4.014   8.466  27.066
35193W        W36058   6.703   7.574  27.472
35194W        W36059   4.125   8.072  26.286
35195W        W36060   6.696   7.760  27.902
35196W        W36061   7.092   8.963  25.587
35197W        W36062   4.384   7.721  27.406
35198W        W36063   5.498   8.293  28.346
35199W        W36064   3.646   7.983  25.824
35200W        W36065   4.432   9.372  28.385
35201W        W36066   5.790   8.770  27.564
35202W        W36067   5.657  10.849  25.860
35203W        W36068   3.803   9.356  25.557
35204W        W36069   4.538   9.767  28.683
35205W        W36070   4.059   8.934  28.314
35206W        W36071   5.050   9.039  28.108
35207W        W36072   6.818   7.398  28.370
35208W        W36073   7.216   9.008  28.361
35209W        W36074   7.204   9.208  26.047
35210W        W36075   6.067   9.540  26.146
35211W        W36076   6.541  10.840  25.841
35212W        W36077   5.718   8.830  28.983
35213W        W36078   4.048   9.797  29.023
35214W        W36079   7.254   7.719  28.975
35215W        W36080   6.972   8.647  27.596
35216W        W36081   5.280  10.777  29.073
35217W        W36082   5.135   7.406  25.800
35218W        W36083   6.674  10.005  25.743
35219W        W36084   4.443   8.098  28.629
35220W        W36085   4.877  10.092  28.491
35221W        W36086   7.003   8.083  28.289
35222W        W36087   6.214  10.742  26.257
35223W        W36088   6.453   9.361  27.624
35224W        W36089   4.703   7.777  28.291
35225W        W36090   5.172   8.846  29.048
35226W        W36091   4.675  10.025  26.242
35227W        W36092   6.430   9.523  26.506
35228W        W36093   4.198   8.149  28.230
35229W        W36094   5.527  10.211  26.694
35230W        W36095   7.277   8.771  26.875
35231W        W36096   5.499   7.404  28.594
35232W        W36097   6.279  10.109  27.673
35233W        W36098   6.582  10.453  27.381
35234W        W36099   5.801  10.255  25.809
35235W        W36100   3.811  10.147  28.651
35236W        W36101   4.554   8.139  27.889
35237W        W36102   4.524   7.487  26.999
35238W        W36103   6.145   8.329  27.691
35239W        W36104   4.943   9.500  25.891
35240W        W36105   6.941   9.442  27.390
35241W        W36106   4.268  10.200  28.813
35242W        W36107   6.655  10.882  26.610
35243W        W36108   4.754   7.902  27.055
35244W        W36109   4.523   9.395  27.145
35245W        W36110   4.836  10.806  27.895
35246W        W36111   6.903  10.902  28.927
35247W        W36112   6.062   9.090  27.860
35248W        W36113   3.911   8.888  25.775
35249W        W36114   7.045  10.546  26.472
35250W        W36115   6.882   7.870  26.091
35251W        W36116   5.021   7.389  28.494
35252W        W36117   6.727  10.191  26.952
35253W        W36118   6.756   8.747  26.857
35254W        W36119   4.873   8.420  27.073
35255W        W36120   5.118   8.682  28.397
35256W        W36121   6.229   9.835  28.260
35257W        W36122   4.879   8.289  28.372
35258W        W36123   4.858  10.755  26.988
35259W        W36124   4.175  10.714  28.622
35260W        W36125   4.287  10.075  25.752
35261W        W36126   6.804   9.833  26.562
35262W        W36127   4.408   8.625  28.448
35263W        W36128   7.181   8.555  25.929
35264W        W36129   4.926   9.612  26.400
35265W        W36130   6.025   8.994  28.481
35266W        W36131   5.916   8.622  28.025
35267W        W36132   4.476   8.994  28.054
35268W        W36133   6.686  10.882  27.883
35269W        W36134   6.477   7.516  28.877
35270W        W36135   4.141   7.666  28.464
35271W        W36136   4.480   8.689  27.517
35272W        W36137   4.849   8.503  25.639
35273W        W36138   3.652  10.262  28.184
35274W        W36139   5.237   8.971  27.627
35275W        W36140   5.060   7.996  25.732
35276W        W36141   4.195   8.812  26.513
35277W        W36142   3.966  10.664  27.950
35278W        W36143   6.761   8.890  26.058
35279W        W36144   6.856   7.806  28.744
35280W        W36145   6.292  10.015  26.707
35281W        W36146   3.890   8.939  28.884
35282W        W36147   6.856   7.403  26.180
35283W        W36148   6.376   9.878  26.191
35284W        W36149   5.278   8.936  26.276
35285W        W36150   6.465   7.740  25.799
35286W        W36151   6.530   8.347  27.985
35287W        W36152   4.239   8.940  27.192
35288W        W36153   4.533   9.879  26.841
35289W        W36154   6.296   8.499  26.806
35290W        W36155   5.319   7.878  27.502
35291W        W36156   7.281   9.789  28.013
35292W        W36157   7.199   7.776  27.574
35293W        W36158   3.738  10.606  26.950
35294W        W36159   4.247   9.793  26.486
35295W        W36160   4.162   7.410  29.039
35296W        W36161   5.281  10.263  29.141
35297W        W36162   7.036   9.231  26.931
35298W        W36163   6.390   9.408  25.811
35299W        W36164   5.685  10.929  28.023
35300W        W36165   6.542   9.651  29.060
35301W        W36166   5.357   7.361  26.340
35302W        W36167   6.070   8.230  27.199
35303W        W36168   3.756   9.817  27.531
35304W        W36169   5.009   7.779  26.172
35305W        W36170   4.813   9.263  29.021
35306W        W36171   5.807   8.244  26.735
35307W        W36172   6.012   9.654  27.857
35308W        W36173   4.166  10.259  28.292
35309W        W36174   4.757  10.242  29.015
35310W        W36175   4.608   8.039  26.029
35311W        W36176   6.125   8.181  26.354
35312W        W36177   6.083  10.289  28.591
35313W        W36178   4.768   8.881  27.190
35314W        W36179   4.423  10.579  28.055
35315W        W36180   7.168  10.696  25.656
35316W        W36181   4.031   9.368  28.652
35317W        W36182   6.026   9.630  27.340
35318W        W36183   4.462   9.279  26.582
35319W        W36184   4.833  10.286  27.977
35320W        W36185   5.211   7.705  27.018
35321W        W36186   3.822   9.689  25.948
35322W        W36187   5.341   8.640  25.818
35323W        W36188   3.987   9.189  26.837
35324W        W36189   5.277   7.831  28.301
35325W        W36190   6.949   7.540  25.728
35326W        W36191   7.042   9.286  28.827
35327W        W36192   5.696  10.543  28.979
35328W        W36193   7.254   9.637  28.501
35329W        W36194   6.662  10.435  29.112
35330W        W36195   4.401  10.891  27.590
35331W        W36196   7.260   9.513  26.464
35332W        W36197   5.790   8.780  26.977
35333W        W36198   5.557   7.392  26.867
35334W        W36199   4.616  10.376  26.704
35335W        W36200   5.115   8.117  27.929
35336W        W36201   4.815   7.486  27.398
35337W        W36202   3.878  10.308  25.946
35338W        W36203   5.694   9.672  26.664
35339W        W36204   4.569  10.467  28.543
35340W        W36205   4.046   9.290  26.239
35341W        W36206   3.931   7.833  27.238
35342W        W36207   5.479   9.798  27.295
35343W        W36208   3.731   7.652  26.315
35344W        W36209   6.395   8.858  28.242
35345W        W36210   6.272   8.244  25.814
35346W        W36211   6.789   9.916  27.462
35347W        W36212   5.450  10.400  27.293
35348W        W36213   4.862  10.504  26.204
35349W        W36214   6.144   7.407  25.634
35350W        W36215   3.944  10.667  27.375
35351W        W36216   6.141   8.425  29.010
35352W        W36217   4.124   7.955  29.009
35353W        W36218   3.855   8.555  26.342
35354W        W36219   4.546   8.544  26.067
35355W        W36220   6.309   8.871  28.884
35356W        W36221   4.652   9.152  27.593
35357W        W36222   6.126   7.438  26.713
35358W        W36223   5.257  10.869  27.216
35359W        W36224   6.471  10.331  28.153
35360W        W36225   6.055  10.480  27.264
35361W        W36226   6.074   9.460  26.858
35362W        W36227   5.536   7.685  25.929
35363W        W36228   7.217   7.313  26.651
35364W        W36229   4.905   8.948  25.814
35365W        W36230   7.071   8.285  26.804
35366W        W36231   5.763   9.455  25.681
35367W        W36232   6.699   9.655  28.429
35368W        W36233   6.353  10.356  25.896
35369W        W36234   4.968   8.031  28.802
35370W        W36235   4.788   8.615  28.043
35371W        W36236   6.880  10.110  28.320
35372W        W36237   5.980   8.060  28.697
35373W        W36238   3.824   8.531  28.474
35374W        W36239   5.584   9.008  28.200
35375W        W36240   3.941   9.766  26.857
35376W        W36241   4.088   9.063  27.747
35377W        W36242   6.405   9.349  28.097
35378W        W36243   6.177  10.729  28.908
35379W        W36244   6.073   8.468  28.461
35380W        W36245   6.350  10.522  26.866
35381W        W36246   5.352  10.242  28.189
35382W        W36247   4.837  10.597  27.458
35383W        W36248   6.642   9.768  27.877
35384W        W36249   5.692   9.840  29.014
35385W        W36250   4.297   9.793  27.353
35386W        W36251   6.643   9.552  26.998
35387W        W36252   6.284  10.618  27.749
35388W        W36253   4.262  10.347  27.619
35389W        W36254   5.283   8.399  28.829
35390W        W36255   5.734  10.565  26.340
35391W        W36256   5.042   9.820  28.978
35392W        W36257   5.168  10.058  26.355
35393W        W36258   4.389   8.798  25.614
35394W        W36259   3.728  14.528   3.359
35395W        W36260   4.104  13.421   2.882
35396W        W36261   6.809  13.151   0.652
35397W        W36262   6.939  14.236   2.679
35398W        W36263   4.857  14.227   0.205
35399W        W36264   4.940  12.379   1.188
35400W        W36265   4.455  12.227   1.352
35401W        W36266   5.446  13.042   0.786
35402W        W36267   5.121  14.134   3.141
35403W        W36268   3.770  11.695   3.104
35404W        W36269   4.532  10.975   2.906
35405W        W36270   6.226  11.363   1.793
35406W        W36271   5.875  12.234   0.363
35407W        W36272   6.445  11.668   3.454
35408W        W36273   3.811  11.460   2.579
35409W        W36274   3.910  14.079   3.600
35410W        W36275   5.432  13.469   0.332
35411W        W36276   3.864  12.252   2.025
35412W        W36277   4.757  12.143   3.262
35413W        W36278   7.216  12.002   1.761
35414W        W36279   6.980  13.045   2.620
35415W        W36280   5.288  12.378   1.647
35416W        W36281   5.834  13.717   2.016
35417W        W36282   4.334  13.151   2.248
35418W        W36283   3.693  12.679   1.819
35419W        W36284   4.729  12.651   3.011
35420W        W36285   7.000  12.434   3.265
35421W        W36286   4.616  13.878   1.710
35422W        W36287   5.737  13.567   2.844
35423W        W36288   4.957  12.207   2.069
35424W        W36289   5.249  12.991   1.712
35425W        W36290   6.246  13.764   3.560
35426W        W36291   5.325  13.084   3.570
35427W        W36292   5.306  12.800   3.048
35428W        W36293   3.715  12.191   3.570
35429W        W36294   6.547  13.726   3.169
35430W        W36295   4.128  11.308   1.167
35431W        W36296   4.655  13.566   2.166
35432W        W36297   7.118  13.349   1.456
35433W        W36298   6.531  11.749   2.023
35434W        W36299   6.816  11.702   0.118
35435W        W36300   7.281  12.503   2.424
35436W        W36301   5.248  14.210   2.177
35437W        W36302   7.022  13.676   0.615
35438W        W36303   4.151  14.462   0.369
35439W        W36304   4.544  14.508   1.045
35440W        W36305   4.341  11.262   2.471
35441W        W36306   6.964  12.280   2.746
35442W        W36307   6.369  12.702   1.205
35443W        W36308   6.335  12.390   0.232
35444W        W36309   5.543  13.534   2.372
35445W        W36310   5.349  11.864   1.571
35446W        W36311   5.949  13.951   2.565
35447W        W36312   6.820  12.742   0.987
35448W        W36313   5.722  11.400   1.003
35449W        W36314   4.379  14.094   0.686
35450W        W36315   3.750  11.593   1.285
35451W        W36316   6.536  12.200   1.759
35452W        W36317   3.994  13.817   1.674
35453W        W36318   5.335  14.167   0.544
35454W        W36319   6.727  12.193   0.008
35455W        W36320   3.750  13.951   2.172
35456W        W36321   4.541  13.523   2.652
35457W        W36322   4.914  12.883   1.271
35458W        W36323   4.936  11.288   2.364
35459W        W36324   7.165  11.050   1.661
35460W        W36325   4.384  12.922   0.129
35461W        W36326   4.039  11.955   0.308
35462W        W36327   4.101  13.911   1.102
35463W        W36328   5.232  13.394   1.350
35464W        W36329   6.564  14.253   3.064
35465W        W36330   5.490  11.895   0.748
35466W        W36331   6.873  14.293   1.520
35467W        W36332   6.550  12.146   3.118
35468W        W36333   7.263  13.802   1.252
35469W        W36334   5.890  13.094   2.736
35470W        W36335   3.656  12.645   0.942
35471W        W36336   4.767  13.060   2.515
35472W        W36337   5.971  12.324   0.893
35473W        W36338   5.848  12.814   0.997
35474W        W36339   4.191  12.234   2.471
35475W        W36340   4.176  12.110   3.393
35476W        W36341   4.066  11.027   1.552
35477W        W36342   5.834  11.374   2.113
35478W        W36343   5.482  11.559   3.276
35479W        W36344   5.837  11.708   0.454
35480W        W36345   7.020  14.101   3.208
35481W        W36346   5.987  11.182   3.247
35482W        W36347   7.006  13.483   3.369
35483W        W36348   6.436  11.650   2.965
35484W        W36349   6.236  11.588   1.235
35485W        W36350   6.629  12.722   3.639
35486W        W36351   4.369  14.298   1.625
35487W        W36352   5.027  12.015   0.611
35488W        W36353   4.596  11.299   3.275
35489W        W36354   6.648  11.783   0.956
35490W        W36355   7.015  12.265   0.901
35491W        W36356   4.758  14.482   3.372
35492W        W36357   4.684  11.018   0.607
35493W        W36358   7.005  11.552   1.642
35494W        W36359   7.155  13.801   0.087
35495W        W36360   4.062  13.004   1.789
35496W        W36361   5.979  11.591   0.019
35497W        W36362   7.113  13.923   1.739
35498W        W36363   7.152  11.117   2.489
35499W        W36364   5.597  12.329   3.043
35500W        W36365   5.690  13.668   0.746
35501W        W36366   6.090  12.962   3.486
35502W        W36367   5.764  10.939   1.795
35503W        W36368   4.376  11.842   1.858
35504W        W36369   3.930  13.042   2.632
35505W        W36370   5.789  14.235   1.338
35506W        W36371   6.983  11.832   2.210
35507W        W36372   5.620  14.179   2.977
35508W        W36373   6.963  13.238   0.182
35509W        W36374   5.398  12.721   1.243
35510W        W36375   7.250  11.232   2.984
35511W        W36376   5.399  13.067   2.578
35512W        W36377   5.616  11.953   2.023
35513W        W36378   6.468  12.251   0.861
35514W        W36379   6.755  11.984   0.503
35515W        W36380   6.564  14.024   0.892
35516W        W36381   6.398  13.627   1.688
35517W        W36382   6.294  12.706   0.666
35518W        W36383   5.727  12.916   1.652
35519W        W36384   6.608  12.704   1.719
35520W        W36385   3.983  11.719   2.143
35521W        W36386   6.761  12.771   2.970
35522W        W36387   7.112  14.389   2.116
35523W        W36388   5.042  13.833   1.518
35524W        W36389   6.049  14.366   2.842
35525W        W36390   6.043  11.696   2.606
35526W        W36391   5.250  14.404   2.667
35527W        W36392   6.947  11.358   1.133
35528W        W36393   6.738  12.677   2.434
35529W        W36394   3.721  11.998   2.472
35530W        W36395   6.581  11.793   1.490
35531W        W36396   6.992  11.944   3.267
35532W        W36397   5.877  13.643   1.485
35533W        W36398   5.133  14.234   1.098
35534W        W36399   4.248  11.414   0.356
35535W        W36400   5.352  11.068   2.166
35536W        W36401   4.380  14.188   0.014
35537W        W36402   4.754  12.654   0.765
35538W        W36403   5.408  13.283   3.078
35539W        W36404   5.238  11.641   1.068
35540W        W36405   6.594  11.238   1.496
35541W        W36406   6.314  14.520   1.824
35542W        W36407   5.726  14.168   2.164
35543W        W36408   5.122  13.205   2.125
35544W        W36409   6.892  13.928   2.251
35545W        W36410   4.586  11.431   1.020
35546W        W36411   5.108  13.728   1.980
35547W        W36412   4.591  11.659   0.045
35548W        W36413   5.392  12.268   2.439
35549W        W36414   6.240  11.134   2.309
35550W        W36415   3.660  12.977   2.194
35551W        W36416   5.364  12.795   0.352
35552W        W36417   4.632  11.110   0.122
35553W        W36418   5.370  12.191   1.173
35554W        W36419   6.340  11.167   2.872
35555W        W36420   4.928  13.179   2.981
35556W        W36421   5.732  12.961   3.198
35557W        W36422   6.349  12.991   3.091
35558W        W36423   5.633  11.131   3.596
35559W        W36424   4.855  11.747   1.989
35560W        W36425   4.281  11.703   1.387
35561W        W36426   4.067  14.415   1.063
35562W        W36427   5.399  13.745   3.188
35563W        W36428   4.434  13.230   0.547
35564W        W36429   6.114  12.615   1.768
35565W        W36430   6.394  12.414   2.167
35566W        W36431   5.599  13.088   2.101
35567W        W36432   6.069  13.462   0.233
35568W        W36433   5.741  11.483   1.561
35569W        W36434   7.220  11.761   0.829
35570W        W36435   3.714  14.350   2.860
35571W        W36436   4.131  13.576   2.392
35572W        W36437   3.698  14.422   0.624
35573W        W36438   5.597  11.692   2.430
35574W        W36439   4.960  13.715   0.279
35575W        W36440   6.865  14.097   0.465
35576W        W36441   5.840  12.750   0.479
35577W        W36442   4.683  11.941   0.996
35578W        W36443   5.515  11.851   0.048
35579W        W36444   6.099  13.416   3.226
35580W        W36445   6.452  11.322   0.843
35581W        W36446   3.782  11.170   0.291
35582W        W36447   5.068  13.489   2.581
35583W        W36448   4.867  13.405   1.673
35584W        W36449   4.609  13.357   0.071
35585W        W36450   3.850  13.598   0.839
35586W        W36451   4.354  12.668   3.281
35587W        W36452   5.058  11.228   3.467
35588W        W36453   5.767  11.370   2.823
35589W        W36454   4.962  11.138   1.104
35590W        W36455   6.021  11.215   0.609
35591W        W36456   3.966  11.147   2.186
35592W        W36457   4.014  12.110   1.556
35593W        W36458   6.703  11.218   1.962
35594W        W36459   4.125  11.716   0.776
35595W        W36460   6.696  11.404   2.392
35596W        W36461   7.092  12.607   0.077
35597W        W36462   4.384  11.365   1.896
35598W        W36463   5.498  11.937   2.836
35599W        W36464   3.646  11.627   0.314
35600W        W36465   4.432  13.016   2.875
35601W        W36466   5.790  12.414   2.054
35602W        W36467   5.657  14.493   0.350
35603W        W36468   3.803  13.000   0.047
35604W        W36469   4.538  13.411   3.173
35605W        W36470   4.059  12.578   2.804
35606W        W36471   5.050  12.683   2.598
35607W        W36472   6.818  11.042   2.860
35608W        W36473   7.216  12.652   2.851
35609W        W36474   7.204  12.852   0.537
35610W        W36475   6.067  13.184   0.636
35611W        W36476   6.541  14.484   0.331
35612W        W36477   5.718  12.474   3.473
35613W        W36478   4.048  13.441   3.513
35614W        W36479   7.254  11.363   3.465
35615W        W36480   6.972  12.291   2.086
35616W        W36481   5.280  14.421   3.563
35617W        W36482   5.135  11.050   0.290
35618W        W36483   6.674  13.649   0.233
35619W        W36484   4.443  11.742   3.119
35620W        W36485   4.877  13.736   2.981
35621W        W36486   7.003  11.727   2.779
35622W        W36487   6.214  14.386   0.747
35623W        W36488   6.453  13.005   2.114
35624W        W36489   4.703  11.421   2.781
35625W        W36490   5.172  12.490   3.538
35626W        W36491   4.675  13.669   0.732
35627W        W36492   6.430  13.167   0.996
35628W        W36493   4.198  11.793   2.720
35629W        W36494   5.527  13.855   1.184
35630W        W36495   7.277  12.415   1.365
35631W        W36496   5.499  11.048   3.084
35632W        W36497   6.279  13.753   2.163
35633W        W36498   6.582  14.097   1.871
35634W        W36499   5.801  13.899   0.299
35635W        W36500   3.811  13.791   3.141
35636W        W36501   4.554  11.783   2.379
35637W        W36502   4.524  11.131   1.489
35638W        W36503   6.145  11.973   2.181
35639W        W36504   4.943  13.144   0.381
35640W        W36505   6.941  13.086   1.880
35641W        W36506   4.268  13.844   3.303
35642W        W36507   6.655  14.526   1.100
35643W        W36508   4.754  11.546   1.545
35644W        W36509   4.523  13.039   1.635
35645W        W36510   4.836  14.450   2.385
35646W        W36511   6.903  14.546   3.417
35647W        W36512   6.062  12.734   2.350
35648W        W36513   3.911  12.532   0.265
35649W        W36514   7.045  14.190   0.962
35650W        W36515   6.882  11.514   0.581
35651W        W36516   5.021  11.033   2.984
35652W        W36517   6.727  13.835   1.442
35653W        W36518   6.756  12.391   1.347
35654W        W36519   4.873  12.064   1.563
35655W        W36520   5.118  12.326   2.887
35656W        W36521   6.229  13.479   2.750
35657W        W36522   4.879  11.933   2.862
35658W        W36523   4.858  14.399   1.478
35659W        W36524   4.175  14.358   3.112
35660W        W36525   4.287  13.719   0.242
35661W        W36526   6.804  13.477   1.052
35662W        W36527   4.408  12.269   2.938
35663W        W36528   7.181  12.199   0.419
35664W        W36529   4.926  13.256   0.890
35665W        W36530   6.025  12.638   2.971
35666W        W36531   5.916  12.266   2.515
35667W        W36532   4.476  12.638   2.544
35668W        W36533   6.686  14.526   2.373
35669W        W36534   6.477  11.160   3.367
35670W        W36535   4.141  11.310   2.954
35671W        W36536   4.480  12.333   2.007
35672W        W36537   4.849  12.147   0.129
35673W        W36538   3.652  13.906   2.674
35674W        W36539   5.237  12.615   2.117
35675W        W36540   5.060  11.640   0.222
35676W        W36541   4.195  12.456   1.003
35677W        W36542   3.966  14.308   2.440
35678W        W36543   6.761  12.534   0.548
35679W        W36544   6.856  11.450   3.234
35680W        W36545   6.292  13.659   1.197
35681W        W36546   3.890  12.583   3.374
35682W        W36547   6.856  11.047   0.670
35683W        W36548   6.376  13.522   0.681
35684W        W36549   5.278  12.580   0.766
35685W        W36550   6.465  11.384   0.289
35686W        W36551   6.530  11.991   2.475
35687W        W36552   4.239  12.584   1.682
35688W        W36553   4.533  13.523   1.331
35689W        W36554   6.296  12.143   1.296
35690W        W36555   5.319  11.522   1.992
35691W        W36556   7.281  13.433   2.503
35692W        W36557   7.199  11.420   2.064
35693W        W36558   3.738  14.250   1.440
35694W        W36559   4.247  13.437   0.976
35695W        W36560   4.162  11.054   3.529
35696W        W36561   5.281  13.907   3.631
35697W        W36562   7.036  12.875   1.421
35698W        W36563   6.390  13.052   0.301
35699W        W36564   5.685  14.573   2.513
35700W        W36565   6.542  13.295   3.550
35701W        W36566   5.357  11.005   0.830
35702W        W36567   6.070  11.874   1.689
35703W        W36568   3.756  13.461   2.021
35704W        W36569   5.009  11.423   0.662
35705W        W36570   4.813  12.907   3.511
35706W        W36571   5.807  11.888   1.225
35707W        W36572   6.012  13.298   2.347
35708W        W36573   4.166  13.903   2.782
35709W        W36574   4.757  13.886   3.505
35710W        W36575   4.608  11.683   0.519
35711W        W36576   6.125  11.825   0.844
35712W        W36577   6.083  13.933   3.081
35713W        W36578   4.768  12.525   1.680
35714W        W36579   4.423  14.223   2.545
35715W        W36580   7.168  14.340   0.146
35716W        W36581   4.031  13.012   3.142
35717W        W36582   6.026  13.274   1.830
35718W        W36583   4.462  12.923   1.072
35719W        W36584   4.833  13.930   2.467
35720W        W36585   5.211  11.349   1.508
35721W        W36586   3.822  13.333   0.438
35722W        W36587   5.341  12.284   0.308
35723W        W36588   3.987  12.833   1.327
35724W        W36589   5.277  11.475   2.791
35725W        W36590   6.949  11.184   0.218
35726W        W36591   7.042  12.930   3.317
35727W        W36592   5.696  14.187   3.469
35728W        W36593   7.254  13.281   2.991
35729W        W36594   6.662  14.079   3.602
35730W        W36595   4.401  14.535   2.080
35731W        W36596   7.260  13.157   0.954
35732W        W36597   5.790  12.424   1.467
35733W        W36598   5.557  11.036   1.357
35734W        W36599   4.616  14.020   1.194
35735W        W36600   5.115  11.761   2.419
35736W        W36601   4.815  11.130   1.888
35737W        W36602   3.878  13.952   0.436
35738W        W36603   5.694  13.316   1.154
35739W        W36604   4.569  14.111   3.033
35740W        W36605   4.046  12.934   0.729
35741W        W36606   3.931  11.477   1.728
35742W        W36607   5.479  13.442   1.785
35743W        W36608   3.731  11.296   0.805
35744W        W36609   6.395  12.502   2.732
35745W        W36610   6.272  11.888   0.304
35746W        W36611   6.789  13.560   1.952
35747W        W36612   5.450  14.044   1.783
35748W        W36613   4.862  14.148   0.694
35749W        W36614   6.144  11.051   0.124
35750W        W36615   3.944  14.311   1.865
35751W        W36616   6.141  12.069   3.500
35752W        W36617   4.124  11.599   3.499
35753W        W36618   3.855  12.199   0.832
35754W        W36619   4.546  12.188   0.557
35755W        W36620   6.309  12.515   3.374
35756W        W36621   4.652  12.796   2.083
35757W        W36622   6.126  11.082   1.203
35758W        W36623   5.257  14.513   1.706
35759W        W36624   6.471  13.975   2.643
35760W        W36625   6.055  14.124   1.754
35761W        W36626   6.074  13.104   1.348
35762W        W36627   5.536  11.329   0.419
35763W        W36628   7.217  10.957   1.141
35764W        W36629   4.905  12.592   0.304
35765W        W36630   7.071  11.929   1.294
35766W        W36631   5.763  13.099   0.171
35767W        W36632   6.699  13.299   2.919
35768W        W36633   6.353  14.000   0.386
35769W        W36634   4.968  11.675   3.292
35770W        W36635   4.788  12.259   2.533
35771W        W36636   6.880  13.754   2.810
35772W        W36637   5.980  11.704   3.187
35773W        W36638   3.824  12.175   2.964
35774W        W36639   5.584  12.652   2.690
35775W        W36640   3.941  13.410   1.347
35776W        W36641   4.088  12.707   2.237
35777W        W36642   6.405  12.993   2.587
35778W        W36643   6.177  14.373   3.398
35779W        W36644   6.073  12.112   2.951
35780W        W36645   6.350  14.166   1.356
35781W        W36646   5.352  13.886   2.679
35782W        W36647   4.837  14.241   1.948
35783W        W36648   6.642  13.412   2.367
35784W        W36649   5.692  13.484   3.504
35785W        W36650   4.297  13.437   1.843
35786W        W36651   6.643  13.196   1.488
35787W        W36652   6.284  14.262   2.239
35788W        W36653   4.262  13.991   2.109
35789W        W36654   5.283  12.043   3.319
35790W        W36655   5.734  14.209   0.830
35791W        W36656   5.042  13.464   3.468
35792W        W36657   5.168  13.702   0.845
35793W        W36658   4.389  12.442   0.104
35794W        W36659   3.728  14.528   7.003
35795W        W36660   4.104  13.421   6.526
35796W        W36661   6.809  13.151   4.296
35797W        W36662   6.939  14.236   6.323
35798W        W36663   4.857  14.227   3.849
35799W        W36664   4.940  12.379   4.832
35800W        W36665   4.455  12.227   4.996
35801W        W36666   5.446  13.042   4.430
35802W        W36667   5.121  14.134   6.785
35803W        W36668   3.770  11.695   6.748
35804W        W36669   4.532  10.975   6.550
35805W        W36670   6.226  11.363   5.437
35806W        W36671   5.875  12.234   4.007
35807W        W36672   6.445  11.668   7.098
35808W        W36673   3.811  11.460   6.223
35809W        W36674   3.910  14.079   7.244
35810W        W36675   5.432  13.469   3.976
35811W        W36676   3.864  12.252   5.669
35812W        W36677   4.757  12.143   6.906
35813W        W36678   7.216  12.002   5.405
35814W        W36679   6.980  13.045   6.264
35815W        W36680   5.288  12.378   5.291
35816W        W36681   5.834  13.717   5.660
35817W        W36682   4.334  13.151   5.892
35818W        W36683   3.693  12.679   5.463
35819W        W36684   4.729  12.651   6.655
35820W        W36685   7.000  12.434   6.909
35821W        W36686   4.616  13.878   5.354
35822W        W36687   5.737  13.567   6.488
35823W        W36688   4.957  12.207   5.713
35824W        W36689   5.249  12.991   5.356
35825W        W36690   6.246  13.764   7.204
35826W        W36691   5.325  13.084   7.214
35827W        W36692   5.306  12.800   6.692
35828W        W36693   3.715  12.191   7.214
35829W        W36694   6.547  13.726   6.813
35830W        W36695   4.128  11.308   4.811
35831W        W36696   4.655  13.566   5.810
35832W        W36697   7.118  13.349   5.100
35833W        W36698   6.531  11.749   5.667
35834W        W36699   6.816  11.702   3.762
35835W        W36700   7.281  12.503   6.068
35836W        W36701   5.248  14.210   5.821
35837W        W36702   7.022  13.676   4.259
35838W        W36703   4.151  14.462   4.013
35839W        W36704   4.544  14.508   4.689
35840W        W36705   4.341  11.262   6.115
35841W        W36706   6.964  12.280   6.390
35842W        W36707   6.369  12.702   4.849
35843W        W36708   6.335  12.390   3.876
35844W        W36709   5.543  13.534   6.016
35845W        W36710   5.349  11.864   5.215
35846W        W36711   5.949  13.951   6.209
35847W        W36712   6.820  12.742   4.631
35848W        W36713   5.722  11.400   4.647
35849W        W36714   4.379  14.094   4.330
35850W        W36715   3.750  11.593   4.929
35851W        W36716   6.536  12.200   5.403
35852W        W36717   3.994  13.817   5.318
35853W        W36718   5.335  14.167   4.188
35854W        W36719   6.727  12.193   3.652
35855W        W36720   3.750  13.951   5.816
35856W        W36721   4.541  13.523   6.296
35857W        W36722   4.914  12.883   4.915
35858W        W36723   4.936  11.288   6.008
35859W        W36724   7.165  11.050   5.305
35860W        W36725   4.384  12.922   3.773
35861W        W36726   4.039  11.955   3.952
35862W        W36727   4.101  13.911   4.746
35863W        W36728   5.232  13.394   4.994
35864W        W36729   6.564  14.253   6.708
35865W        W36730   5.490  11.895   4.392
35866W        W36731   6.873  14.293   5.164
35867W        W36732   6.550  12.146   6.762
35868W        W36733   7.263  13.802   4.896
35869W        W36734   5.890  13.094   6.380
35870W        W36735   3.656  12.645   4.586
35871W        W36736   4.767  13.060   6.159
35872W        W36737   5.971  12.324   4.537
35873W        W36738   5.848  12.814   4.641
35874W        W36739   4.191  12.234   6.115
35875W        W36740   4.176  12.110   7.037
35876W        W36741   4.066  11.027   5.196
35877W        W36742   5.834  11.374   5.757
35878W        W36743   5.482  11.559   6.920
35879W        W36744   5.837  11.708   4.098
35880W        W36745   7.020  14.101   6.852
35881W        W36746   5.987  11.182   6.891
35882W        W36747   7.006  13.483   7.013
35883W        W36748   6.436  11.650   6.609
35884W        W36749   6.236  11.588   4.879
35885W        W36750   6.629  12.722   7.283
35886W        W36751   4.369  14.298   5.269
35887W        W36752   5.027  12.015   4.255
35888W        W36753   4.596  11.299   6.919
35889W        W36754   6.648  11.783   4.600
35890W        W36755   7.015  12.265   4.545
35891W        W36756   4.758  14.482   7.016
35892W        W36757   4.684  11.018   4.251
35893W        W36758   7.005  11.552   5.286
35894W        W36759   7.155  13.801   3.731
35895W        W36760   4.062  13.004   5.433
35896W        W36761   5.979  11.591   3.663
35897W        W36762   7.113  13.923   5.383
35898W        W36763   7.152  11.117   6.133
35899W        W36764   5.597  12.329   6.687
35900W        W36765   5.690  13.668   4.390
35901W        W36766   6.090  12.962   7.130
35902W        W36767   5.764  10.939   5.439
35903W        W36768   4.376  11.842   5.502
35904W        W36769   3.930  13.042   6.276
35905W        W36770   5.789  14.235   4.982
35906W        W36771   6.983  11.832   5.854
35907W        W36772   5.620  14.179   6.621
35908W        W36773   6.963  13.238   3.826
35909W        W36774   5.398  12.721   4.887
35910W        W36775   7.250  11.232   6.628
35911W        W36776   5.399  13.067   6.222
35912W        W36777   5.616  11.953   5.667
35913W        W36778   6.468  12.251   4.505
35914W        W36779   6.755  11.984   4.147
35915W        W36780   6.564  14.024   4.536
35916W        W36781   6.398  13.627   5.332
35917W        W36782   6.294  12.706   4.310
35918W        W36783   5.727  12.916   5.296
35919W        W36784   6.608  12.704   5.363
35920W        W36785   3.983  11.719   5.787
35921W        W36786   6.761  12.771   6.614
35922W        W36787   7.112  14.389   5.760
35923W        W36788   5.042  13.833   5.162
35924W        W36789   6.049  14.366   6.486
35925W        W36790   6.043  11.696   6.250
35926W        W36791   5.250  14.404   6.311
35927W        W36792   6.947  11.358   4.777
35928W        W36793   6.738  12.677   6.078
35929W        W36794   3.721  11.998   6.116
35930W        W36795   6.581  11.793   5.134
35931W        W36796   6.992  11.944   6.911
35932W        W36797   5.877  13.643   5.129
35933W        W36798   5.133  14.234   4.742
35934W        W36799   4.248  11.414   4.000
35935W        W36800   5.352  11.068   5.810
35936W        W36801   4.380  14.188   3.658
35937W        W36802   4.754  12.654   4.409
35938W        W36803   5.408  13.283   6.722
35939W        W36804   5.238  11.641   4.712
35940W        W36805   6.594  11.238   5.140
35941W        W36806   6.314  14.520   5.468
35942W        W36807   5.726  14.168   5.808
35943W        W36808   5.122  13.205   5.769
35944W        W36809   6.892  13.928   5.895
35945W        W36810   4.586  11.431   4.664
35946W        W36811   5.108  13.728   5.624
35947W        W36812   4.591  11.659   3.689
35948W        W36813   5.392  12.268   6.083
35949W        W36814   6.240  11.134   5.953
35950W        W36815   3.660  12.977   5.838
35951W        W36816   5.364  12.795   3.996
35952W        W36817   4.632  11.110   3.766
35953W        W36818   5.370  12.191   4.817
35954W        W36819   6.340  11.167   6.516
35955W        W36820   4.928  13.179   6.625
35956W        W36821   5.732  12.961   6.842
35957W        W36822   6.349  12.991   6.735
35958W        W36823   5.633  11.131   7.240
35959W        W36824   4.855  11.747   5.633
35960W        W36825   4.281  11.703   5.031
35961W        W36826   4.067  14.415   4.707
35962W        W36827   5.399  13.745   6.832
35963W        W36828   4.434  13.230   4.191
35964W        W36829   6.114  12.615   5.412
35965W        W36830   6.394  12.414   5.811
35966W        W36831   5.599  13.088   5.745
35967W        W36832   6.069  13.462   3.877
35968W        W36833   5.741  11.483   5.205
35969W        W36834   7.220  11.761   4.473
35970W        W36835   3.714  14.350   6.504
35971W        W36836   4.131  13.576   6.036
35972W        W36837   3.698  14.422   4.268
35973W        W36838   5.597  11.692   6.074
35974W        W36839   4.960  13.715   3.923
35975W        W36840   6.865  14.097   4.109
35976W        W36841   5.840  12.750   4.123
35977W        W36842   4.683  11.941   4.640
35978W        W36843   5.515  11.851   3.692
35979W        W36844   6.099  13.416   6.870
35980W        W36845   6.452  11.322   4.487
35981W        W36846   3.782  11.170   3.935
35982W        W36847   5.068  13.489   6.225
35983W        W36848   4.867  13.405   5.317
35984W        W36849   4.609  13.357   3.715
35985W        W36850   3.850  13.598   4.483
35986W        W36851   4.354  12.668   6.925
35987W        W36852   5.058  11.228   7.111
35988W        W36853   5.767  11.370   6.467
35989W        W36854   4.962  11.138   4.748
35990W        W36855   6.021  11.215   4.253
35991W        W36856   3.966  11.147   5.830
35992W        W36857   4.014  12.110   5.200
35993W        W36858   6.703  11.218   5.606
35994W        W36859   4.125  11.716   4.420
35995W        W36860   6.696  11.404   6.036
35996W        W36861   7.092  12.607   3.721
35997W        W36862   4.384  11.365   5.540
35998W        W36863   5.498  11.937   6.480
35999W        W36864   3.646  11.627   3.958
36000W        W36865   4.432  13.016   6.519
36001W        W36866   5.790  12.414   5.698
36002W        W36867   5.657  14.493   3.994
36003W        W36868   3.803  13.000   3.691
36004W        W36869   4.538  13.411   6.817
36005W        W36870   4.059  12.578   6.448
36006W        W36871   5.050  12.683   6.242
36007W        W36872   6.818  11.042   6.504
36008W        W36873   7.216  12.652   6.495
36009W        W36874   7.204  12.852   4.181
36010W        W36875   6.541  14.484   3.975
36011W        W36876   5.718  12.474   7.117
36012W        W36877   4.048  13.441   7.157
36013W        W36878   7.254  11.363   7.109
36014W        W36879   6.972  12.291   5.730
36015W        W36880   5.280  14.421   7.207
36016W        W36881   5.135  11.050   3.934
36017W        W36882   6.674  13.649   3.877
36018W        W36883   4.443  11.742   6.763
36019W        W36884   4.877  13.736   6.625
36020W        W36885   7.003  11.727   6.423
36021W        W36886   6.214  14.386   4.391
36022W        W36887   6.453  13.005   5.758
36023W        W36888   4.703  11.421   6.425
36024W        W36889   5.172  12.490   7.182
36025W        W36890   4.675  13.669   4.376
36026W        W36891   6.430  13.167   4.640
36027W        W36892   4.198  11.793   6.364
36028W        W36893   5.527  13.855   4.828
36029W        W36894   7.277  12.415   5.009
36030W        W36895   5.499  11.048   6.728
36031W        W36896   6.279  13.753   5.807
36032W        W36897   6.582  14.097   5.515
36033W        W36898   5.801  13.899   3.943
36034W        W36899   3.811  13.791   6.785
36035W        W36900   4.554  11.783   6.023
36036W        W36901   4.524  11.131   5.133
36037W        W36902   6.145  11.973   5.825
36038W        W36903   4.943  13.144   4.025
36039W        W36904   6.941  13.086   5.524
36040W        W36905   4.268  13.844   6.947
36041W        W36906   6.655  14.526   4.744
36042W        W36907   4.754  11.546   5.189
36043W        W36908   4.523  13.039   5.279
36044W        W36909   4.836  14.450   6.029
36045W        W36910   6.903  14.546   7.061
36046W        W36911   6.062  12.734   5.994
36047W        W36912   3.911  12.532   3.909
36048W        W36913   7.045  14.190   4.606
36049W        W36914   6.882  11.514   4.225
36050W        W36915   5.021  11.033   6.628
36051W        W36916   6.727  13.835   5.086
36052W        W36917   6.756  12.391   4.991
36053W        W36918   4.873  12.064   5.207
36054W        W36919   5.118  12.326   6.531
36055W        W36920   6.229  13.479   6.394
36056W        W36921   4.879  11.933   6.506
36057W        W36922   4.858  14.399   5.122
36058W        W36923   4.175  14.358   6.756
36059W        W36924   4.287  13.719   3.886
36060W        W36925   6.804  13.477   4.696
36061W        W36926   4.408  12.269   6.582
36062W        W36927   7.181  12.199   4.063
36063W        W36928   4.926  13.256   4.534
36064W        W36929   6.025  12.638   6.615
36065W        W36930   5.916  12.266   6.159
36066W        W36931   4.476  12.638   6.188
36067W        W36932   6.686  14.526   6.017
36068W        W36933   6.477  11.160   7.011
36069W        W36934   4.141  11.310   6.598
36070W        W36935   4.480  12.333   5.651
36071W        W36936   4.849  12.147   3.773
36072W        W36937   3.652  13.906   6.318
36073W        W36938   5.237  12.615   5.761
36074W        W36939   5.060  11.640   3.866
36075W        W36940   4.195  12.456   4.647
36076W        W36941   3.966  14.308   6.084
36077W        W36942   6.761  12.534   4.192
36078W        W36943   6.856  11.450   6.878
36079W        W36944   6.292  13.659   4.841
36080W        W36945   3.890  12.583   7.018
36081W        W36946   6.856  11.047   4.314
36082W        W36947   6.376  13.522   4.325
36083W        W36948   5.278  12.580   4.410
36084W        W36949   6.465  11.384   3.933
36085W        W36950   6.530  11.991   6.119
36086W        W36951   4.239  12.584   5.326
36087W        W36952   4.533  13.523   4.975
36088W        W36953   6.296  12.143   4.940
36089W        W36954   5.319  11.522   5.636
36090W        W36955   7.281  13.433   6.147
36091W        W36956   7.199  11.420   5.708
36092W        W36957   3.738  14.250   5.084
36093W        W36958   4.247  13.437   4.620
36094W        W36959   4.162  11.054   7.173
36095W        W36960   5.281  13.907   7.275
36096W        W36961   7.036  12.875   5.065
36097W        W36962   6.390  13.052   3.945
36098W        W36963   5.685  14.573   6.157
36099W        W36964   6.542  13.295   7.194
36100W        W36965   5.357  11.005   4.474
36101W        W36966   6.070  11.874   5.333
36102W        W36967   3.756  13.461   5.665
36103W        W36968   5.009  11.423   4.306
36104W        W36969   4.813  12.907   7.155
36105W        W36970   5.807  11.888   4.869
36106W        W36971   6.012  13.298   5.991
36107W        W36972   4.166  13.903   6.426
36108W        W36973   4.757  13.886   7.149
36109W        W36974   4.608  11.683   4.163
36110W        W36975   6.125  11.825   4.488
36111W        W36976   6.083  13.933   6.725
36112W        W36977   4.768  12.525   5.324
36113W        W36978   4.423  14.223   6.189
36114W        W36979   7.168  14.340   3.790
36115W        W36980   4.031  13.012   6.786
36116W        W36981   6.026  13.274   5.474
36117W        W36982   4.462  12.923   4.716
36118W        W36983   4.833  13.930   6.111
36119W        W36984   5.211  11.349   5.152
36120W        W36985   3.822  13.333   4.082
36121W        W36986   5.341  12.284   3.952
36122W        W36987   3.987  12.833   4.971
36123W        W36988   5.277  11.475   6.435
36124W        W36989   6.949  11.184   3.862
36125W        W36990   7.042  12.930   6.961
36126W        W36991   5.696  14.187   7.113
36127W        W36992   7.254  13.281   6.635
36128W        W36993   6.662  14.079   7.246
36129W        W36994   4.401  14.535   5.724
36130W        W36995   7.260  13.157   4.598
36131W        W36996   5.790  12.424   5.111
36132W        W36997   5.557  11.036   5.001
36133W        W36998   4.616  14.020   4.838
36134W        W36999   5.115  11.761   6.063
36135W        W37000   4.815  11.130   5.532
36136W        W37001   3.878  13.952   4.080
36137W        W37002   5.694  13.316   4.798
36138W        W37003   4.569  14.111   6.677
36139W        W37004   4.046  12.934   4.373
36140W        W37005   3.931  11.477   5.372
36141W        W37006   5.479  13.442   5.429
36142W        W37007   3.731  11.296   4.449
36143W        W37008   6.395  12.502   6.376
36144W        W37009   6.272  11.888   3.948
36145W        W37010   6.789  13.560   5.596
36146W        W37011   5.450  14.044   5.427
36147W        W37012   4.862  14.148   4.338
36148W        W37013   6.144  11.051   3.768
36149W        W37014   3.944  14.311   5.509
36150W        W37015   6.141  12.069   7.144
36151W        W37016   4.124  11.599   7.143
36152W        W37017   3.855  12.199   4.476
36153W        W37018   4.546  12.188   4.201
36154W        W37019   6.309  12.515   7.018
36155W        W37020   4.652  12.796   5.727
36156W        W37021   6.126  11.082   4.847
36157W        W37022   5.257  14.513   5.350
36158W        W37023   6.471  13.975   6.287
36159W        W37024   6.055  14.124   5.398
36160W        W37025   6.074  13.104   4.992
36161W        W37026   5.536  11.329   4.063
36162W        W37027   7.217  10.957   4.785
36163W        W37028   4.905  12.592   3.948
36164W        W37029   7.071  11.929   4.938
36165W        W37030   5.763  13.099   3.815
36166W        W37031   6.699  13.299   6.563
36167W        W37032   6.353  14.000   4.030
36168W        W37033   4.968  11.675   6.936
36169W        W37034   4.788  12.259   6.177
36170W        W37035   6.880  13.754   6.454
36171W        W37036   5.980  11.704   6.831
36172W        W37037   3.824  12.175   6.608
36173W        W37038   5.584  12.652   6.334
36174W        W37039   3.941  13.410   4.991
36175W        W37040   4.088  12.707   5.881
36176W        W37041   6.405  12.993   6.231
36177W        W37042   6.177  14.373   7.042
36178W        W37043   6.073  12.112   6.595
36179W        W37044   6.350  14.166   5.000
36180W        W37045   5.352  13.886   6.323
36181W        W37046   4.837  14.241   5.592
36182W        W37047   6.642  13.412   6.011
36183W        W37048   5.692  13.484   7.148
36184W        W37049   4.297  13.437   5.487
36185W        W37050   6.643  13.196   5.132
36186W        W37051   6.284  14.262   5.883
36187W        W37052   4.262  13.991   5.753
36188W        W37053   5.283  12.043   6.963
36189W        W37054   5.734  14.209   4.474
36190W        W37055   5.042  13.464   7.112
36191W        W37056   5.168  13.702   4.489
36192W        W37057   4.389  12.442   3.748
36193W        W37058   3.728  14.528  10.648
36194W        W37059   4.104  13.421  10.171
36195W        W37060   6.809  13.151   7.941
36196W        W37061   6.939  14.236   9.968
36197W        W37062   4.857  14.227   7.494
36198W        W37063   4.940  12.379   8.477
36199W        W37064   4.455  12.227   8.641
36200W        W37065   5.446  13.042   8.075
36201W        W37066   5.121  14.134  10.430
36202W        W37067   3.770  11.695  10.393
36203W        W37068   4.532  10.975  10.195
36204W        W37069   6.226  11.363   9.082
36205W        W37070   5.875  12.234   7.652
36206W        W37071   6.445  11.668  10.743
36207W        W37072   3.811  11.460   9.868
36208W        W37073   3.910  14.079  10.889
36209W        W37074   5.432  13.469   7.621
36210W        W37075   3.864  12.252   9.314
36211W        W37076   4.757  12.143  10.551
36212W        W37077   7.216  12.002   9.050
36213W        W37078   6.980  13.045   9.909
36214W        W37079   5.288  12.378   8.936
36215W        W37080   5.834  13.717   9.305
36216W        W37081   4.334  13.151   9.537
36217W        W37082   3.693  12.679   9.108
36218W        W37083   4.729  12.651  10.300
36219W        W37084   7.000  12.434  10.554
36220W        W37085   4.616  13.878   8.999
36221W        W37086   5.737  13.567  10.133
36222W        W37087   4.957  12.207   9.358
36223W        W37088   5.249  12.991   9.001
36224W        W37089   6.246  13.764  10.849
36225W        W37090   5.325  13.084  10.859
36226W        W37091   5.306  12.800  10.337
36227W        W37092   3.715  12.191  10.859
36228W        W37093   6.547  13.726  10.458
36229W        W37094   4.128  11.308   8.456
36230W        W37095   4.655  13.566   9.455
36231W        W37096   7.118  13.349   8.745
36232W        W37097   6.531  11.749   9.312
36233W        W37098   6.816  11.702   7.407
36234W        W37099   7.281  12.503   9.713
36235W        W37100   5.248  14.210   9.466
36236W        W37101   7.022  13.676   7.904
36237W        W37102   4.151  14.462   7.658
36238W        W37103   4.544  14.508   8.334
36239W        W37104   4.341  11.262   9.760
36240W        W37105   6.964  12.280  10.035
36241W        W37106   6.369  12.702   8.494
36242W        W37107   6.335  12.390   7.521
36243W        W37108   5.543  13.534   9.661
36244W        W37109   5.349  11.864   8.860
36245W        W37110   5.949  13.951   9.854
36246W        W37111   6.820  12.742   8.276
36247W        W37112   5.722  11.400   8.292
36248W        W37113   4.379  14.094   7.975
36249W        W37114   3.750  11.593   8.574
36250W        W37115   6.536  12.200   9.048
36251W        W37116   3.994  13.817   8.963
36252W        W37117   5.335  14.167   7.833
36253W        W37118   6.727  12.193   7.297
36254W        W37119   3.750  13.951   9.461
36255W        W37120   4.541  13.523   9.941
36256W        W37121   4.914  12.883   8.560
36257W        W37122   4.936  11.288   9.653
36258W        W37123   7.165  11.050   8.950
36259W        W37124   4.384  12.922   7.418
36260W        W37125   4.039  11.955   7.597
36261W        W37126   4.101  13.911   8.391
36262W        W37127   5.232  13.394   8.639
36263W        W37128   6.564  14.253  10.353
36264W        W37129   5.490  11.895   8.037
36265W        W37130   6.873  14.293   8.809
36266W        W37131   6.550  12.146  10.407
36267W        W37132   7.263  13.802   8.541
36268W        W37133   5.890  13.094  10.025
36269W        W37134   3.656  12.645   8.231
36270W        W37135   4.767  13.060   9.804
36271W        W37136   5.971  12.324   8.182
36272W        W37137   5.848  12.814   8.286
36273W        W37138   4.191  12.234   9.760
36274W        W37139   4.176  12.110  10.682
36275W        W37140   4.066  11.027   8.841
36276W        W37141   5.834  11.374   9.402
36277W        W37142   5.482  11.559  10.565
36278W        W37143   5.837  11.708   7.743
36279W        W37144   7.020  14.101  10.497
36280W        W37145   5.987  11.182  10.536
36281W        W37146   7.006  13.483  10.658
36282W        W37147   6.436  11.650  10.254
36283W        W37148   6.236  11.588   8.524
36284W        W37149   6.629  12.722  10.928
36285W        W37150   4.369  14.298   8.914
36286W        W37151   5.027  12.015   7.900
36287W        W37152   4.596  11.299  10.564
36288W        W37153   6.648  11.783   8.245
36289W        W37154   7.015  12.265   8.190
36290W        W37155   4.758  14.482  10.661
36291W        W37156   4.684  11.018   7.896
36292W        W37157   7.005  11.552   8.931
36293W        W37158   7.155  13.801   7.376
36294W        W37159   4.062  13.004   9.078
36295W        W37160   5.979  11.591   7.308
36296W        W37161   7.113  13.923   9.028
36297W        W37162   7.152  11.117   9.778
36298W        W37163   5.597  12.329  10.332
36299W        W37164   5.690  13.668   8.035
36300W        W37165   6.090  12.962  10.775
36301W        W37166   5.764  10.939   9.084
36302W        W37167   4.376  11.842   9.147
36303W        W37168   3.930  13.042   9.921
36304W        W37169   5.789  14.235   8.627
36305W        W37170   6.983  11.832   9.499
36306W        W37171   5.620  14.179  10.266
36307W        W37172   6.963  13.238   7.471
36308W        W37173   5.398  12.721   8.532
36309W        W37174   7.250  11.232  10.273
36310W        W37175   5.399  13.067   9.867
36311W        W37176   5.616  11.953   9.312
36312W        W37177   6.468  12.251   8.150
36313W        W37178   6.755  11.984   7.792
36314W        W37179   6.564  14.024   8.181
36315W        W37180   6.398  13.627   8.977
36316W        W37181   6.294  12.706   7.955
36317W        W37182   5.727  12.916   8.941
36318W        W37183   6.608  12.704   9.008
36319W        W37184   3.983  11.719   9.432
36320W        W37185   6.761  12.771  10.259
36321W        W37186   7.112  14.389   9.405
36322W        W37187   5.042  13.833   8.807
36323W        W37188   6.049  14.366  10.131
36324W        W37189   6.043  11.696   9.895
36325W        W37190   5.250  14.404   9.956
36326W        W37191   6.947  11.358   8.422
36327W        W37192   6.738  12.677   9.723
36328W        W37193   3.721  11.998   9.761
36329W        W37194   6.581  11.793   8.779
36330W        W37195   6.992  11.944  10.556
36331W        W37196   5.877  13.643   8.774
36332W        W37197   5.133  14.234   8.387
36333W        W37198   4.248  11.414   7.645
36334W        W37199   5.352  11.068   9.455
36335W        W37200   4.380  14.188   7.303
36336W        W37201   4.754  12.654   8.054
36337W        W37202   5.408  13.283  10.367
36338W        W37203   5.238  11.641   8.357
36339W        W37204   6.594  11.238   8.785
36340W        W37205   6.314  14.520   9.113
36341W        W37206   5.726  14.168   9.453
36342W        W37207   5.122  13.205   9.414
36343W        W37208   6.892  13.928   9.540
36344W        W37209   4.586  11.431   8.309
36345W        W37210   5.108  13.728   9.269
36346W        W37211   4.591  11.659   7.334
36347W        W37212   5.392  12.268   9.728
36348W        W37213   6.240  11.134   9.598
36349W        W37214   3.660  12.977   9.483
36350W        W37215   5.364  12.795   7.641
36351W        W37216   4.632  11.110   7.411
36352W        W37217   5.370  12.191   8.462
36353W        W37218   6.340  11.167  10.161
36354W        W37219   4.928  13.179  10.270
36355W        W37220   5.732  12.961  10.487
36356W        W37221   6.349  12.991  10.380
36357W        W37222   5.633  11.131  10.885
36358W        W37223   4.855  11.747   9.278
36359W        W37224   4.281  11.703   8.676
36360W        W37225   4.067  14.415   8.352
36361W        W37226   5.399  13.745  10.477
36362W        W37227   4.434  13.230   7.836
36363W        W37228   6.114  12.615   9.057
36364W        W37229   6.394  12.414   9.456
36365W        W37230   5.599  13.088   9.390
36366W        W37231   6.069  13.462   7.522
36367W        W37232   5.741  11.483   8.850
36368W        W37233   7.220  11.761   8.118
36369W        W37234   3.714  14.350  10.149
36370W        W37235   4.131  13.576   9.681
36371W        W37236   3.698  14.422   7.913
36372W        W37237   4.960  13.715   7.568
36373W        W37238   6.865  14.097   7.754
36374W        W37239   5.840  12.750   7.768
36375W        W37240   4.683  11.941   8.285
36376W        W37241   5.515  11.851   7.337
36377W        W37242   6.099  13.416  10.515
36378W        W37243   6.452  11.322   8.132
36379W        W37244   3.782  11.170   7.580
36380W        W37245   5.068  13.489   9.870
36381W        W37246   4.867  13.405   8.962
36382W        W37247   4.609  13.357   7.360
36383W        W37248   3.850  13.598   8.128
36384W        W37249   4.354  12.668  10.570
36385W        W37250   5.058  11.228  10.756
36386W        W37251   5.767  11.370  10.112
36387W        W37252   4.962  11.138   8.393
36388W        W37253   6.021  11.215   7.898
36389W        W37254   3.966  11.147   9.475
36390W        W37255   4.014  12.110   8.845
36391W        W37256   6.703  11.218   9.251
36392W        W37257   4.125  11.716   8.065
36393W        W37258   6.696  11.404   9.681
36394W        W37259   7.092  12.607   7.366
36395W        W37260   4.384  11.365   9.185
36396W        W37261   5.498  11.937  10.125
36397W        W37262   3.646  11.627   7.603
36398W        W37263   4.432  13.016  10.164
36399W        W37264   5.790  12.414   9.343
36400W        W37265   5.657  14.493   7.639
36401W        W37266   3.803  13.000   7.336
36402W        W37267   4.538  13.411  10.462
36403W        W37268   4.059  12.578  10.093
36404W        W37269   5.050  12.683   9.887
36405W        W37270   6.818  11.042  10.149
36406W        W37271   7.216  12.652  10.140
36407W        W37272   7.204  12.852   7.826
36408W        W37273   6.067  13.184   7.925
36409W        W37274   6.541  14.484   7.620
36410W        W37275   5.718  12.474  10.762
36411W        W37276   4.048  13.441  10.802
36412W        W37277   7.254  11.363  10.754
36413W        W37278   6.972  12.291   9.375
36414W        W37279   5.280  14.421  10.852
36415W        W37280   5.135  11.050   7.579
36416W        W37281   6.674  13.649   7.522
36417W        W37282   4.443  11.742  10.408
36418W        W37283   4.877  13.736  10.270
36419W        W37284   7.003  11.727  10.068
36420W        W37285   6.214  14.386   8.036
36421W        W37286   6.453  13.005   9.403
36422W        W37287   4.703  11.421  10.070
36423W        W37288   5.172  12.490  10.827
36424W        W37289   4.675  13.669   8.021
36425W        W37290   6.430  13.167   8.285
36426W        W37291   4.198  11.793  10.009
36427W        W37292   5.527  13.855   8.473
36428W        W37293   7.277  12.415   8.654
36429W        W37294   5.499  11.048  10.373
36430W        W37295   6.279  13.753   9.452
36431W        W37296   6.582  14.097   9.160
36432W        W37297   5.801  13.899   7.588
36433W        W37298   3.811  13.791  10.430
36434W        W37299   4.554  11.783   9.668
36435W        W37300   4.524  11.131   8.778
36436W        W37301   6.145  11.973   9.470
36437W        W37302   4.943  13.144   7.670
36438W        W37303   6.941  13.086   9.169
36439W        W37304   4.268  13.844  10.592
36440W        W37305   6.655  14.526   8.389
36441W        W37306   4.754  11.546   8.834
36442W        W37307   4.523  13.039   8.924
36443W        W37308   4.836  14.450   9.674
36444W        W37309   6.903  14.546  10.706
36445W        W37310   6.062  12.734   9.639
36446W        W37311   3.911  12.532   7.554
36447W        W37312   7.045  14.190   8.251
36448W        W37313   6.882  11.514   7.870
36449W        W37314   5.021  11.033  10.273
36450W        W37315   6.727  13.835   8.731
36451W        W37316   6.756  12.391   8.636
36452W        W37317   4.873  12.064   8.852
36453W        W37318   5.118  12.326  10.176
36454W        W37319   6.229  13.479  10.039
36455W        W37320   4.879  11.933  10.151
36456W        W37321   4.858  14.399   8.767
36457W        W37322   4.175  14.358  10.401
36458W        W37323   4.287  13.719   7.531
36459W        W37324   6.804  13.477   8.341
36460W        W37325   4.408  12.269  10.227
36461W        W37326   7.181  12.199   7.708
36462W        W37327   4.926  13.256   8.179
36463W        W37328   6.025  12.638  10.260
36464W        W37329   5.916  12.266   9.804
36465W        W37330   4.476  12.638   9.833
36466W        W37331   6.686  14.526   9.662
36467W        W37332   6.477  11.160  10.656
36468W        W37333   4.141  11.310  10.243
36469W        W37334   4.480  12.333   9.296
36470W        W37335   4.849  12.147   7.418
36471W        W37336   3.652  13.906   9.963
36472W        W37337   5.237  12.615   9.406
36473W        W37338   5.060  11.640   7.511
36474W        W37339   4.195  12.456   8.292
36475W        W37340   3.966  14.308   9.729
36476W        W37341   6.761  12.534   7.837
36477W        W37342   6.856  11.450  10.523
36478W        W37343   6.292  13.659   8.486
36479W        W37344   3.890  12.583  10.663
36480W        W37345   6.856  11.047   7.959
36481W        W37346   6.376  13.522   7.970
36482W        W37347   5.278  12.580   8.055
36483W        W37348   6.465  11.384   7.578
36484W        W37349   6.530  11.991   9.764
36485W        W37350   4.239  12.584   8.971
36486W        W37351   4.533  13.523   8.620
36487W        W37352   6.296  12.143   8.585
36488W        W37353   5.319  11.522   9.281
36489W        W37354   7.281  13.433   9.792
36490W        W37355   7.199  11.420   9.353
36491W        W37356   3.738  14.250   8.729
36492W        W37357   4.247  13.437   8.265
36493W        W37358   4.162  11.054  10.818
36494W        W37359   5.281  13.907  10.920
36495W        W37360   7.036  12.875   8.710
36496W        W37361   6.390  13.052   7.590
36497W        W37362   5.685  14.573   9.802
36498W        W37363   6.542  13.295  10.839
36499W        W37364   5.357  11.005   8.119
36500W        W37365   6.070  11.874   8.978
36501W        W37366   3.756  13.461   9.310
36502W        W37367   5.009  11.423   7.951
36503W        W37368   4.813  12.907  10.800
36504W        W37369   5.807  11.888   8.514
36505W        W37370   6.012  13.298   9.636
36506W        W37371   4.166  13.903  10.071
36507W        W37372   4.757  13.886  10.794
36508W        W37373   4.608  11.683   7.808
36509W        W37374   6.125  11.825   8.133
36510W        W37375   6.083  13.933  10.370
36511W        W37376   4.768  12.525   8.969
36512W        W37377   4.423  14.223   9.834
36513W        W37378   7.168  14.340   7.435
36514W        W37379   4.031  13.012  10.431
36515W        W37380   6.026  13.274   9.119
36516W        W37381   4.462  12.923   8.361
36517W        W37382   4.833  13.930   9.756
36518W        W37383   5.211  11.349   8.797
36519W        W37384   3.822  13.333   7.727
36520W        W37385   5.341  12.284   7.597
36521W        W37386   3.987  12.833   8.616
36522W        W37387   5.277  11.475  10.080
36523W        W37388   6.949  11.184   7.507
36524W        W37389   7.042  12.930  10.606
36525W        W37390   5.696  14.187  10.758
36526W        W37391   7.254  13.281  10.280
36527W        W37392   6.662  14.079  10.891
36528W        W37393   4.401  14.535   9.369
36529W        W37394   7.260  13.157   8.243
36530W        W37395   5.790  12.424   8.756
36531W        W37396   5.557  11.036   8.646
36532W        W37397   4.616  14.020   8.483
36533W        W37398   5.115  11.761   9.708
36534W        W37399   4.815  11.130   9.177
36535W        W37400   3.878  13.952   7.725
36536W        W37401   5.694  13.316   8.443
36537W        W37402   4.569  14.111  10.322
36538W        W37403   4.046  12.934   8.018
36539W        W37404   3.931  11.477   9.017
36540W        W37405   5.479  13.442   9.074
36541W        W37406   3.731  11.296   8.094
36542W        W37407   6.395  12.502  10.021
36543W        W37408   6.272  11.888   7.593
36544W        W37409   6.789  13.560   9.241
36545W        W37410   5.450  14.044   9.072
36546W        W37411   4.862  14.148   7.983
36547W        W37412   6.144  11.051   7.413
36548W        W37413   3.944  14.311   9.154
36549W        W37414   6.141  12.069  10.789
36550W        W37415   4.124  11.599  10.788
36551W        W37416   3.855  12.199   8.121
36552W        W37417   4.546  12.188   7.846
36553W        W37418   6.309  12.515  10.663
36554W        W37419   4.652  12.796   9.372
36555W        W37420   6.126  11.082   8.492
36556W        W37421   5.257  14.513   8.995
36557W        W37422   6.471  13.975   9.932
36558W        W37423   6.055  14.124   9.043
36559W        W37424   6.074  13.104   8.637
36560W        W37425   5.536  11.329   7.708
36561W        W37426   7.217  10.957   8.430
36562W        W37427   4.905  12.592   7.593
36563W        W37428   7.071  11.929   8.583
36564W        W37429   5.763  13.099   7.460
36565W        W37430   6.699  13.299  10.208
36566W        W37431   6.353  14.000   7.675
36567W        W37432   4.968  11.675  10.581
36568W        W37433   4.788  12.259   9.822
36569W        W37434   6.880  13.754  10.099
36570W        W37435   5.980  11.704  10.476
36571W        W37436   3.824  12.175  10.253
36572W        W37437   5.584  12.652   9.979
36573W        W37438   3.941  13.410   8.636
36574W        W37439   4.088  12.707   9.526
36575W        W37440   6.405  12.993   9.876
36576W        W37441   6.177  14.373  10.687
36577W        W37442   6.073  12.112  10.240
36578W        W37443   6.350  14.166   8.645
36579W        W37444   5.352  13.886   9.968
36580W        W37445   4.837  14.241   9.237
36581W        W37446   6.642  13.412   9.656
36582W        W37447   5.692  13.484  10.793
36583W        W37448   4.297  13.437   9.132
36584W        W37449   6.643  13.196   8.777
36585W        W37450   6.284  14.262   9.528
36586W        W37451   4.262  13.991   9.398
36587W        W37452   5.283  12.043  10.608
36588W        W37453   5.734  14.209   8.119
36589W        W37454   5.042  13.464  10.757
36590W        W37455   5.168  13.702   8.134
36591W        W37456   4.389  12.442   7.393
36592W        W37457   3.728  14.528  14.292
36593W        W37458   4.104  13.421  13.815
36594W        W37459   6.809  13.151  11.585
36595W        W37460   6.939  14.236  13.612
36596W        W37461   4.857  14.227  11.138
36597W        W37462   4.940  12.379  12.121
36598W        W37463   4.455  12.227  12.285
36599W        W37464   5.446  13.042  11.719
36600W        W37465   5.121  14.134  14.074
36601W        W37466   3.770  11.695  14.037
36602W        W37467   4.532  10.975  13.839
36603W        W37468   6.226  11.363  12.726
36604W        W37469   5.875  12.234  11.296
36605W        W37470   6.445  11.668  14.387
36606W        W37471   3.811  11.460  13.512
36607W        W37472   3.910  14.079  14.533
36608W        W37473   5.432  13.469  11.265
36609W        W37474   3.864  12.252  12.958
36610W        W37475   4.757  12.143  14.195
36611W        W37476   7.216  12.002  12.694
36612W        W37477   6.980  13.045  13.553
36613W        W37478   5.288  12.378  12.580
36614W        W37479   5.834  13.717  12.949
36615W        W37480   4.334  13.151  13.181
36616W        W37481   3.693  12.679  12.752
36617W        W37482   4.729  12.651  13.944
36618W        W37483   7.000  12.434  14.198
36619W        W37484   4.616  13.878  12.643
36620W        W37485   5.737  13.567  13.777
36621W        W37486   4.957  12.207  13.002
36622W        W37487   5.249  12.991  12.645
36623W        W37488   6.246  13.764  14.493
36624W        W37489   5.325  13.084  14.503
36625W        W37490   5.306  12.800  13.981
36626W        W37491   3.715  12.191  14.503
36627W        W37492   6.547  13.726  14.102
36628W        W37493   4.128  11.308  12.100
36629W        W37494   4.655  13.566  13.099
36630W        W37495   7.118  13.349  12.389
36631W        W37496   6.531  11.749  12.956
36632W        W37497   6.816  11.702  11.051
36633W        W37498   7.281  12.503  13.357
36634W        W37499   5.248  14.210  13.110
36635W        W37500   7.022  13.676  11.548
36636W        W37501   4.151  14.462  11.302
36637W        W37502   4.544  14.508  11.978
36638W        W37503   4.341  11.262  13.404
36639W        W37504   6.964  12.280  13.679
36640W        W37505   6.369  12.702  12.138
36641W        W37506   6.335  12.390  11.165
36642W        W37507   5.543  13.534  13.305
36643W        W37508   5.349  11.864  12.504
36644W        W37509   5.949  13.951  13.498
36645W        W37510   6.820  12.742  11.920
36646W        W37511   5.722  11.400  11.936
36647W        W37512   4.379  14.094  11.619
36648W        W37513   3.750  11.593  12.218
36649W        W37514   6.536  12.200  12.692
36650W        W37515   3.994  13.817  12.607
36651W        W37516   5.335  14.167  11.477
36652W        W37517   6.727  12.193  10.941
36653W        W37518   3.750  13.951  13.105
36654W        W37519   4.541  13.523  13.585
36655W        W37520   4.914  12.883  12.204
36656W        W37521   4.936  11.288  13.297
36657W        W37522   7.165  11.050  12.594
36658W        W37523   4.384  12.922  11.062
36659W        W37524   4.039  11.955  11.241
36660W        W37525   4.101  13.911  12.035
36661W        W37526   5.232  13.394  12.283
36662W        W37527   6.564  14.253  13.997
36663W        W37528   5.490  11.895  11.681
36664W        W37529   6.873  14.293  12.453
36665W        W37530   6.550  12.146  14.051
36666W        W37531   7.263  13.802  12.185
36667W        W37532   5.890  13.094  13.669
36668W        W37533   3.656  12.645  11.875
36669W        W37534   4.767  13.060  13.448
36670W        W37535   5.971  12.324  11.826
36671W        W37536   5.848  12.814  11.930
36672W        W37537   4.191  12.234  13.404
36673W        W37538   4.176  12.110  14.326
36674W        W37539   4.066  11.027  12.485
36675W        W37540   5.834  11.374  13.046
36676W        W37541   5.482  11.559  14.209
36677W        W37542   5.837  11.708  11.387
36678W        W37543   7.020  14.101  14.141
36679W        W37544   5.987  11.182  14.180
36680W        W37545   7.006  13.483  14.302
36681W        W37546   6.436  11.650  13.898
36682W        W37547   6.236  11.588  12.168
36683W        W37548   6.629  12.722  14.572
36684W        W37549   4.369  14.298  12.558
36685W        W37550   5.027  12.015  11.544
36686W        W37551   4.596  11.299  14.208
36687W        W37552   6.648  11.783  11.889
36688W        W37553   7.015  12.265  11.834
36689W        W37554   4.758  14.482  14.305
36690W        W37555   4.684  11.018  11.540
36691W        W37556   7.005  11.552  12.575
36692W        W37557   7.155  13.801  11.020
36693W        W37558   4.062  13.004  12.722
36694W        W37559   5.979  11.591  10.952
36695W        W37560   7.113  13.923  12.672
36696W        W37561   7.152  11.117  13.422
36697W        W37562   5.597  12.329  13.976
36698W        W37563   5.690  13.668  11.679
36699W        W37564   6.090  12.962  14.419
36700W        W37565   5.764  10.939  12.728
36701W        W37566   4.376  11.842  12.791
36702W        W37567   3.930  13.042  13.565
36703W        W37568   5.789  14.235  12.271
36704W        W37569   6.983  11.832  13.143
36705W        W37570   5.620  14.179  13.910
36706W        W37571   6.963  13.238  11.115
36707W        W37572   5.398  12.721  12.176
36708W        W37573   7.250  11.232  13.917
36709W        W37574   5.399  13.067  13.511
36710W        W37575   5.616  11.953  12.956
36711W        W37576   6.468  12.251  11.794
36712W        W37577   6.755  11.984  11.436
36713W        W37578   6.564  14.024  11.825
36714W        W37579   6.398  13.627  12.621
36715W        W37580   6.294  12.706  11.599
36716W        W37581   5.727  12.916  12.585
36717W        W37582   6.608  12.704  12.652
36718W        W37583   3.983  11.719  13.076
36719W        W37584   6.761  12.771  13.903
36720W        W37585   7.112  14.389  13.049
36721W        W37586   5.042  13.833  12.451
36722W        W37587   6.049  14.366  13.775
36723W        W37588   6.043  11.696  13.539
36724W        W37589   5.250  14.404  13.600
36725W        W37590   6.947  11.358  12.066
36726W        W37591   6.738  12.677  13.367
36727W        W37592   3.721  11.998  13.405
36728W        W37593   6.581  11.793  12.423
36729W        W37594   6.992  11.944  14.200
36730W        W37595   5.877  13.643  12.418
36731W        W37596   5.133  14.234  12.031
36732W        W37597   4.248  11.414  11.289
36733W        W37598   5.352  11.068  13.099
36734W        W37599   4.380  14.188  10.947
36735W        W37600   4.754  12.654  11.698
36736W        W37601   5.408  13.283  14.011
36737W        W37602   5.238  11.641  12.001
36738W        W37603   6.594  11.238  12.429
36739W        W37604   6.314  14.520  12.757
36740W        W37605   5.726  14.168  13.097
36741W        W37606   5.122  13.205  13.058
36742W        W37607   6.892  13.928  13.184
36743W        W37608   4.586  11.431  11.953
36744W        W37609   5.108  13.728  12.913
36745W        W37610   4.591  11.659  10.978
36746W        W37611   5.392  12.268  13.372
36747W        W37612   6.240  11.134  13.242
36748W        W37613   3.660  12.977  13.127
36749W        W37614   5.364  12.795  11.285
36750W        W37615   4.632  11.110  11.055
36751W        W37616   5.370  12.191  12.106
36752W        W37617   6.340  11.167  13.805
36753W        W37618   4.928  13.179  13.914
36754W        W37619   5.732  12.961  14.131
36755W        W37620   6.349  12.991  14.024
36756W        W37621   5.633  11.131  14.529
36757W        W37622   4.855  11.747  12.922
36758W        W37623   4.281  11.703  12.320
36759W        W37624   4.067  14.415  11.996
36760W        W37625   5.399  13.745  14.121
36761W        W37626   4.434  13.230  11.480
36762W        W37627   6.114  12.615  12.701
36763W        W37628   6.394  12.414  13.100
36764W        W37629   5.599  13.088  13.034
36765W        W37630   6.069  13.462  11.166
36766W        W37631   5.741  11.483  12.494
36767W        W37632   7.220  11.761  11.762
36768W        W37633   3.714  14.350  13.793
36769W        W37634   4.131  13.576  13.325
36770W        W37635   3.698  14.422  11.557
36771W        W37636   5.597  11.692  13.363
36772W        W37637   4.960  13.715  11.212
36773W        W37638   6.865  14.097  11.398
36774W        W37639   5.840  12.750  11.412
36775W        W37640   4.683  11.941  11.929
36776W        W37641   5.515  11.851  10.981
36777W        W37642   6.099  13.416  14.159
36778W        W37643   6.452  11.322  11.776
36779W        W37644   3.782  11.170  11.224
36780W        W37645   5.068  13.489  13.514
36781W        W37646   4.867  13.405  12.606
36782W        W37647   4.609  13.357  11.004
36783W        W37648   3.850  13.598  11.772
36784W        W37649   4.354  12.668  14.214
36785W        W37650   5.058  11.228  14.400
36786W        W37651   5.767  11.370  13.756
36787W        W37652   4.962  11.138  12.037
36788W        W37653   6.021  11.215  11.542
36789W        W37654   3.966  11.147  13.119
36790W        W37655   4.014  12.110  12.489
36791W        W37656   6.703  11.218  12.895
36792W        W37657   4.125  11.716  11.709
36793W        W37658   6.696  11.404  13.325
36794W        W37659   7.092  12.607  11.010
36795W        W37660   4.384  11.365  12.829
36796W        W37661   5.498  11.937  13.769
36797W        W37662   3.646  11.627  11.247
36798W        W37663   4.432  13.016  13.808
36799W        W37664   5.790  12.414  12.987
36800W        W37665   5.657  14.493  11.283
36801W        W37666   3.803  13.000  10.980
36802W        W37667   4.538  13.411  14.106
36803W        W37668   4.059  12.578  13.737
36804W        W37669   5.050  12.683  13.531
36805W        W37670   6.818  11.042  13.793
36806W        W37671   7.216  12.652  13.784
36807W        W37672   7.204  12.852  11.470
36808W        W37673   6.067  13.184  11.569
36809W        W37674   6.541  14.484  11.264
36810W        W37675   5.718  12.474  14.406
36811W        W37676   4.048  13.441  14.446
36812W        W37677   7.254  11.363  14.398
36813W        W37678   6.972  12.291  13.019
36814W        W37679   5.280  14.421  14.496
36815W        W37680   5.135  11.050  11.223
36816W        W37681   6.674  13.649  11.166
36817W        W37682   4.443  11.742  14.052
36818W        W37683   4.877  13.736  13.914
36819W        W37684   7.003  11.727  13.712
36820W        W37685   6.214  14.386  11.680
36821W        W37686   6.453  13.005  13.047
36822W        W37687   4.703  11.421  13.714
36823W        W37688   5.172  12.490  14.471
36824W        W37689   4.675  13.669  11.665
36825W        W37690   6.430  13.167  11.929
36826W        W37691   4.198  11.793  13.653
36827W        W37692   5.527  13.855  12.117
36828W        W37693   7.277  12.415  12.298
36829W        W37694   5.499  11.048  14.017
36830W        W37695   6.279  13.753  13.096
36831W        W37696   6.582  14.097  12.804
36832W        W37697   5.801  13.899  11.232
36833W        W37698   3.811  13.791  14.074
36834W        W37699   4.554  11.783  13.312
36835W        W37700   4.524  11.131  12.422
36836W        W37701   6.145  11.973  13.114
36837W        W37702   4.943  13.144  11.314
36838W        W37703   6.941  13.086  12.813
36839W        W37704   4.268  13.844  14.236
36840W        W37705   6.655  14.526  12.033
36841W        W37706   4.754  11.546  12.478
36842W        W37707   4.523  13.039  12.568
36843W        W37708   4.836  14.450  13.318
36844W        W37709   6.903  14.546  14.350
36845W        W37710   6.062  12.734  13.283
36846W        W37711   3.911  12.532  11.198
36847W        W37712   7.045  14.190  11.895
36848W        W37713   6.882  11.514  11.514
36849W        W37714   5.021  11.033  13.917
36850W        W37715   6.727  13.835  12.375
36851W        W37716   6.756  12.391  12.280
36852W        W37717   4.873  12.064  12.496
36853W        W37718   5.118  12.326  13.820
36854W        W37719   6.229  13.479  13.683
36855W        W37720   4.879  11.933  13.795
36856W        W37721   4.858  14.399  12.411
36857W        W37722   4.175  14.358  14.045
36858W        W37723   4.287  13.719  11.175
36859W        W37724   6.804  13.477  11.985
36860W        W37725   4.408  12.269  13.871
36861W        W37726   7.181  12.199  11.352
36862W        W37727   4.926  13.256  11.823
36863W        W37728   6.025  12.638  13.904
36864W        W37729   5.916  12.266  13.448
36865W        W37730   4.476  12.638  13.477
36866W        W37731   6.686  14.526  13.306
36867W        W37732   6.477  11.160  14.300
36868W        W37733   4.141  11.310  13.887
36869W        W37734   4.480  12.333  12.940
36870W        W37735   4.849  12.147  11.062
36871W        W37736   3.652  13.906  13.607
36872W        W37737   5.237  12.615  13.050
36873W        W37738   5.060  11.640  11.155
36874W        W37739   4.195  12.456  11.936
36875W        W37740   3.966  14.308  13.373
36876W        W37741   6.761  12.534  11.481
36877W        W37742   6.856  11.450  14.167
36878W        W37743   6.292  13.659  12.130
36879W        W37744   3.890  12.583  14.307
36880W        W37745   6.856  11.047  11.603
36881W        W37746   6.376  13.522  11.614
36882W        W37747   5.278  12.580  11.699
36883W        W37748   6.465  11.384  11.222
36884W        W37749   6.530  11.991  13.408
36885W        W37750   4.239  12.584  12.615
36886W        W37751   4.533  13.523  12.264
36887W        W37752   6.296  12.143  12.229
36888W        W37753   5.319  11.522  12.925
36889W        W37754   7.281  13.433  13.436
36890W        W37755   7.199  11.420  12.997
36891W        W37756   3.738  14.250  12.373
36892W        W37757   4.247  13.437  11.909
36893W        W37758   4.162  11.054  14.462
36894W        W37759   5.281  13.907  14.564
36895W        W37760   7.036  12.875  12.354
36896W        W37761   6.390  13.052  11.234
36897W        W37762   5.685  14.573  13.446
36898W        W37763   6.542  13.295  14.483
36899W        W37764   5.357  11.005  11.763
36900W        W37765   6.070  11.874  12.622
36901W        W37766   3.756  13.461  12.954
36902W        W37767   5.009  11.423  11.595
36903W        W37768   4.813  12.907  14.444
36904W        W37769   5.807  11.888  12.158
36905W        W37770   6.012  13.298  13.280
36906W        W37771   4.166  13.903  13.715
36907W        W37772   4.757  13.886  14.438
36908W        W37773   4.608  11.683  11.452
36909W        W37774   6.125  11.825  11.777
36910W        W37775   6.083  13.933  14.014
36911W        W37776   4.768  12.525  12.613
36912W        W37777   4.423  14.223  13.478
36913W        W37778   7.168  14.340  11.079
36914W        W37779   4.031  13.012  14.075
36915W        W37780   6.026  13.274  12.763
36916W        W37781   4.462  12.923  12.005
36917W        W37782   4.833  13.930  13.400
36918W        W37783   5.211  11.349  12.441
36919W        W37784   3.822  13.333  11.371
36920W        W37785   5.341  12.284  11.241
36921W        W37786   3.987  12.833  12.260
36922W        W37787   5.277  11.475  13.724
36923W        W37788   6.949  11.184  11.151
36924W        W37789   7.042  12.930  14.250
36925W        W37790   5.696  14.187  14.402
36926W        W37791   7.254  13.281  13.924
36927W        W37792   6.662  14.079  14.535
36928W        W37793   4.401  14.535  13.013
36929W        W37794   7.260  13.157  11.887
36930W        W37795   5.790  12.424  12.400
36931W        W37796   5.557  11.036  12.290
36932W        W37797   4.616  14.020  12.127
36933W        W37798   5.115  11.761  13.352
36934W        W37799   4.815  11.130  12.821
36935W        W37800   3.878  13.952  11.369
36936W        W37801   5.694  13.316  12.087
36937W        W37802   4.569  14.111  13.966
36938W        W37803   4.046  12.934  11.662
36939W        W37804   3.931  11.477  12.661
36940W        W37805   5.479  13.442  12.718
36941W        W37806   3.731  11.296  11.738
36942W        W37807   6.395  12.502  13.665
36943W        W37808   6.272  11.888  11.237
36944W        W37809   6.789  13.560  12.885
36945W        W37810   5.450  14.044  12.716
36946W        W37811   4.862  14.148  11.627
36947W        W37812   6.144  11.051  11.057
36948W        W37813   3.944  14.311  12.798
36949W        W37814   6.141  12.069  14.433
36950W        W37815   4.124  11.599  14.432
36951W        W37816   3.855  12.199  11.765
36952W        W37817   4.546  12.188  11.490
36953W        W37818   6.309  12.515  14.307
36954W        W37819   4.652  12.796  13.016
36955W        W37820   6.126  11.082  12.136
36956W        W37821   5.257  14.513  12.639
36957W        W37822   6.471  13.975  13.576
36958W        W37823   6.055  14.124  12.687
36959W        W37824   6.074  13.104  12.281
36960W        W37825   5.536  11.329  11.352
36961W        W37826   7.217  10.957  12.074
36962W        W37827   4.905  12.592  11.237
36963W        W37828   7.071  11.929  12.227
36964W        W37829   5.763  13.099  11.104
36965W        W37830   6.699  13.299  13.852
36966W        W37831   6.353  14.000  11.319
36967W        W37832   4.968  11.675  14.225
36968W        W37833   4.788  12.259  13.466
36969W        W37834   6.880  13.754  13.743
36970W        W37835   5.980  11.704  14.120
36971W        W37836   3.824  12.175  13.897
36972W        W37837   5.584  12.652  13.623
36973W        W37838   3.941  13.410  12.280
36974W        W37839   4.088  12.707  13.170
36975W        W37840   6.405  12.993  13.520
36976W        W37841   6.177  14.373  14.331
36977W        W37842   6.073  12.112  13.884
36978W        W37843   6.350  14.166  12.289
36979W        W37844   5.352  13.886  13.612
36980W        W37845   4.837  14.241  12.881
36981W        W37846   6.642  13.412  13.300
36982W        W37847   5.692  13.484  14.437
36983W        W37848   4.297  13.437  12.776
36984W        W37849   6.643  13.196  12.421
36985W        W37850   6.284  14.262  13.172
36986W        W37851   4.262  13.991  13.042
36987W        W37852   5.283  12.043  14.252
36988W        W37853   5.734  14.209  11.763
36989W        W37854   5.042  13.464  14.401
36990W        W37855   5.168  13.702  11.778
36991W        W37856   4.389  12.442  11.037
36992W        W37857   3.728  14.528  17.936
36993W        W37858   4.104  13.421  17.459
36994W        W37859   6.809  13.151  15.229
36995W        W37860   6.939  14.236  17.256
36996W        W37861   4.857  14.227  14.782
36997W        W37862   4.940  12.379  15.765
36998W        W37863   4.455  12.227  15.929
36999W        W37864   5.446  13.042  15.363
37000W        W37865   5.121  14.134  17.718
37001W        W37866   3.770  11.695  17.681
37002W        W37867   4.532  10.975  17.483
37003W        W37868   6.226  11.363  16.370
37004W        W37869   5.875  12.234  14.940
37005W        W37870   6.445  11.668  18.031
37006W        W37871   3.811  11.460  17.156
37007W        W37872   3.910  14.079  18.177
37008W        W37873   5.432  13.469  14.909
37009W        W37874   3.864  12.252  16.602
37010W        W37875   4.757  12.143  17.839
37011W        W37876   7.216  12.002  16.338
37012W        W37877   6.980  13.045  17.197
37013W        W37878   5.288  12.378  16.224
37014W        W37879   5.834  13.717  16.593
37015W        W37880   4.334  13.151  16.825
37016W        W37881   3.693  12.679  16.396
37017W        W37882   4.729  12.651  17.588
37018W        W37883   7.000  12.434  17.842
37019W        W37884   4.616  13.878  16.287
37020W        W37885   5.737  13.567  17.421
37021W        W37886   4.957  12.207  16.646
37022W        W37887   5.249  12.991  16.289
37023W        W37888   6.246  13.764  18.137
37024W        W37889   5.325  13.084  18.147
37025W        W37890   5.306  12.800  17.625
37026W        W37891   3.715  12.191  18.147
37027W        W37892   6.547  13.726  17.746
37028W        W37893   4.128  11.308  15.744
37029W        W37894   4.655  13.566  16.743
37030W        W37895   7.118  13.349  16.033
37031W        W37896   6.531  11.749  16.600
37032W        W37897   6.816  11.702  14.695
37033W        W37898   7.281  12.503  17.001
37034W        W37899   5.248  14.210  16.754
37035W        W37900   7.022  13.676  15.192
37036W        W37901   4.151  14.462  14.946
37037W        W37902   4.544  14.508  15.622
37038W        W37903   4.341  11.262  17.048
37039W        W37904   6.964  12.280  17.323
37040W        W37905   6.369  12.702  15.782
37041W        W37906   6.335  12.390  14.809
37042W        W37907   5.543  13.534  16.949
37043W        W37908   5.349  11.864  16.148
37044W        W37909   5.949  13.951  17.142
37045W        W37910   6.820  12.742  15.564
37046W        W37911   5.722  11.400  15.580
37047W        W37912   4.379  14.094  15.263
37048W        W37913   3.750  11.593  15.862
37049W        W37914   6.536  12.200  16.336
37050W        W37915   3.994  13.817  16.251
37051W        W37916   5.335  14.167  15.121
37052W        W37917   6.727  12.193  14.585
37053W        W37918   3.750  13.951  16.749
37054W        W37919   4.541  13.523  17.229
37055W        W37920   4.914  12.883  15.848
37056W        W37921   4.936  11.288  16.941
37057W        W37922   7.165  11.050  16.238
37058W        W37923   4.384  12.922  14.706
37059W        W37924   4.039  11.955  14.885
37060W        W37925   4.101  13.911  15.679
37061W        W37926   5.232  13.394  15.927
37062W        W37927   6.564  14.253  17.641
37063W        W37928   5.490  11.895  15.325
37064W        W37929   6.873  14.293  16.097
37065W        W37930   6.550  12.146  17.695
37066W        W37931   7.263  13.802  15.829
37067W        W37932   5.890  13.094  17.313
37068W        W37933   3.656  12.645  15.519
37069W        W37934   4.767  13.060  17.092
37070W        W37935   5.971  12.324  15.470
37071W        W37936   5.848  12.814  15.574
37072W        W37937   4.191  12.234  17.048
37073W        W37938   4.176  12.110  17.970
37074W        W37939   4.066  11.027  16.129
37075W        W37940   5.834  11.374  16.690
37076W        W37941   5.482  11.559  17.853
37077W        W37942   5.837  11.708  15.031
37078W        W37943   7.020  14.101  17.785
37079W        W37944   5.987  11.182  17.824
37080W        W37945   7.006  13.483  17.946
37081W        W37946   6.436  11.650  17.542
37082W        W37947   6.236  11.588  15.812
37083W        W37948   6.629  12.722  18.216
37084W        W37949   4.369  14.298  16.202
37085W        W37950   5.027  12.015  15.188
37086W        W37951   4.596  11.299  17.852
37087W        W37952   6.648  11.783  15.533
37088W        W37953   7.015  12.265  15.478
37089W        W37954   4.758  14.482  17.949
37090W        W37955   4.684  11.018  15.184
37091W        W37956   7.005  11.552  16.219
37092W        W37957   7.155  13.801  14.664
37093W        W37958   4.062  13.004  16.366
37094W        W37959   5.979  11.591  14.596
37095W        W37960   7.113  13.923  16.316
37096W        W37961   7.152  11.117  17.066
37097W        W37962   5.597  12.329  17.620
37098W        W37963   5.690  13.668  15.323
37099W        W37964   6.090  12.962  18.063
37100W        W37965   5.764  10.939  16.372
37101W        W37966   4.376  11.842  16.435
37102W        W37967   3.930  13.042  17.209
37103W        W37968   5.789  14.235  15.915
37104W        W37969   6.983  11.832  16.787
37105W        W37970   5.620  14.179  17.554
37106W        W37971   6.963  13.238  14.759
37107W        W37972   5.398  12.721  15.820
37108W        W37973   7.250  11.232  17.561
37109W        W37974   5.399  13.067  17.155
37110W        W37975   5.616  11.953  16.600
37111W        W37976   6.468  12.251  15.438
37112W        W37977   6.755  11.984  15.080
37113W        W37978   6.564  14.024  15.469
37114W        W37979   6.398  13.627  16.265
37115W        W37980   6.294  12.706  15.243
37116W        W37981   5.727  12.916  16.229
37117W        W37982   6.608  12.704  16.296
37118W        W37983   3.983  11.719  16.720
37119W        W37984   6.761  12.771  17.547
37120W        W37985   7.112  14.389  16.693
37121W        W37986   5.042  13.833  16.095
37122W        W37987   6.049  14.366  17.419
37123W        W37988   6.043  11.696  17.183
37124W        W37989   5.250  14.404  17.244
37125W        W37990   6.947  11.358  15.710
37126W        W37991   6.738  12.677  17.011
37127W        W37992   3.721  11.998  17.049
37128W        W37993   6.581  11.793  16.067
37129W        W37994   6.992  11.944  17.844
37130W        W37995   5.877  13.643  16.062
37131W        W37996   5.133  14.234  15.675
37132W        W37997   4.248  11.414  14.933
37133W        W37998   5.352  11.068  16.743
37134W        W37999   4.380  14.188  14.591
37135W        W38000   4.754  12.654  15.342
37136W        W38001   5.408  13.283  17.655
37137W        W38002   5.238  11.641  15.645
37138W        W38003   6.594  11.238  16.073
37139W        W38004   6.314  14.520  16.401
37140W        W38005   5.726  14.168  16.741
37141W        W38006   5.122  13.205  16.702
37142W        W38007   6.892  13.928  16.828
37143W        W38008   4.586  11.431  15.597
37144W        W38009   5.108  13.728  16.557
37145W        W38010   4.591  11.659  14.622
37146W        W38011   5.392  12.268  17.016
37147W        W38012   6.240  11.134  16.886
37148W        W38013   3.660  12.977  16.771
37149W        W38014   5.364  12.795  14.929
37150W        W38015   4.632  11.110  14.699
37151W        W38016   5.370  12.191  15.750
37152W        W38017   6.340  11.167  17.449
37153W        W38018   4.928  13.179  17.558
37154W        W38019   5.732  12.961  17.775
37155W        W38020   6.349  12.991  17.668
37156W        W38021   5.633  11.131  18.173
37157W        W38022   4.855  11.747  16.566
37158W        W38023   4.281  11.703  15.964
37159W        W38024   4.067  14.415  15.640
37160W        W38025   5.399  13.745  17.765
37161W        W38026   4.434  13.230  15.124
37162W        W38027   6.114  12.615  16.345
37163W        W38028   6.394  12.414  16.744
37164W        W38029   5.599  13.088  16.678
37165W        W38030   6.069  13.462  14.810
37166W        W38031   5.741  11.483  16.138
37167W        W38032   7.220  11.761  15.406
37168W        W38033   3.714  14.350  17.437
37169W        W38034   4.131  13.576  16.969
37170W        W38035   3.698  14.422  15.201
37171W        W38036   5.597  11.692  17.007
37172W        W38037   4.960  13.715  14.856
37173W        W38038   6.865  14.097  15.042
37174W        W38039   5.840  12.750  15.056
37175W        W38040   4.683  11.941  15.573
37176W        W38041   5.515  11.851  14.625
37177W        W38042   6.099  13.416  17.803
37178W        W38043   6.452  11.322  15.420
37179W        W38044   3.782  11.170  14.868
37180W        W38045   5.068  13.489  17.158
37181W        W38046   4.867  13.405  16.250
37182W        W38047   4.609  13.357  14.648
37183W        W38048   3.850  13.598  15.416
37184W        W38049   4.354  12.668  17.858
37185W        W38050   5.058  11.228  18.044
37186W        W38051   5.767  11.370  17.400
37187W        W38052   4.962  11.138  15.681
37188W        W38053   6.021  11.215  15.186
37189W        W38054   3.966  11.147  16.763
37190W        W38055   4.014  12.110  16.133
37191W        W38056   6.703  11.218  16.539
37192W        W38057   4.125  11.716  15.353
37193W        W38058   6.696  11.404  16.969
37194W        W38059   7.092  12.607  14.654
37195W        W38060   4.384  11.365  16.473
37196W        W38061   5.498  11.937  17.413
37197W        W38062   3.646  11.627  14.891
37198W        W38063   4.432  13.016  17.452
37199W        W38064   5.790  12.414  16.631
37200W        W38065   5.657  14.493  14.927
37201W        W38066   3.803  13.000  14.624
37202W        W38067   4.538  13.411  17.750
37203W        W38068   4.059  12.578  17.381
37204W        W38069   5.050  12.683  17.175
37205W        W38070   6.818  11.042  17.437
37206W        W38071   7.216  12.652  17.428
37207W        W38072   7.204  12.852  15.114
37208W        W38073   6.067  13.184  15.213
37209W        W38074   6.541  14.484  14.908
37210W        W38075   5.718  12.474  18.050
37211W        W38076   4.048  13.441  18.090
37212W        W38077   7.254  11.363  18.042
37213W        W38078   6.972  12.291  16.663
37214W        W38079   5.280  14.421  18.140
37215W        W38080   5.135  11.050  14.867
37216W        W38081   6.674  13.649  14.810
37217W        W38082   4.443  11.742  17.696
37218W        W38083   4.877  13.736  17.558
37219W        W38084   7.003  11.727  17.356
37220W        W38085   6.214  14.386  15.324
37221W        W38086   6.453  13.005  16.691
37222W        W38087   4.703  11.421  17.358
37223W        W38088   5.172  12.490  18.115
37224W        W38089   4.675  13.669  15.309
37225W        W38090   6.430  13.167  15.573
37226W        W38091   4.198  11.793  17.297
37227W        W38092   5.527  13.855  15.761
37228W        W38093   7.277  12.415  15.942
37229W        W38094   5.499  11.048  17.661
37230W        W38095   6.279  13.753  16.740
37231W        W38096   6.582  14.097  16.448
37232W        W38097   5.801  13.899  14.876
37233W        W38098   3.811  13.791  17.718
37234W        W38099   4.554  11.783  16.956
37235W        W38100   4.524  11.131  16.066
37236W        W38101   6.145  11.973  16.758
37237W        W38102   4.943  13.144  14.958
37238W        W38103   6.941  13.086  16.457
37239W        W38104   4.268  13.844  17.880
37240W        W38105   6.655  14.526  15.677
37241W        W38106   4.754  11.546  16.122
37242W        W38107   4.523  13.039  16.212
37243W        W38108   4.836  14.450  16.962
37244W        W38109   6.903  14.546  17.994
37245W        W38110   6.062  12.734  16.927
37246W        W38111   3.911  12.532  14.842
37247W        W38112   7.045  14.190  15.539
37248W        W38113   6.882  11.514  15.158
37249W        W38114   5.021  11.033  17.561
37250W        W38115   6.727  13.835  16.019
37251W        W38116   6.756  12.391  15.924
37252W        W38117   4.873  12.064  16.140
37253W        W38118   5.118  12.326  17.464
37254W        W38119   6.229  13.479  17.327
37255W        W38120   4.879  11.933  17.439
37256W        W38121   4.858  14.399  16.055
37257W        W38122   4.175  14.358  17.689
37258W        W38123   4.287  13.719  14.819
37259W        W38124   6.804  13.477  15.629
37260W        W38125   4.408  12.269  17.515
37261W        W38126   7.181  12.199  14.996
37262W        W38127   4.926  13.256  15.467
37263W        W38128   6.025  12.638  17.548
37264W        W38129   5.916  12.266  17.092
37265W        W38130   4.476  12.638  17.121
37266W        W38131   6.686  14.526  16.950
37267W        W38132   6.477  11.160  17.944
37268W        W38133   4.141  11.310  17.531
37269W        W38134   4.480  12.333  16.584
37270W        W38135   4.849  12.147  14.706
37271W        W38136   3.652  13.906  17.251
37272W        W38137   5.237  12.615  16.694
37273W        W38138   5.060  11.640  14.799
37274W        W38139   4.195  12.456  15.580
37275W        W38140   3.966  14.308  17.017
37276W        W38141   6.761  12.534  15.125
37277W        W38142   6.856  11.450  17.811
37278W        W38143   6.292  13.659  15.774
37279W        W38144   3.890  12.583  17.951
37280W        W38145   6.856  11.047  15.247
37281W        W38146   6.376  13.522  15.258
37282W        W38147   5.278  12.580  15.343
37283W        W38148   6.465  11.384  14.866
37284W        W38149   6.530  11.991  17.052
37285W        W38150   4.239  12.584  16.259
37286W        W38151   4.533  13.523  15.908
37287W        W38152   6.296  12.143  15.873
37288W        W38153   5.319  11.522  16.569
37289W        W38154   7.281  13.433  17.080
37290W        W38155   7.199  11.420  16.641
37291W        W38156   3.738  14.250  16.017
37292W        W38157   4.247  13.437  15.553
37293W        W38158   4.162  11.054  18.106
37294W        W38159   5.281  13.907  18.208
37295W        W38160   7.036  12.875  15.998
37296W        W38161   6.390  13.052  14.878
37297W        W38162   5.685  14.573  17.090
37298W        W38163   6.542  13.295  18.127
37299W        W38164   5.357  11.005  15.407
37300W        W38165   6.070  11.874  16.266
37301W        W38166   3.756  13.461  16.598
37302W        W38167   5.009  11.423  15.239
37303W        W38168   4.813  12.907  18.088
37304W        W38169   5.807  11.888  15.802
37305W        W38170   6.012  13.298  16.924
37306W        W38171   4.166  13.903  17.359
37307W        W38172   4.757  13.886  18.082
37308W        W38173   4.608  11.683  15.096
37309W        W38174   6.125  11.825  15.421
37310W        W38175   6.083  13.933  17.658
37311W        W38176   4.768  12.525  16.257
37312W        W38177   4.423  14.223  17.122
37313W        W38178   7.168  14.340  14.723
37314W        W38179   4.031  13.012  17.719
37315W        W38180   6.026  13.274  16.407
37316W        W38181   4.462  12.923  15.649
37317W        W38182   4.833  13.930  17.044
37318W        W38183   5.211  11.349  16.085
37319W        W38184   3.822  13.333  15.015
37320W        W38185   5.341  12.284  14.885
37321W        W38186   3.987  12.833  15.904
37322W        W38187   5.277  11.475  17.368
37323W        W38188   6.949  11.184  14.795
37324W        W38189   7.042  12.930  17.894
37325W        W38190   5.696  14.187  18.046
37326W        W38191   7.254  13.281  17.568
37327W        W38192   6.662  14.079  18.179
37328W        W38193   4.401  14.535  16.657
37329W        W38194   7.260  13.157  15.531
37330W        W38195   5.790  12.424  16.044
37331W        W38196   5.557  11.036  15.934
37332W        W38197   4.616  14.020  15.771
37333W        W38198   5.115  11.761  16.996
37334W        W38199   4.815  11.130  16.465
37335W        W38200   3.878  13.952  15.013
37336W        W38201   5.694  13.316  15.731
37337W        W38202   4.569  14.111  17.610
37338W        W38203   4.046  12.934  15.306
37339W        W38204   3.931  11.477  16.305
37340W        W38205   5.479  13.442  16.362
37341W        W38206   3.731  11.296  15.382
37342W        W38207   6.395  12.502  17.309
37343W        W38208   6.272  11.888  14.881
37344W        W38209   6.789  13.560  16.529
37345W        W38210   5.450  14.044  16.360
37346W        W38211   4.862  14.148  15.271
37347W        W38212   6.144  11.051  14.701
37348W        W38213   3.944  14.311  16.442
37349W        W38214   6.141  12.069  18.077
37350W        W38215   4.124  11.599  18.076
37351W        W38216   3.855  12.199  15.409
37352W        W38217   4.546  12.188  15.134
37353W        W38218   6.309  12.515  17.951
37354W        W38219   4.652  12.796  16.660
37355W        W38220   6.126  11.082  15.780
37356W        W38221   5.257  14.513  16.283
37357W        W38222   6.471  13.975  17.220
37358W        W38223   6.055  14.124  16.331
37359W        W38224   6.074  13.104  15.925
37360W        W38225   5.536  11.329  14.996
37361W        W38226   7.217  10.957  15.718
37362W        W38227   4.905  12.592  14.881
37363W        W38228   7.071  11.929  15.871
37364W        W38229   5.763  13.099  14.748
37365W        W38230   6.699  13.299  17.496
37366W        W38231   6.353  14.000  14.963
37367W        W38232   4.968  11.675  17.869
37368W        W38233   4.788  12.259  17.110
37369W        W38234   6.880  13.754  17.387
37370W        W38235   5.980  11.704  17.764
37371W        W38236   3.824  12.175  17.541
37372W        W38237   5.584  12.652  17.267
37373W        W38238   3.941  13.410  15.924
37374W        W38239   4.088  12.707  16.814
37375W        W38240   6.405  12.993  17.164
37376W        W38241   6.177  14.373  17.975
37377W        W38242   6.073  12.112  17.528
37378W        W38243   6.350  14.166  15.933
37379W        W38244   5.352  13.886  17.256
37380W        W38245   4.837  14.241  16.525
37381W        W38246   6.642  13.412  16.944
37382W        W38247   5.692  13.484  18.081
37383W        W38248   4.297  13.437  16.420
37384W        W38249   6.643  13.196  16.065
37385W        W38250   6.284  14.262  16.816
37386W        W38251   4.262  13.991  16.686
37387W        W38252   5.283  12.043  17.896
37388W        W38253   5.734  14.209  15.407
37389W        W38254   5.042  13.464  18.045
37390W        W38255   5.168  13.702  15.422
37391W        W38256   4.389  12.442  14.681
37392W        W38257   3.728  14.528  21.580
37393W        W38258   4.104  13.421  21.103
37394W        W38259   6.809  13.151  18.873
37395W        W38260   6.939  14.236  20.900
37396W        W38261   4.857  14.227  18.426
37397W        W38262   4.940  12.379  19.409
37398W        W38263   4.455  12.227  19.573
37399W        W38264   5.446  13.042  19.007
37400W        W38265   5.121  14.134  21.362
37401W        W38266   3.770  11.695  21.325
37402W        W38267   4.532  10.975  21.127
37403W        W38268   6.226  11.363  20.014
37404W        W38269   5.875  12.234  18.584
37405W        W38270   6.445  11.668  21.675
37406W        W38271   3.811  11.460  20.800
37407W        W38272   3.910  14.079  21.821
37408W        W38273   5.432  13.469  18.553
37409W        W38274   3.864  12.252  20.246
37410W        W38275   4.757  12.143  21.483
37411W        W38276   7.216  12.002  19.982
37412W        W38277   6.980  13.045  20.841
37413W        W38278   5.288  12.378  19.868
37414W        W38279   5.834  13.717  20.237
37415W        W38280   4.334  13.151  20.469
37416W        W38281   3.693  12.679  20.040
37417W        W38282   4.729  12.651  21.232
37418W        W38283   7.000  12.434  21.486
37419W        W38284   4.616  13.878  19.931
37420W        W38285   5.737  13.567  21.065
37421W        W38286   4.957  12.207  20.290
37422W        W38287   5.249  12.991  19.933
37423W        W38288   6.246  13.764  21.781
37424W        W38289   5.325  13.084  21.791
37425W        W38290   5.306  12.800  21.269
37426W        W38291   3.715  12.191  21.791
37427W        W38292   6.547  13.726  21.390
37428W        W38293   4.128  11.308  19.388
37429W        W38294   4.655  13.566  20.387
37430W        W38295   7.118  13.349  19.677
37431W        W38296   6.531  11.749  20.244
37432W        W38297   6.816  11.702  18.339
37433W        W38298   7.281  12.503  20.645
37434W        W38299   5.248  14.210  20.398
37435W        W38300   7.022  13.676  18.836
37436W        W38301   4.151  14.462  18.590
37437W        W38302   4.544  14.508  19.266
37438W        W38303   4.341  11.262  20.692
37439W        W38304   6.964  12.280  20.967
37440W        W38305   6.369  12.702  19.426
37441W        W38306   6.335  12.390  18.453
37442W        W38307   5.543  13.534  20.593
37443W        W38308   5.349  11.864  19.792
37444W        W38309   5.949  13.951  20.786
37445W        W38310   6.820  12.742  19.208
37446W        W38311   5.722  11.400  19.224
37447W        W38312   4.379  14.094  18.907
37448W        W38313   3.750  11.593  19.506
37449W        W38314   6.536  12.200  19.980
37450W        W38315   3.994  13.817  19.895
37451W        W38316   5.335  14.167  18.765
37452W        W38317   6.727  12.193  18.229
37453W        W38318   3.750  13.951  20.393
37454W        W38319   4.541  13.523  20.873
37455W        W38320   4.914  12.883  19.492
37456W        W38321   4.936  11.288  20.585
37457W        W38322   7.165  11.050  19.882
37458W        W38323   4.384  12.922  18.350
37459W        W38324   4.039  11.955  18.529
37460W        W38325   4.101  13.911  19.323
37461W        W38326   5.232  13.394  19.571
37462W        W38327   6.564  14.253  21.285
37463W        W38328   5.490  11.895  18.969
37464W        W38329   6.873  14.293  19.741
37465W        W38330   6.550  12.146  21.339
37466W        W38331   7.263  13.802  19.473
37467W        W38332   5.890  13.094  20.957
37468W        W38333   3.656  12.645  19.163
37469W        W38334   4.767  13.060  20.736
37470W        W38335   5.971  12.324  19.114
37471W        W38336   5.848  12.814  19.218
37472W        W38337   4.191  12.234  20.692
37473W        W38338   4.176  12.110  21.614
37474W        W38339   4.066  11.027  19.773
37475W        W38340   5.834  11.374  20.334
37476W        W38341   5.482  11.559  21.497
37477W        W38342   5.837  11.708  18.675
37478W        W38343   7.020  14.101  21.429
37479W        W38344   5.987  11.182  21.468
37480W        W38345   7.006  13.483  21.590
37481W        W38346   6.436  11.650  21.186
37482W        W38347   6.236  11.588  19.456
37483W        W38348   6.629  12.722  21.860
37484W        W38349   4.369  14.298  19.846
37485W        W38350   5.027  12.015  18.832
37486W        W38351   4.596  11.299  21.496
37487W        W38352   6.648  11.783  19.177
37488W        W38353   7.015  12.265  19.122
37489W        W38354   4.758  14.482  21.593
37490W        W38355   4.684  11.018  18.828
37491W        W38356   7.005  11.552  19.863
37492W        W38357   7.155  13.801  18.308
37493W        W38358   4.062  13.004  20.010
37494W        W38359   5.979  11.591  18.240
37495W        W38360   7.113  13.923  19.960
37496W        W38361   7.152  11.117  20.710
37497W        W38362   5.597  12.329  21.264
37498W        W38363   5.690  13.668  18.967
37499W        W38364   6.090  12.962  21.707
37500W        W38365   5.764  10.939  20.016
37501W        W38366   4.376  11.842  20.079
37502W        W38367   3.930  13.042  20.853
37503W        W38368   5.789  14.235  19.559
37504W        W38369   6.983  11.832  20.431
37505W        W38370   5.620  14.179  21.198
37506W        W38371   6.963  13.238  18.403
37507W        W38372   5.398  12.721  19.464
37508W        W38373   7.250  11.232  21.205
37509W        W38374   5.399  13.067  20.799
37510W        W38375   5.616  11.953  20.244
37511W        W38376   6.468  12.251  19.082
37512W        W38377   6.755  11.984  18.724
37513W        W38378   6.564  14.024  19.113
37514W        W38379   6.398  13.627  19.909
37515W        W38380   6.294  12.706  18.887
37516W        W38381   5.727  12.916  19.873
37517W        W38382   6.608  12.704  19.940
37518W        W38383   3.983  11.719  20.364
37519W        W38384   6.761  12.771  21.191
37520W        W38385   7.112  14.389  20.337
37521W        W38386   5.042  13.833  19.739
37522W        W38387   6.049  14.366  21.063
37523W        W38388   6.043  11.696  20.827
37524W        W38389   5.250  14.404  20.888
37525W        W38390   6.947  11.358  19.354
37526W        W38391   6.738  12.677  20.655
37527W        W38392   3.721  11.998  20.693
37528W        W38393   6.581  11.793  19.711
37529W        W38394   6.992  11.944  21.488
37530W        W38395   5.877  13.643  19.706
37531W        W38396   5.133  14.234  19.319
37532W        W38397   4.248  11.414  18.577
37533W        W38398   5.352  11.068  20.387
37534W        W38399   4.380  14.188  18.235
37535W        W38400   4.754  12.654  18.986
37536W        W38401   5.408  13.283  21.299
37537W        W38402   5.238  11.641  19.289
37538W        W38403   6.594  11.238  19.717
37539W        W38404   6.314  14.520  20.045
37540W        W38405   5.726  14.168  20.385
37541W        W38406   5.122  13.205  20.346
37542W        W38407   6.892  13.928  20.472
37543W        W38408   4.586  11.431  19.241
37544W        W38409   5.108  13.728  20.201
37545W        W38410   4.591  11.659  18.266
37546W        W38411   5.392  12.268  20.660
37547W        W38412   6.240  11.134  20.530
37548W        W38413   3.660  12.977  20.415
37549W        W38414   5.364  12.795  18.573
37550W        W38415   4.632  11.110  18.343
37551W        W38416   5.370  12.191  19.394
37552W        W38417   6.340  11.167  21.093
37553W        W38418   4.928  13.179  21.202
37554W        W38419   5.732  12.961  21.419
37555W        W38420   6.349  12.991  21.312
37556W        W38421   5.633  11.131  21.817
37557W        W38422   4.855  11.747  20.210
37558W        W38423   4.281  11.703  19.608
37559W        W38424   4.067  14.415  19.284
37560W        W38425   5.399  13.745  21.409
37561W        W38426   4.434  13.230  18.768
37562W        W38427   6.114  12.615  19.989
37563W        W38428   6.394  12.414  20.388
37564W        W38429   5.599  13.088  20.322
37565W        W38430   6.069  13.462  18.454
37566W        W38431   5.741  11.483  19.782
37567W        W38432   7.220  11.761  19.050
37568W        W38433   3.714  14.350  21.081
37569W        W38434   4.131  13.576  20.613
37570W        W38435   3.698  14.422  18.845
37571W        W38436   5.597  11.692  20.651
37572W        W38437   4.960  13.715  18.500
37573W        W38438   6.865  14.097  18.686
37574W        W38439   5.840  12.750  18.700
37575W        W38440   4.683  11.941  19.217
37576W        W38441   5.515  11.851  18.269
37577W        W38442   6.099  13.416  21.447
37578W        W38443   6.452  11.322  19.064
37579W        W38444   3.782  11.170  18.512
37580W        W38445   5.068  13.489  20.802
37581W        W38446   4.867  13.405  19.894
37582W        W38447   4.609  13.357  18.292
37583W        W38448   3.850  13.598  19.060
37584W        W38449   4.354  12.668  21.502
37585W        W38450   5.058  11.228  21.688
37586W        W38451   5.767  11.370  21.044
37587W        W38452   4.962  11.138  19.325
37588W        W38453   6.021  11.215  18.830
37589W        W38454   3.966  11.147  20.407
37590W        W38455   4.014  12.110  19.777
37591W        W38456   6.703  11.218  20.183
37592W        W38457   4.125  11.716  18.997
37593W        W38458   6.696  11.404  20.613
37594W        W38459   7.092  12.607  18.298
37595W        W38460   4.384  11.365  20.117
37596W        W38461   5.498  11.937  21.057
37597W        W38462   3.646  11.627  18.535
37598W        W38463   4.432  13.016  21.096
37599W        W38464   5.790  12.414  20.275
37600W        W38465   5.657  14.493  18.571
37601W        W38466   3.803  13.000  18.268
37602W        W38467   4.538  13.411  21.394
37603W        W38468   4.059  12.578  21.025
37604W        W38469   5.050  12.683  20.819
37605W        W38470   6.818  11.042  21.081
37606W        W38471   7.216  12.652  21.072
37607W        W38472   7.204  12.852  18.758
37608W        W38473   6.067  13.184  18.857
37609W        W38474   6.541  14.484  18.552
37610W        W38475   5.718  12.474  21.694
37611W        W38476   4.048  13.441  21.734
37612W        W38477   7.254  11.363  21.686
37613W        W38478   6.972  12.291  20.307
37614W        W38479   5.280  14.421  21.784
37615W        W38480   5.135  11.050  18.511
37616W        W38481   6.674  13.649  18.454
37617W        W38482   4.443  11.742  21.340
37618W        W38483   4.877  13.736  21.202
37619W        W38484   7.003  11.727  21.000
37620W        W38485   6.214  14.386  18.968
37621W        W38486   6.453  13.005  20.335
37622W        W38487   4.703  11.421  21.002
37623W        W38488   5.172  12.490  21.759
37624W        W38489   4.675  13.669  18.953
37625W        W38490   6.430  13.167  19.217
37626W        W38491   4.198  11.793  20.941
37627W        W38492   5.527  13.855  19.405
37628W        W38493   7.277  12.415  19.586
37629W        W38494   5.499  11.048  21.305
37630W        W38495   6.279  13.753  20.384
37631W        W38496   6.582  14.097  20.092
37632W        W38497   5.801  13.899  18.520
37633W        W38498   3.811  13.791  21.362
37634W        W38499   4.554  11.783  20.600
37635W        W38500   4.524  11.131  19.710
37636W        W38501   6.145  11.973  20.402
37637W        W38502   4.943  13.144  18.602
37638W        W38503   6.941  13.086  20.101
37639W        W38504   4.268  13.844  21.524
37640W        W38505   6.655  14.526  19.321
37641W        W38506   4.754  11.546  19.766
37642W        W38507   4.523  13.039  19.856
37643W        W38508   4.836  14.450  20.606
37644W        W38509   6.903  14.546  21.638
37645W        W38510   6.062  12.734  20.571
37646W        W38511   3.911  12.532  18.486
37647W        W38512   7.045  14.190  19.183
37648W        W38513   6.882  11.514  18.802
37649W        W38514   5.021  11.033  21.205
37650W        W38515   6.727  13.835  19.663
37651W        W38516   6.756  12.391  19.568
37652W        W38517   4.873  12.064  19.784
37653W        W38518   5.118  12.326  21.108
37654W        W38519   6.229  13.479  20.971
37655W        W38520   4.879  11.933  21.083
37656W        W38521   4.858  14.399  19.699
37657W        W38522   4.175  14.358  21.333
37658W        W38523   4.287  13.719  18.463
37659W        W38524   6.804  13.477  19.273
37660W        W38525   4.408  12.269  21.159
37661W        W38526   7.181  12.199  18.640
37662W        W38527   4.926  13.256  19.111
37663W        W38528   6.025  12.638  21.192
37664W        W38529   5.916  12.266  20.736
37665W        W38530   4.476  12.638  20.765
37666W        W38531   6.686  14.526  20.594
37667W        W38532   6.477  11.160  21.588
37668W        W38533   4.141  11.310  21.175
37669W        W38534   4.480  12.333  20.228
37670W        W38535   4.849  12.147  18.350
37671W        W38536   3.652  13.906  20.895
37672W        W38537   5.237  12.615  20.338
37673W        W38538   5.060  11.640  18.443
37674W        W38539   4.195  12.456  19.224
37675W        W38540   3.966  14.308  20.661
37676W        W38541   6.761  12.534  18.769
37677W        W38542   6.856  11.450  21.455
37678W        W38543   6.292  13.659  19.418
37679W        W38544   3.890  12.583  21.595
37680W        W38545   6.856  11.047  18.891
37681W        W38546   6.376  13.522  18.902
37682W        W38547   5.278  12.580  18.987
37683W        W38548   6.465  11.384  18.510
37684W        W38549   6.530  11.991  20.696
37685W        W38550   4.239  12.584  19.903
37686W        W38551   4.533  13.523  19.552
37687W        W38552   6.296  12.143  19.517
37688W        W38553   5.319  11.522  20.213
37689W        W38554   7.281  13.433  20.724
37690W        W38555   7.199  11.420  20.285
37691W        W38556   3.738  14.250  19.661
37692W        W38557   4.247  13.437  19.197
37693W        W38558   4.162  11.054  21.750
37694W        W38559   5.281  13.907  21.852
37695W        W38560   7.036  12.875  19.642
37696W        W38561   6.390  13.052  18.522
37697W        W38562   5.685  14.573  20.734
37698W        W38563   6.542  13.295  21.771
37699W        W38564   5.357  11.005  19.051
37700W        W38565   6.070  11.874  19.910
37701W        W38566   3.756  13.461  20.242
37702W        W38567   5.009  11.423  18.883
37703W        W38568   4.813  12.907  21.732
37704W        W38569   5.807  11.888  19.446
37705W        W38570   6.012  13.298  20.568
37706W        W38571   4.166  13.903  21.003
37707W        W38572   4.757  13.886  21.726
37708W        W38573   4.608  11.683  18.740
37709W        W38574   6.125  11.825  19.065
37710W        W38575   6.083  13.933  21.302
37711W        W38576   4.768  12.525  19.901
37712W        W38577   4.423  14.223  20.766
37713W        W38578   7.168  14.340  18.367
37714W        W38579   4.031  13.012  21.363
37715W        W38580   6.026  13.274  20.051
37716W        W38581   4.462  12.923  19.293
37717W        W38582   4.833  13.930  20.688
37718W        W38583   5.211  11.349  19.729
37719W        W38584   3.822  13.333  18.659
37720W        W38585   5.341  12.284  18.529
37721W        W38586   3.987  12.833  19.548
37722W        W38587   5.277  11.475  21.012
37723W        W38588   6.949  11.184  18.439
37724W        W38589   7.042  12.930  21.538
37725W        W38590   5.696  14.187  21.690
37726W        W38591   7.254  13.281  21.212
37727W        W38592   6.662  14.079  21.823
37728W        W38593   4.401  14.535  20.301
37729W        W38594   7.260  13.157  19.175
37730W        W38595   5.790  12.424  19.688
37731W        W38596   5.557  11.036  19.578
37732W        W38597   4.616  14.020  19.415
37733W        W38598   5.115  11.761  20.640
37734W        W38599   4.815  11.130  20.109
37735W        W38600   3.878  13.952  18.657
37736W        W38601   5.694  13.316  19.375
37737W        W38602   4.569  14.111  21.254
37738W        W38603   4.046  12.934  18.950
37739W        W38604   3.931  11.477  19.949
37740W        W38605   5.479  13.442  20.006
37741W        W38606   3.731  11.296  19.026
37742W        W38607   6.395  12.502  20.953
37743W        W38608   6.272  11.888  18.525
37744W        W38609   6.789  13.560  20.173
37745W        W38610   5.450  14.044  20.004
37746W        W38611   4.862  14.148  18.915
37747W        W38612   6.144  11.051  18.345
37748W        W38613   3.944  14.311  20.086
37749W        W38614   6.141  12.069  21.721
37750W        W38615   4.124  11.599  21.720
37751W        W38616   3.855  12.199  19.053
37752W        W38617   4.546  12.188  18.778
37753W        W38618   6.309  12.515  21.595
37754W        W38619   4.652  12.796  20.304
37755W        W38620   6.126  11.082  19.424
37756W        W38621   5.257  14.513  19.927
37757W        W38622   6.471  13.975  20.864
37758W        W38623   6.055  14.124  19.975
37759W        W38624   6.074  13.104  19.569
37760W        W38625   5.536  11.329  18.640
37761W        W38626   7.217  10.957  19.362
37762W        W38627   4.905  12.592  18.525
37763W        W38628   7.071  11.929  19.515
37764W        W38629   5.763  13.099  18.392
37765W        W38630   6.699  13.299  21.140
37766W        W38631   6.353  14.000  18.607
37767W        W38632   4.968  11.675  21.513
37768W        W38633   4.788  12.259  20.754
37769W        W38634   6.880  13.754  21.031
37770W        W38635   5.980  11.704  21.408
37771W        W38636   3.824  12.175  21.185
37772W        W38637   5.584  12.652  20.911
37773W        W38638   3.941  13.410  19.568
37774W        W38639   4.088  12.707  20.458
37775W        W38640   6.405  12.993  20.808
37776W        W38641   6.177  14.373  21.619
37777W        W38642   6.073  12.112  21.172
37778W        W38643   6.350  14.166  19.577
37779W        W38644   5.352  13.886  20.900
37780W        W38645   4.837  14.241  20.169
37781W        W38646   6.642  13.412  20.588
37782W        W38647   5.692  13.484  21.725
37783W        W38648   4.297  13.437  20.064
37784W        W38649   6.643  13.196  19.709
37785W        W38650   6.284  14.262  20.460
37786W        W38651   4.262  13.991  20.330
37787W        W38652   5.283  12.043  21.540
37788W        W38653   5.734  14.209  19.051
37789W        W38654   5.042  13.464  21.689
37790W        W38655   5.168  13.702  19.066
37791W        W38656   4.389  12.442  18.325
37792W        W38657   3.728  14.528  25.225
37793W        W38658   4.104  13.421  24.748
37794W        W38659   6.809  13.151  22.518
37795W        W38660   6.939  14.236  24.545
37796W        W38661   4.857  14.227  22.071
37797W        W38662   4.940  12.379  23.054
37798W        W38663   4.455  12.227  23.218
37799W        W38664   5.446  13.042  22.652
37800W        W38665   5.121  14.134  25.007
37801W        W38666   3.770  11.695  24.970
37802W        W38667   4.532  10.975  24.772
37803W        W38668   6.226  11.363  23.659
37804W        W38669   5.875  12.234  22.229
37805W        W38670   6.445  11.668  25.320
37806W        W38671   3.811  11.460  24.445
37807W        W38672   3.910  14.079  25.466
37808W        W38673   5.432  13.469  22.198
37809W        W38674   3.864  12.252  23.891
37810W        W38675   4.757  12.143  25.128
37811W        W38676   7.216  12.002  23.627
37812W        W38677   6.980  13.045  24.486
37813W        W38678   5.288  12.378  23.513
37814W        W38679   5.834  13.717  23.882
37815W        W38680   4.334  13.151  24.114
37816W        W38681   3.693  12.679  23.685
37817W        W38682   4.729  12.651  24.877
37818W        W38683   7.000  12.434  25.131
37819W        W38684   4.616  13.878  23.576
37820W        W38685   5.737  13.567  24.710
37821W        W38686   4.957  12.207  23.935
37822W        W38687   5.249  12.991  23.578
37823W        W38688   6.246  13.764  25.426
37824W        W38689   5.325  13.084  25.436
37825W        W38690   5.306  12.800  24.914
37826W        W38691   3.715  12.191  25.436
37827W        W38692   6.547  13.726  25.035
37828W        W38693   4.128  11.308  23.033
37829W        W38694   4.655  13.566  24.032
37830W        W38695   7.118  13.349  23.322
37831W        W38696   6.531  11.749  23.889
37832W        W38697   6.816  11.702  21.984
37833W        W38698   7.281  12.503  24.290
37834W        W38699   5.248  14.210  24.043
37835W        W38700   7.022  13.676  22.481
37836W        W38701   4.151  14.462  22.235
37837W        W38702   4.544  14.508  22.911
37838W        W38703   4.341  11.262  24.337
37839W        W38704   6.964  12.280  24.612
37840W        W38705   6.369  12.702  23.071
37841W        W38706   6.335  12.390  22.098
37842W        W38707   5.543  13.534  24.238
37843W        W38708   5.349  11.864  23.437
37844W        W38709   5.949  13.951  24.431
37845W        W38710   6.820  12.742  22.853
37846W        W38711   5.722  11.400  22.869
37847W        W38712   4.379  14.094  22.552
37848W        W38713   3.750  11.593  23.151
37849W        W38714   6.536  12.200  23.625
37850W        W38715   3.994  13.817  23.540
37851W        W38716   5.335  14.167  22.410
37852W        W38717   6.727  12.193  21.874
37853W        W38718   3.750  13.951  24.038
37854W        W38719   4.541  13.523  24.518
37855W        W38720   4.914  12.883  23.137
37856W        W38721   4.936  11.288  24.230
37857W        W38722   7.165  11.050  23.527
37858W        W38723   4.384  12.922  21.995
37859W        W38724   4.039  11.955  22.174
37860W        W38725   4.101  13.911  22.968
37861W        W38726   5.232  13.394  23.216
37862W        W38727   6.564  14.253  24.930
37863W        W38728   5.490  11.895  22.614
37864W        W38729   6.873  14.293  23.386
37865W        W38730   6.550  12.146  24.984
37866W        W38731   7.263  13.802  23.118
37867W        W38732   5.890  13.094  24.602
37868W        W38733   3.656  12.645  22.808
37869W        W38734   4.767  13.060  24.381
37870W        W38735   5.971  12.324  22.759
37871W        W38736   5.848  12.814  22.863
37872W        W38737   4.191  12.234  24.337
37873W        W38738   4.176  12.110  25.259
37874W        W38739   4.066  11.027  23.418
37875W        W38740   5.834  11.374  23.979
37876W        W38741   5.482  11.559  25.142
37877W        W38742   5.837  11.708  22.320
37878W        W38743   7.020  14.101  25.074
37879W        W38744   5.987  11.182  25.113
37880W        W38745   7.006  13.483  25.235
37881W        W38746   6.436  11.650  24.831
37882W        W38747   6.236  11.588  23.101
37883W        W38748   6.629  12.722  25.505
37884W        W38749   4.369  14.298  23.491
37885W        W38750   5.027  12.015  22.477
37886W        W38751   4.596  11.299  25.141
37887W        W38752   6.648  11.783  22.822
37888W        W38753   7.015  12.265  22.767
37889W        W38754   4.758  14.482  25.238
37890W        W38755   4.684  11.018  22.473
37891W        W38756   7.005  11.552  23.508
37892W        W38757   7.155  13.801  21.953
37893W        W38758   4.062  13.004  23.655
37894W        W38759   5.979  11.591  21.885
37895W        W38760   7.113  13.923  23.605
37896W        W38761   7.152  11.117  24.355
37897W        W38762   5.597  12.329  24.909
37898W        W38763   5.690  13.668  22.612
37899W        W38764   6.090  12.962  25.352
37900W        W38765   5.764  10.939  23.661
37901W        W38766   4.376  11.842  23.724
37902W        W38767   3.930  13.042  24.498
37903W        W38768   5.789  14.235  23.204
37904W        W38769   6.983  11.832  24.076
37905W        W38770   5.620  14.179  24.843
37906W        W38771   6.963  13.238  22.048
37907W        W38772   5.398  12.721  23.109
37908W        W38773   7.250  11.232  24.850
37909W        W38774   5.399  13.067  24.444
37910W        W38775   5.616  11.953  23.889
37911W        W38776   6.468  12.251  22.727
37912W        W38777   6.755  11.984  22.369
37913W        W38778   6.564  14.024  22.758
37914W        W38779   6.398  13.627  23.554
37915W        W38780   6.294  12.706  22.532
37916W        W38781   5.727  12.916  23.518
37917W        W38782   6.608  12.704  23.585
37918W        W38783   3.983  11.719  24.009
37919W        W38784   6.761  12.771  24.836
37920W        W38785   7.112  14.389  23.982
37921W        W38786   5.042  13.833  23.384
37922W        W38787   6.049  14.366  24.708
37923W        W38788   6.043  11.696  24.472
37924W        W38789   5.250  14.404  24.533
37925W        W38790   6.947  11.358  22.999
37926W        W38791   6.738  12.677  24.300
37927W        W38792   3.721  11.998  24.338
37928W        W38793   6.581  11.793  23.356
37929W        W38794   6.992  11.944  25.133
37930W        W38795   5.877  13.643  23.351
37931W        W38796   5.133  14.234  22.964
37932W        W38797   4.248  11.414  22.222
37933W        W38798   5.352  11.068  24.032
37934W        W38799   4.380  14.188  21.880
37935W        W38800   4.754  12.654  22.631
37936W        W38801   5.408  13.283  24.944
37937W        W38802   5.238  11.641  22.934
37938W        W38803   6.594  11.238  23.362
37939W        W38804   6.314  14.520  23.690
37940W        W38805   5.726  14.168  24.030
37941W        W38806   5.122  13.205  23.991
37942W        W38807   6.892  13.928  24.117
37943W        W38808   4.586  11.431  22.886
37944W        W38809   5.108  13.728  23.846
37945W        W38810   4.591  11.659  21.911
37946W        W38811   5.392  12.268  24.305
37947W        W38812   6.240  11.134  24.175
37948W        W38813   3.660  12.977  24.060
37949W        W38814   5.364  12.795  22.218
37950W        W38815   4.632  11.110  21.988
37951W        W38816   5.370  12.191  23.039
37952W        W38817   6.340  11.167  24.738
37953W        W38818   4.928  13.179  24.847
37954W        W38819   5.732  12.961  25.064
37955W        W38820   6.349  12.991  24.957
37956W        W38821   5.633  11.131  25.462
37957W        W38822   4.855  11.747  23.855
37958W        W38823   4.281  11.703  23.253
37959W        W38824   4.067  14.415  22.929
37960W        W38825   5.399  13.745  25.054
37961W        W38826   4.434  13.230  22.413
37962W        W38827   6.114  12.615  23.634
37963W        W38828   6.394  12.414  24.033
37964W        W38829   5.599  13.088  23.967
37965W        W38830   6.069  13.462  22.099
37966W        W38831   5.741  11.483  23.427
37967W        W38832   7.220  11.761  22.695
37968W        W38833   3.714  14.350  24.726
37969W        W38834   4.131  13.576  24.258
37970W        W38835   3.698  14.422  22.490
37971W        W38836   5.597  11.692  24.296
37972W        W38837   4.960  13.715  22.145
37973W        W38838   6.865  14.097  22.331
37974W        W38839   5.840  12.750  22.345
37975W        W38840   4.683  11.941  22.862
37976W        W38841   5.515  11.851  21.914
37977W        W38842   6.099  13.416  25.092
37978W        W38843   6.452  11.322  22.709
37979W        W38844   3.782  11.170  22.157
37980W        W38845   5.068  13.489  24.447
37981W        W38846   4.867  13.405  23.539
37982W        W38847   4.609  13.357  21.937
37983W        W38848   3.850  13.598  22.705
37984W        W38849   4.354  12.668  25.147
37985W        W38850   5.058  11.228  25.333
37986W        W38851   5.767  11.370  24.689
37987W        W38852   4.962  11.138  22.970
37988W        W38853   6.021  11.215  22.475
37989W        W38854   3.966  11.147  24.052
37990W        W38855   4.014  12.110  23.422
37991W        W38856   6.703  11.218  23.828
37992W        W38857   4.125  11.716  22.642
37993W        W38858   6.696  11.404  24.258
37994W        W38859   7.092  12.607  21.943
37995W        W38860   4.384  11.365  23.762
37996W        W38861   5.498  11.937  24.702
37997W        W38862   3.646  11.627  22.180
37998W        W38863   4.432  13.016  24.741
37999W        W38864   5.790  12.414  23.920
38000W        W38865   5.657  14.493  22.216
38001W        W38866   3.803  13.000  21.913
38002W        W38867   4.538  13.411  25.039
38003W        W38868   4.059  12.578  24.670
38004W        W38869   5.050  12.683  24.464
38005W        W38870   6.818  11.042  24.726
38006W        W38871   7.216  12.652  24.717
38007W        W38872   7.204  12.852  22.403
38008W        W38873   6.067  13.184  22.502
38009W        W38874   6.541  14.484  22.197
38010W        W38875   5.718  12.474  25.339
38011W        W38876   4.048  13.441  25.379
38012W        W38877   7.254  11.363  25.331
38013W        W38878   6.972  12.291  23.952
38014W        W38879   5.280  14.421  25.429
38015W        W38880   5.135  11.050  22.156
38016W        W38881   6.674  13.649  22.099
38017W        W38882   4.443  11.742  24.985
38018W        W38883   4.877  13.736  24.847
38019W        W38884   7.003  11.727  24.645
38020W        W38885   6.214  14.386  22.613
38021W        W38886   6.453  13.005  23.980
38022W        W38887   4.703  11.421  24.647
38023W        W38888   5.172  12.490  25.404
38024W        W38889   4.675  13.669  22.598
38025W        W38890   6.430  13.167  22.862
38026W        W38891   4.198  11.793  24.586
38027W        W38892   5.527  13.855  23.050
38028W        W38893   7.277  12.415  23.231
38029W        W38894   5.499  11.048  24.950
38030W        W38895   6.279  13.753  24.029
38031W        W38896   6.582  14.097  23.737
38032W        W38897   5.801  13.899  22.165
38033W        W38898   3.811  13.791  25.007
38034W        W38899   4.554  11.783  24.245
38035W        W38900   4.524  11.131  23.355
38036W        W38901   6.145  11.973  24.047
38037W        W38902   4.943  13.144  22.247
38038W        W38903   6.941  13.086  23.746
38039W        W38904   4.268  13.844  25.169
38040W        W38905   6.655  14.526  22.966
38041W        W38906   4.754  11.546  23.411
38042W        W38907   4.523  13.039  23.501
38043W        W38908   4.836  14.450  24.251
38044W        W38909   6.903  14.546  25.283
38045W        W38910   6.062  12.734  24.216
38046W        W38911   3.911  12.532  22.131
38047W        W38912   7.045  14.190  22.828
38048W        W38913   6.882  11.514  22.447
38049W        W38914   5.021  11.033  24.850
38050W        W38915   6.727  13.835  23.308
38051W        W38916   6.756  12.391  23.213
38052W        W38917   4.873  12.064  23.429
38053W        W38918   5.118  12.326  24.753
38054W        W38919   6.229  13.479  24.616
38055W        W38920   4.879  11.933  24.728
38056W        W38921   4.858  14.399  23.344
38057W        W38922   4.175  14.358  24.978
38058W        W38923   4.287  13.719  22.108
38059W        W38924   6.804  13.477  22.918
38060W        W38925   4.408  12.269  24.804
38061W        W38926   7.181  12.199  22.285
38062W        W38927   4.926  13.256  22.756
38063W        W38928   6.025  12.638  24.837
38064W        W38929   5.916  12.266  24.381
38065W        W38930   4.476  12.638  24.410
38066W        W38931   6.686  14.526  24.239
38067W        W38932   6.477  11.160  25.233
38068W        W38933   4.141  11.310  24.820
38069W        W38934   4.480  12.333  23.873
38070W        W38935   4.849  12.147  21.995
38071W        W38936   3.652  13.906  24.540
38072W        W38937   5.237  12.615  23.983
38073W        W38938   5.060  11.640  22.088
38074W        W38939   4.195  12.456  22.869
38075W        W38940   3.966  14.308  24.306
38076W        W38941   6.761  12.534  22.414
38077W        W38942   6.856  11.450  25.100
38078W        W38943   6.292  13.659  23.063
38079W        W38944   3.890  12.583  25.240
38080W        W38945   6.856  11.047  22.536
38081W        W38946   6.376  13.522  22.547
38082W        W38947   5.278  12.580  22.632
38083W        W38948   6.465  11.384  22.155
38084W        W38949   6.530  11.991  24.341
38085W        W38950   4.239  12.584  23.548
38086W        W38951   4.533  13.523  23.197
38087W        W38952   6.296  12.143  23.162
38088W        W38953   5.319  11.522  23.858
38089W        W38954   7.281  13.433  24.369
38090W        W38955   7.199  11.420  23.930
38091W        W38956   3.738  14.250  23.306
38092W        W38957   4.247  13.437  22.842
38093W        W38958   4.162  11.054  25.395
38094W        W38959   5.281  13.907  25.497
38095W        W38960   7.036  12.875  23.287
38096W        W38961   6.390  13.052  22.167
38097W        W38962   5.685  14.573  24.379
38098W        W38963   6.542  13.295  25.416
38099W        W38964   5.357  11.005  22.696
38100W        W38965   6.070  11.874  23.555
38101W        W38966   3.756  13.461  23.887
38102W        W38967   5.009  11.423  22.528
38103W        W38968   4.813  12.907  25.377
38104W        W38969   5.807  11.888  23.091
38105W        W38970   6.012  13.298  24.213
38106W        W38971   4.166  13.903  24.648
38107W        W38972   4.757  13.886  25.371
38108W        W38973   4.608  11.683  22.385
38109W        W38974   6.125  11.825  22.710
38110W        W38975   6.083  13.933  24.947
38111W        W38976   4.768  12.525  23.546
38112W        W38977   4.423  14.223  24.411
38113W        W38978   7.168  14.340  22.012
38114W        W38979   4.031  13.012  25.008
38115W        W38980   6.026  13.274  23.696
38116W        W38981   4.462  12.923  22.938
38117W        W38982   4.833  13.930  24.333
38118W        W38983   5.211  11.349  23.374
38119W        W38984   3.822  13.333  22.304
38120W        W38985   5.341  12.284  22.174
38121W        W38986   3.987  12.833  23.193
38122W        W38987   5.277  11.475  24.657
38123W        W38988   6.949  11.184  22.084
38124W        W38989   7.042  12.930  25.183
38125W        W38990   5.696  14.187  25.335
38126W        W38991   7.254  13.281  24.857
38127W        W38992   6.662  14.079  25.468
38128W        W38993   4.401  14.535  23.946
38129W        W38994   7.260  13.157  22.820
38130W        W38995   5.790  12.424  23.333
38131W        W38996   5.557  11.036  23.223
38132W        W38997   4.616  14.020  23.060
38133W        W38998   5.115  11.761  24.285
38134W        W38999   4.815  11.130  23.754
38135W        W39000   3.878  13.952  22.302
38136W        W39001   5.694  13.316  23.020
38137W        W39002   4.569  14.111  24.899
38138W        W39003   4.046  12.934  22.595
38139W        W39004   3.931  11.477  23.594
38140W        W39005   5.479  13.442  23.651
38141W        W39006   3.731  11.296  22.671
38142W        W39007   6.395  12.502  24.598
38143W        W39008   6.272  11.888  22.170
38144W        W39009   6.789  13.560  23.818
38145W        W39010   5.450  14.044  23.649
38146W        W39011   4.862  14.148  22.560
38147W        W39012   6.144  11.051  21.990
38148W        W39013   3.944  14.311  23.731
38149W        W39014   6.141  12.069  25.366
38150W        W39015   4.124  11.599  25.365
38151W        W39016   3.855  12.199  22.698
38152W        W39017   4.546  12.188  22.423
38153W        W39018   6.309  12.515  25.240
38154W        W39019   4.652  12.796  23.949
38155W        W39020   6.126  11.082  23.069
38156W        W39021   5.257  14.513  23.572
38157W        W39022   6.471  13.975  24.509
38158W        W39023   6.055  14.124  23.620
38159W        W39024   6.074  13.104  23.214
38160W        W39025   5.536  11.329  22.285
38161W        W39026   7.217  10.957  23.007
38162W        W39027   4.905  12.592  22.170
38163W        W39028   7.071  11.929  23.160
38164W        W39029   5.763  13.099  22.037
38165W        W39030   6.699  13.299  24.785
38166W        W39031   6.353  14.000  22.252
38167W        W39032   4.968  11.675  25.158
38168W        W39033   4.788  12.259  24.399
38169W        W39034   6.880  13.754  24.676
38170W        W39035   5.980  11.704  25.053
38171W        W39036   3.824  12.175  24.830
38172W        W39037   5.584  12.652  24.556
38173W        W39038   3.941  13.410  23.213
38174W        W39039   4.088  12.707  24.103
38175W        W39040   6.405  12.993  24.453
38176W        W39041   6.177  14.373  25.264
38177W        W39042   6.073  12.112  24.817
38178W        W39043   6.350  14.166  23.222
38179W        W39044   5.352  13.886  24.545
38180W        W39045   4.837  14.241  23.814
38181W        W39046   6.642  13.412  24.233
38182W        W39047   5.692  13.484  25.370
38183W        W39048   4.297  13.437  23.709
38184W        W39049   6.643  13.196  23.354
38185W        W39050   6.284  14.262  24.105
38186W        W39051   4.262  13.991  23.975
38187W        W39052   5.283  12.043  25.185
38188W        W39053   5.734  14.209  22.696
38189W        W39054   5.042  13.464  25.334
38190W        W39055   5.168  13.702  22.711
38191W        W39056   4.389  12.442  21.970
38192W        W39057   3.728  14.528  28.869
38193W        W39058   4.104  13.421  28.392
38194W        W39059   6.809  13.151  26.162
38195W        W39060   6.939  14.236  28.189
38196W        W39061   4.857  14.227  25.715
38197W        W39062   4.940  12.379  26.698
38198W        W39063   4.455  12.227  26.862
38199W        W39064   5.446  13.042  26.296
38200W        W39065   5.121  14.134  28.651
38201W        W39066   3.770  11.695  28.614
38202W        W39067   4.532  10.975  28.416
38203W        W39068   6.226  11.363  27.303
38204W        W39069   5.875  12.234  25.873
38205W        W39070   6.445  11.668  28.964
38206W        W39071   3.811  11.460  28.089
38207W        W39072   3.910  14.079  29.110
38208W        W39073   5.432  13.469  25.842
38209W        W39074   3.864  12.252  27.535
38210W        W39075   4.757  12.143  28.772
38211W        W39076   7.216  12.002  27.271
38212W        W39077   6.980  13.045  28.130
38213W        W39078   5.288  12.378  27.157
38214W        W39079   5.834  13.717  27.526
38215W        W39080   4.334  13.151  27.758
38216W        W39081   3.693  12.679  27.329
38217W        W39082   4.729  12.651  28.521
38218W        W39083   7.000  12.434  28.775
38219W        W39084   4.616  13.878  27.220
38220W        W39085   5.737  13.567  28.354
38221W        W39086   4.957  12.207  27.579
38222W        W39087   5.249  12.991  27.222
38223W        W39088   6.246  13.764  29.070
38224W        W39089   5.325  13.084  29.080
38225W        W39090   5.306  12.800  28.558
38226W        W39091   3.715  12.191  29.080
38227W        W39092   6.547  13.726  28.679
38228W        W39093   4.128  11.308  26.677
38229W        W39094   4.655  13.566  27.676
38230W        W39095   7.118  13.349  26.966
38231W        W39096   6.531  11.749  27.533
38232W        W39097   6.816  11.702  25.628
38233W        W39098   7.281  12.503  27.934
38234W        W39099   5.248  14.210  27.687
38235W        W39100   7.022  13.676  26.125
38236W        W39101   4.151  14.462  25.879
38237W        W39102   4.544  14.508  26.555
38238W        W39103   4.341  11.262  27.981
38239W        W39104   6.964  12.280  28.256
38240W        W39105   6.369  12.702  26.715
38241W        W39106   6.335  12.390  25.742
38242W        W39107   5.543  13.534  27.882
38243W        W39108   5.349  11.864  27.081
38244W        W39109   5.949  13.951  28.075
38245W        W39110   6.820  12.742  26.497
38246W        W39111   5.722  11.400  26.513
38247W        W39112   4.379  14.094  26.196
38248W        W39113   3.750  11.593  26.795
38249W        W39114   6.536  12.200  27.269
38250W        W39115   3.994  13.817  27.184
38251W        W39116   5.335  14.167  26.054
38252W        W39117   6.727  12.193  25.518
38253W        W39118   3.750  13.951  27.682
38254W        W39119   4.541  13.523  28.162
38255W        W39120   4.914  12.883  26.781
38256W        W39121   4.936  11.288  27.874
38257W        W39122   7.165  11.050  27.171
38258W        W39123   4.384  12.922  25.639
38259W        W39124   4.039  11.955  25.818
38260W        W39125   4.101  13.911  26.612
38261W        W39126   5.232  13.394  26.860
38262W        W39127   6.564  14.253  28.574
38263W        W39128   5.490  11.895  26.258
38264W        W39129   6.873  14.293  27.030
38265W        W39130   6.550  12.146  28.628
38266W        W39131   7.263  13.802  26.762
38267W        W39132   5.890  13.094  28.246
38268W        W39133   3.656  12.645  26.452
38269W        W39134   4.767  13.060  28.025
38270W        W39135   5.971  12.324  26.403
38271W        W39136   5.848  12.814  26.507
38272W        W39137   4.191  12.234  27.981
38273W        W39138   4.176  12.110  28.903
38274W        W39139   4.066  11.027  27.062
38275W        W39140   5.834  11.374  27.623
38276W        W39141   5.482  11.559  28.786
38277W        W39142   5.837  11.708  25.964
38278W        W39143   7.020  14.101  28.718
38279W        W39144   5.987  11.182  28.757
38280W        W39145   7.006  13.483  28.879
38281W        W39146   6.436  11.650  28.475
38282W        W39147   6.236  11.588  26.745
38283W        W39148   6.629  12.722  29.149
38284W        W39149   4.369  14.298  27.135
38285W        W39150   5.027  12.015  26.121
38286W        W39151   4.596  11.299  28.785
38287W        W39152   6.648  11.783  26.466
38288W        W39153   7.015  12.265  26.411
38289W        W39154   4.758  14.482  28.882
38290W        W39155   4.684  11.018  26.117
38291W        W39156   7.005  11.552  27.152
38292W        W39157   7.155  13.801  25.597
38293W        W39158   4.062  13.004  27.299
38294W        W39159   5.979  11.591  25.529
38295W        W39160   7.113  13.923  27.249
38296W        W39161   7.152  11.117  27.999
38297W        W39162   5.597  12.329  28.553
38298W        W39163   5.690  13.668  26.256
38299W        W39164   6.090  12.962  28.996
38300W        W39165   5.764  10.939  27.305
38301W        W39166   4.376  11.842  27.368
38302W        W39167   3.930  13.042  28.142
38303W        W39168   5.789  14.235  26.848
38304W        W39169   6.983  11.832  27.720
38305W        W39170   5.620  14.179  28.487
38306W        W39171   6.963  13.238  25.692
38307W        W39172   5.398  12.721  26.753
38308W        W39173   7.250  11.232  28.494
38309W        W39174   5.399  13.067  28.088
38310W        W39175   5.616  11.953  27.533
38311W        W39176   6.468  12.251  26.371
38312W        W39177   6.755  11.984  26.013
38313W        W39178   6.564  14.024  26.402
38314W        W39179   6.398  13.627  27.198
38315W        W39180   6.294  12.706  26.176
38316W        W39181   5.727  12.916  27.162
38317W        W39182   6.608  12.704  27.229
38318W        W39183   3.983  11.719  27.653
38319W        W39184   6.761  12.771  28.480
38320W        W39185   7.112  14.389  27.626
38321W        W39186   5.042  13.833  27.028
38322W        W39187   6.049  14.366  28.352
38323W        W39188   6.043  11.696  28.116
38324W        W39189   5.250  14.404  28.177
38325W        W39190   6.947  11.358  26.643
38326W        W39191   6.738  12.677  27.944
38327W        W39192   3.721  11.998  27.982
38328W        W39193   6.581  11.793  27.000
38329W        W39194   6.992  11.944  28.777
38330W        W39195   5.877  13.643  26.995
38331W        W39196   5.133  14.234  26.608
38332W        W39197   4.248  11.414  25.866
38333W        W39198   5.352  11.068  27.676
38334W        W39199   4.380  14.188  25.524
38335W        W39200   4.754  12.654  26.275
38336W        W39201   5.408  13.283  28.588
38337W        W39202   5.238  11.641  26.578
38338W        W39203   6.594  11.238  27.006
38339W        W39204   6.314  14.520  27.334
38340W        W39205   5.726  14.168  27.674
38341W        W39206   5.122  13.205  27.635
38342W        W39207   6.892  13.928  27.761
38343W        W39208   4.586  11.431  26.530
38344W        W39209   5.108  13.728  27.490
38345W        W39210   4.591  11.659  25.555
38346W        W39211   5.392  12.268  27.949
38347W        W39212   6.240  11.134  27.819
38348W        W39213   3.660  12.977  27.704
38349W        W39214   5.364  12.795  25.862
38350W        W39215   4.632  11.110  25.632
38351W        W39216   5.370  12.191  26.683
38352W        W39217   6.340  11.167  28.382
38353W        W39218   4.928  13.179  28.491
38354W        W39219   5.732  12.961  28.708
38355W        W39220   6.349  12.991  28.601
38356W        W39221   5.633  11.131  29.106
38357W        W39222   4.855  11.747  27.499
38358W        W39223   4.281  11.703  26.897
38359W        W39224   4.067  14.415  26.573
38360W        W39225   5.399  13.745  28.698
38361W        W39226   4.434  13.230  26.057
38362W        W39227   6.114  12.615  27.278
38363W        W39228   6.394  12.414  27.677
38364W        W39229   5.599  13.088  27.611
38365W        W39230   6.069  13.462  25.743
38366W        W39231   5.741  11.483  27.071
38367W        W39232   7.220  11.761  26.339
38368W        W39233   3.714  14.350  28.370
38369W        W39234   4.131  13.576  27.902
38370W        W39235   3.698  14.422  26.134
38371W        W39236   5.597  11.692  27.940
38372W        W39237   4.960  13.715  25.789
38373W        W39238   6.865  14.097  25.975
38374W        W39239   5.840  12.750  25.989
38375W        W39240   4.683  11.941  26.506
38376W        W39241   5.515  11.851  25.558
38377W        W39242   6.099  13.416  28.736
38378W        W39243   6.452  11.322  26.353
38379W        W39244   3.782  11.170  25.801
38380W        W39245   5.068  13.489  28.091
38381W        W39246   4.867  13.405  27.183
38382W        W39247   4.609  13.357  25.581
38383W        W39248   3.850  13.598  26.349
38384W        W39249   4.354  12.668  28.791
38385W        W39250   5.058  11.228  28.977
38386W        W39251   5.767  11.370  28.333
38387W        W39252   4.962  11.138  26.614
38388W        W39253   6.021  11.215  26.119
38389W        W39254   3.966  11.147  27.696
38390W        W39255   4.014  12.110  27.066
38391W        W39256   6.703  11.218  27.472
38392W        W39257   4.125  11.716  26.286
38393W        W39258   6.696  11.404  27.902
38394W        W39259   7.092  12.607  25.587
38395W        W39260   4.384  11.365  27.406
38396W        W39261   5.498  11.937  28.346
38397W        W39262   3.646  11.627  25.824
38398W        W39263   4.432  13.016  28.385
38399W        W39264   5.790  12.414  27.564
38400W        W39265   5.657  14.493  25.860
38401W        W39266   3.803  13.000  25.557
38402W        W39267   4.538  13.411  28.683
38403W        W39268   4.059  12.578  28.314
38404W        W39269   5.050  12.683  28.108
38405W        W39270   6.818  11.042  28.370
38406W        W39271   7.216  12.652  28.361
38407W        W39272   7.204  12.852  26.047
38408W        W39273   6.067  13.184  26.146
38409W        W39274   6.541  14.484  25.841
38410W        W39275   5.718  12.474  28.983
38411W        W39276   4.048  13.441  29.023
38412W        W39277   7.254  11.363  28.975
38413W        W39278   6.972  12.291  27.596
38414W        W39279   5.280  14.421  29.073
38415W        W39280   5.135  11.050  25.800
38416W        W39281   6.674  13.649  25.743
38417W        W39282   4.443  11.742  28.629
38418W        W39283   4.877  13.736  28.491
38419W        W39284   7.003  11.727  28.289
38420W        W39285   6.214  14.386  26.257
38421W        W39286   6.453  13.005  27.624
38422W        W39287   4.703  11.421  28.291
38423W        W39288   5.172  12.490  29.048
38424W        W39289   4.675  13.669  26.242
38425W        W39290   6.430  13.167  26.506
38426W        W39291   4.198  11.793  28.230
38427W        W39292   5.527  13.855  26.694
38428W        W39293   7.277  12.415  26.875
38429W        W39294   5.499  11.048  28.594
38430W        W39295   6.279  13.753  27.673
38431W        W39296   6.582  14.097  27.381
38432W        W39297   5.801  13.899  25.809
38433W        W39298   3.811  13.791  28.651
38434W        W39299   4.554  11.783  27.889
38435W        W39300   4.524  11.131  26.999
38436W        W39301   6.145  11.973  27.691
38437W        W39302   4.943  13.144  25.891
38438W        W39303   6.941  13.086  27.390
38439W        W39304   4.268  13.844  28.813
38440W        W39305   6.655  14.526  26.610
38441W        W39306   4.754  11.546  27.055
38442W        W39307   4.523  13.039  27.145
38443W        W39308   4.836  14.450  27.895
38444W        W39309   6.903  14.546  28.927
38445W        W39310   6.062  12.734  27.860
38446W        W39311   3.911  12.532  25.775
38447W        W39312   7.045  14.190  26.472
38448W        W39313   6.882  11.514  26.091
38449W        W39314   5.021  11.033  28.494
38450W        W39315   6.727  13.835  26.952
38451W        W39316   6.756  12.391  26.857
38452W        W39317   4.873  12.064  27.073
38453W        W39318   5.118  12.326  28.397
38454W        W39319   6.229  13.479  28.260
38455W        W39320   4.879  11.933  28.372
38456W        W39321   4.858  14.399  26.988
38457W        W39322   4.175  14.358  28.622
38458W        W39323   4.287  13.719  25.752
38459W        W39324   6.804  13.477  26.562
38460W        W39325   4.408  12.269  28.448
38461W        W39326   7.181  12.199  25.929
38462W        W39327   4.926  13.256  26.400
38463W        W39328   6.025  12.638  28.481
38464W        W39329   5.916  12.266  28.025
38465W        W39330   4.476  12.638  28.054
38466W        W39331   6.686  14.526  27.883
38467W        W39332   6.477  11.160  28.877
38468W        W39333   4.141  11.310  28.464
38469W        W39334   4.480  12.333  27.517
38470W        W39335   4.849  12.147  25.639
38471W        W39336   3.652  13.906  28.184
38472W        W39337   5.237  12.615  27.627
38473W        W39338   5.060  11.640  25.732
38474W        W39339   4.195  12.456  26.513
38475W        W39340   3.966  14.308  27.950
38476W        W39341   6.761  12.534  26.058
38477W        W39342   6.856  11.450  28.744
38478W        W39343   6.292  13.659  26.707
38479W        W39344   3.890  12.583  28.884
38480W        W39345   6.856  11.047  26.180
38481W        W39346   6.376  13.522  26.191
38482W        W39347   5.278  12.580  26.276
38483W        W39348   6.465  11.384  25.799
38484W        W39349   6.530  11.991  27.985
38485W        W39350   4.239  12.584  27.192
38486W        W39351   4.533  13.523  26.841
38487W        W39352   6.296  12.143  26.806
38488W        W39353   5.319  11.522  27.502
38489W        W39354   7.281  13.433  28.013
38490W        W39355   7.199  11.420  27.574
38491W        W39356   3.738  14.250  26.950
38492W        W39357   4.247  13.437  26.486
38493W        W39358   4.162  11.054  29.039
38494W        W39359   5.281  13.907  29.141
38495W        W39360   7.036  12.875  26.931
38496W        W39361   6.390  13.052  25.811
38497W        W39362   5.685  14.573  28.023
38498W        W39363   6.542  13.295  29.060
38499W        W39364   5.357  11.005  26.340
38500W        W39365   6.070  11.874  27.199
38501W        W39366   3.756  13.461  27.531
38502W        W39367   5.009  11.423  26.172
38503W        W39368   4.813  12.907  29.021
38504W        W39369   5.807  11.888  26.735
38505W        W39370   6.012  13.298  27.857
38506W        W39371   4.166  13.903  28.292
38507W        W39372   4.757  13.886  29.015
38508W        W39373   4.608  11.683  26.029
38509W        W39374   6.125  11.825  26.354
38510W        W39375   6.083  13.933  28.591
38511W        W39376   4.768  12.525  27.190
38512W        W39377   4.423  14.223  28.055
38513W        W39378   7.168  14.340  25.656
38514W        W39379   4.031  13.012  28.652
38515W        W39380   6.026  13.274  27.340
38516W        W39381   4.462  12.923  26.582
38517W        W39382   4.833  13.930  27.977
38518W        W39383   5.211  11.349  27.018
38519W        W39384   3.822  13.333  25.948
38520W        W39385   5.341  12.284  25.818
38521W        W39386   3.987  12.833  26.837
38522W        W39387   5.277  11.475  28.301
38523W        W39388   6.949  11.184  25.728
38524W        W39389   7.042  12.930  28.827
38525W        W39390   5.696  14.187  28.979
38526W        W39391   7.254  13.281  28.501
38527W        W39392   6.662  14.079  29.112
38528W        W39393   4.401  14.535  27.590
38529W        W39394   7.260  13.157  26.464
38530W        W39395   5.790  12.424  26.977
38531W        W39396   5.557  11.036  26.867
38532W        W39397   4.616  14.020  26.704
38533W        W39398   5.115  11.761  27.929
38534W        W39399   4.815  11.130  27.398
38535W        W39400   3.878  13.952  25.946
38536W        W39401   5.694  13.316  26.664
38537W        W39402   4.569  14.111  28.543
38538W        W39403   4.046  12.934  26.239
38539W        W39404   3.931  11.477  27.238
38540W        W39405   5.479  13.442  27.295
38541W        W39406   3.731  11.296  26.315
38542W        W39407   6.395  12.502  28.242
38543W        W39408   6.272  11.888  25.814
38544W        W39409   6.789  13.560  27.462
38545W        W39410   5.450  14.044  27.293
38546W        W39411   4.862  14.148  26.204
38547W        W39412   6.144  11.051  25.634
38548W        W39413   3.944  14.311  27.375
38549W        W39414   6.141  12.069  29.010
38550W        W39415   4.124  11.599  29.009
38551W        W39416   3.855  12.199  26.342
38552W        W39417   4.546  12.188  26.067
38553W        W39418   6.309  12.515  28.884
38554W        W39419   4.652  12.796  27.593
38555W        W39420   6.126  11.082  26.713
38556W        W39421   5.257  14.513  27.216
38557W        W39422   6.471  13.975  28.153
38558W        W39423   6.055  14.124  27.264
38559W        W39424   6.074  13.104  26.858
38560W        W39425   5.536  11.329  25.929
38561W        W39426   7.217  10.957  26.651
38562W        W39427   4.905  12.592  25.814
38563W        W39428   7.071  11.929  26.804
38564W        W39429   5.763  13.099  25.681
38565W        W39430   6.699  13.299  28.429
38566W        W39431   6.353  14.000  25.896
38567W        W39432   4.968  11.675  28.802
38568W        W39433   4.788  12.259  28.043
38569W        W39434   6.880  13.754  28.320
38570W        W39435   5.980  11.704  28.697
38571W        W39436   3.824  12.175  28.474
38572W        W39437   5.584  12.652  28.200
38573W        W39438   3.941  13.410  26.857
38574W        W39439   4.088  12.707  27.747
38575W        W39440   6.405  12.993  28.097
38576W        W39441   6.177  14.373  28.908
38577W        W39442   6.073  12.112  28.461
38578W        W39443   6.350  14.166  26.866
38579W        W39444   5.352  13.886  28.189
38580W        W39445   4.837  14.241  27.458
38581W        W39446   6.642  13.412  27.877
38582W        W39447   5.692  13.484  29.014
38583W        W39448   4.297  13.437  27.353
38584W        W39449   6.643  13.196  26.998
38585W        W39450   6.284  14.262  27.749
38586W        W39451   4.262  13.991  27.619
38587W        W39452   5.283  12.043  28.829
38588W        W39453   5.734  14.209  26.340
38589W        W39454   5.042  13.464  28.978
38590W        W39455   5.168  13.702  26.355
38591W        W39456   4.389  12.442  25.614
38592W        W39457   3.728  18.172   3.359
38593W        W39458   4.104  17.065   2.882
38594W        W39459   6.809  16.795   0.652
38595W        W39460   6.939  17.880   2.679
38596W        W39461   4.857  17.871   0.205
38597W        W39462   4.940  16.023   1.188
38598W        W39463   4.455  15.871   1.352
38599W        W39464   5.446  16.686   0.786
38600W        W39465   5.121  17.778   3.141
38601W        W39466   3.770  15.339   3.104
38602W        W39467   4.532  14.619   2.906
38603W        W39468   6.226  15.007   1.793
38604W        W39469   5.875  15.878   0.363
38605W        W39470   6.445  15.312   3.454
38606W        W39471   3.811  15.104   2.579
38607W        W39472   3.910  17.723   3.600
38608W        W39473   5.432  17.113   0.332
38609W        W39474   3.864  15.896   2.025
38610W        W39475   4.757  15.787   3.262
38611W        W39476   7.216  15.646   1.761
38612W        W39477   6.980  16.689   2.620
38613W        W39478   5.288  16.022   1.647
38614W        W39479   5.834  17.361   2.016
38615W        W39480   4.334  16.795   2.248
38616W        W39481   3.693  16.323   1.819
38617W        W39482   4.729  16.295   3.011
38618W        W39483   7.000  16.078   3.265
38619W        W39484   4.616  17.522   1.710
38620W        W39485   5.737  17.211   2.844
38621W        W39486   4.957  15.851   2.069
38622W        W39487   5.249  16.635   1.712
38623W        W39488   6.246  17.408   3.560
38624W        W39489   5.325  16.728   3.570
38625W        W39490   5.306  16.444   3.048
38626W        W39491   3.715  15.835   3.570
38627W        W39492   6.547  17.370   3.169
38628W        W39493   4.128  14.952   1.167
38629W        W39494   4.655  17.210   2.166
38630W        W39495   7.118  16.993   1.456
38631W        W39496   6.531  15.393   2.023
38632W        W39497   6.816  15.346   0.118
38633W        W39498   7.281  16.147   2.424
38634W        W39499   5.248  17.854   2.177
38635W        W39500   7.022  17.320   0.615
38636W        W39501   4.151  18.106   0.369
38637W        W39502   4.544  18.152   1.045
38638W        W39503   4.341  14.906   2.471
38639W        W39504   6.964  15.924   2.746
38640W        W39505   6.369  16.346   1.205
38641W        W39506   6.335  16.034   0.232
38642W        W39507   5.543  17.178   2.372
38643W        W39508   5.349  15.508   1.571
38644W        W39509   5.949  17.595   2.565
38645W        W39510   6.820  16.386   0.987
38646W        W39511   5.722  15.044   1.003
38647W        W39512   4.379  17.738   0.686
38648W        W39513   3.750  15.237   1.285
38649W        W39514   6.536  15.844   1.759
38650W        W39515   3.994  17.461   1.674
38651W        W39516   5.335  17.811   0.544
38652W        W39517   6.727  15.837   0.008
38653W        W39518   3.750  17.595   2.172
38654W        W39519   4.541  17.167   2.652
38655W        W39520   4.914  16.527   1.271
38656W        W39521   4.936  14.932   2.364
38657W        W39522   7.165  14.694   1.661
38658W        W39523   4.384  16.566   0.129
38659W        W39524   4.039  15.599   0.308
38660W        W39525   4.101  17.555   1.102
38661W        W39526   5.232  17.038   1.350
38662W        W39527   6.564  17.897   3.064
38663W        W39528   5.490  15.539   0.748
38664W        W39529   6.873  17.937   1.520
38665W        W39530   6.550  15.790   3.118
38666W        W39531   7.263  17.446   1.252
38667W        W39532   5.890  16.738   2.736
38668W        W39533   3.656  16.289   0.942
38669W        W39534   4.767  16.704   2.515
38670W        W39535   5.971  15.968   0.893
38671W        W39536   5.848  16.458   0.997
38672W        W39537   4.191  15.878   2.471
38673W        W39538   4.176  15.754   3.393
38674W        W39539   4.066  14.671   1.552
38675W        W39540   5.834  15.018   2.113
38676W        W39541   5.482  15.203   3.276
38677W        W39542   5.837  15.352   0.454
38678W        W39543   7.020  17.745   3.208
38679W        W39544   5.987  14.826   3.247
38680W        W39545   7.006  17.127   3.369
38681W        W39546   6.436  15.294   2.965
38682W        W39547   6.236  15.232   1.235
38683W        W39548   6.629  16.366   3.639
38684W        W39549   4.369  17.942   1.625
38685W        W39550   5.027  15.659   0.611
38686W        W39551   4.596  14.943   3.275
38687W        W39552   6.648  15.427   0.956
38688W        W39553   7.015  15.909   0.901
38689W        W39554   4.758  18.126   3.372
38690W        W39555   4.684  14.662   0.607
38691W        W39556   7.005  15.196   1.642
38692W        W39557   7.155  17.445   0.087
38693W        W39558   4.062  16.648   1.789
38694W        W39559   5.979  15.235   0.019
38695W        W39560   7.113  17.567   1.739
38696W        W39561   7.152  14.761   2.489
38697W        W39562   5.597  15.973   3.043
38698W        W39563   5.690  17.312   0.746
38699W        W39564   6.090  16.606   3.486
38700W        W39565   5.764  14.583   1.795
38701W        W39566   4.376  15.486   1.858
38702W        W39567   3.930  16.686   2.632
38703W        W39568   5.789  17.879   1.338
38704W        W39569   6.983  15.476   2.210
38705W        W39570   5.620  17.823   2.977
38706W        W39571   6.963  16.882   0.182
38707W        W39572   5.398  16.365   1.243
38708W        W39573   7.250  14.876   2.984
38709W        W39574   5.399  16.711   2.578
38710W        W39575   5.616  15.597   2.023
38711W        W39576   6.468  15.895   0.861
38712W        W39577   6.755  15.628   0.503
38713W        W39578   6.564  17.668   0.892
38714W        W39579   6.398  17.271   1.688
38715W        W39580   6.294  16.350   0.666
38716W        W39581   5.727  16.560   1.652
38717W        W39582   6.608  16.348   1.719
38718W        W39583   3.983  15.363   2.143
38719W        W39584   6.761  16.415   2.970
38720W        W39585   7.112  18.033   2.116
38721W        W39586   5.042  17.477   1.518
38722W        W39587   6.049  18.010   2.842
38723W        W39588   6.043  15.340   2.606
38724W        W39589   5.250  18.048   2.667
38725W        W39590   6.947  15.002   1.133
38726W        W39591   6.738  16.321   2.434
38727W        W39592   3.721  15.642   2.472
38728W        W39593   6.581  15.437   1.490
38729W        W39594   6.992  15.588   3.267
38730W        W39595   5.877  17.287   1.485
38731W        W39596   5.133  17.878   1.098
38732W        W39597   4.248  15.058   0.356
38733W        W39598   5.352  14.712   2.166
38734W        W39599   4.380  17.832   0.014
38735W        W39600   4.754  16.298   0.765
38736W        W39601   5.408  16.927   3.078
38737W        W39602   5.238  15.285   1.068
38738W        W39603   6.594  14.882   1.496
38739W        W39604   6.314  18.164   1.824
38740W        W39605   5.726  17.812   2.164
38741W        W39606   5.122  16.849   2.125
38742W        W39607   6.892  17.572   2.251
38743W        W39608   4.586  15.075   1.020
38744W        W39609   5.108  17.372   1.980
38745W        W39610   4.591  15.303   0.045
38746W        W39611   5.392  15.912   2.439
38747W        W39612   6.240  14.778   2.309
38748W        W39613   3.660  16.621   2.194
38749W        W39614   5.364  16.439   0.352
38750W        W39615   4.632  14.754   0.122
38751W        W39616   5.370  15.835   1.173
38752W        W39617   6.340  14.811   2.872
38753W        W39618   4.928  16.823   2.981
38754W        W39619   5.732  16.605   3.198
38755W        W39620   6.349  16.635   3.091
38756W        W39621   5.633  14.775   3.596
38757W        W39622   4.855  15.391   1.989
38758W        W39623   4.281  15.347   1.387
38759W        W39624   4.067  18.059   1.063
38760W        W39625   5.399  17.389   3.188
38761W        W39626   4.434  16.874   0.547
38762W        W39627   6.114  16.259   1.768
38763W        W39628   6.394  16.058   2.167
38764W        W39629   5.599  16.732   2.101
38765W        W39630   6.069  17.106   0.233
38766W        W39631   5.741  15.127   1.561
38767W        W39632   7.220  15.405   0.829
38768W        W39633   3.714  17.994   2.860
38769W        W39634   4.131  17.220   2.392
38770W        W39635   3.698  18.066   0.624
38771W        W39636   5.597  15.336   2.430
38772W        W39637   4.960  17.359   0.279
38773W        W39638   6.865  17.741   0.465
38774W        W39639   5.840  16.394   0.479
38775W        W39640   4.683  15.585   0.996
38776W        W39641   5.515  15.495   0.048
38777W        W39642   6.099  17.060   3.226
38778W        W39643   6.452  14.966   0.843
38779W        W39644   3.782  14.814   0.291
38780W        W39645   5.068  17.133   2.581
38781W        W39646   4.867  17.049   1.673
38782W        W39647   4.609  17.001   0.071
38783W        W39648   3.850  17.242   0.839
38784W        W39649   4.354  16.312   3.281
38785W        W39650   5.058  14.872   3.467
38786W        W39651   5.767  15.014   2.823
38787W        W39652   4.962  14.782   1.104
38788W        W39653   6.021  14.859   0.609
38789W        W39654   3.966  14.791   2.186
38790W        W39655   4.014  15.754   1.556
38791W        W39656   6.703  14.862   1.962
38792W        W39657   4.125  15.360   0.776
38793W        W39658   6.696  15.048   2.392
38794W        W39659   7.092  16.251   0.077
38795W        W39660   4.384  15.009   1.896
38796W        W39661   5.498  15.581   2.836
38797W        W39662   3.646  15.271   0.314
38798W        W39663   4.432  16.660   2.875
38799W        W39664   5.790  16.058   2.054
38800W        W39665   5.657  18.137   0.350
38801W        W39666   3.803  16.644   0.047
38802W        W39667   4.538  17.055   3.173
38803W        W39668   4.059  16.222   2.804
38804W        W39669   5.050  16.327   2.598
38805W        W39670   6.818  14.686   2.860
38806W        W39671   7.216  16.296   2.851
38807W        W39672   7.204  16.496   0.537
38808W        W39673   6.067  16.828   0.636
38809W        W39674   6.541  18.128   0.331
38810W        W39675   5.718  16.118   3.473
38811W        W39676   4.048  17.085   3.513
38812W        W39677   7.254  15.007   3.465
38813W        W39678   6.972  15.935   2.086
38814W        W39679   5.280  18.065   3.563
38815W        W39680   5.135  14.694   0.290
38816W        W39681   6.674  17.293   0.233
38817W        W39682   4.443  15.386   3.119
38818W        W39683   4.877  17.380   2.981
38819W        W39684   7.003  15.371   2.779
38820W        W39685   6.214  18.030   0.747
38821W        W39686   6.453  16.649   2.114
38822W        W39687   4.703  15.065   2.781
38823W        W39688   5.172  16.134   3.538
38824W        W39689   4.675  17.313   0.732
38825W        W39690   6.430  16.811   0.996
38826W        W39691   4.198  15.437   2.720
38827W        W39692   5.527  17.499   1.184
38828W        W39693   7.277  16.059   1.365
38829W        W39694   5.499  14.692   3.084
38830W        W39695   6.279  17.397   2.163
38831W        W39696   6.582  17.741   1.871
38832W        W39697   5.801  17.543   0.299
38833W        W39698   3.811  17.435   3.141
38834W        W39699   4.554  15.427   2.379
38835W        W39700   4.524  14.775   1.489
38836W        W39701   6.145  15.617   2.181
38837W        W39702   4.943  16.788   0.381
38838W        W39703   6.941  16.730   1.880
38839W        W39704   4.268  17.488   3.303
38840W        W39705   6.655  18.170   1.100
38841W        W39706   4.754  15.190   1.545
38842W        W39707   4.523  16.683   1.635
38843W        W39708   4.836  18.094   2.385
38844W        W39709   6.903  18.190   3.417
38845W        W39710   6.062  16.378   2.350
38846W        W39711   3.911  16.176   0.265
38847W        W39712   7.045  17.834   0.962
38848W        W39713   6.882  15.158   0.581
38849W        W39714   5.021  14.677   2.984
38850W        W39715   6.727  17.479   1.442
38851W        W39716   6.756  16.035   1.347
38852W        W39717   4.873  15.708   1.563
38853W        W39718   5.118  15.970   2.887
38854W        W39719   6.229  17.123   2.750
38855W        W39720   4.879  15.577   2.862
38856W        W39721   4.858  18.043   1.478
38857W        W39722   4.175  18.002   3.112
38858W        W39723   4.287  17.363   0.242
38859W        W39724   6.804  17.121   1.052
38860W        W39725   4.408  15.913   2.938
38861W        W39726   7.181  15.843   0.419
38862W        W39727   4.926  16.900   0.890
38863W        W39728   6.025  16.282   2.971
38864W        W39729   5.916  15.910   2.515
38865W        W39730   4.476  16.282   2.544
38866W        W39731   6.686  18.170   2.373
38867W        W39732   6.477  14.804   3.367
38868W        W39733   4.141  14.954   2.954
38869W        W39734   4.480  15.977   2.007
38870W        W39735   4.849  15.791   0.129
38871W        W39736   3.652  17.550   2.674
38872W        W39737   5.237  16.259   2.117
38873W        W39738   5.060  15.284   0.222
38874W        W39739   4.195  16.100   1.003
38875W        W39740   3.966  17.952   2.440
38876W        W39741   6.761  16.178   0.548
38877W        W39742   6.856  15.094   3.234
38878W        W39743   6.292  17.303   1.197
38879W        W39744   3.890  16.227   3.374
38880W        W39745   6.856  14.691   0.670
38881W        W39746   6.376  17.166   0.681
38882W        W39747   5.278  16.224   0.766
38883W        W39748   6.465  15.028   0.289
38884W        W39749   6.530  15.635   2.475
38885W        W39750   4.239  16.228   1.682
38886W        W39751   4.533  17.167   1.331
38887W        W39752   6.296  15.787   1.296
38888W        W39753   5.319  15.166   1.992
38889W        W39754   7.281  17.077   2.503
38890W        W39755   7.199  15.064   2.064
38891W        W39756   3.738  17.894   1.440
38892W        W39757   4.247  17.081   0.976
38893W        W39758   4.162  14.698   3.529
38894W        W39759   5.281  17.551   3.631
38895W        W39760   7.036  16.519   1.421
38896W        W39761   6.390  16.696   0.301
38897W        W39762   5.685  18.217   2.513
38898W        W39763   6.542  16.939   3.550
38899W        W39764   5.357  14.649   0.830
38900W        W39765   6.070  15.518   1.689
38901W        W39766   3.756  17.105   2.021
38902W        W39767   5.009  15.067   0.662
38903W        W39768   4.813  16.551   3.511
38904W        W39769   5.807  15.532   1.225
38905W        W39770   6.012  16.942   2.347
38906W        W39771   4.166  17.547   2.782
38907W        W39772   4.757  17.530   3.505
38908W        W39773   4.608  15.327   0.519
38909W        W39774   6.125  15.469   0.844
38910W        W39775   6.083  17.577   3.081
38911W        W39776   4.768  16.169   1.680
38912W        W39777   4.423  17.867   2.545
38913W        W39778   7.168  17.984   0.146
38914W        W39779   4.031  16.656   3.142
38915W        W39780   6.026  16.918   1.830
38916W        W39781   4.462  16.567   1.072
38917W        W39782   4.833  17.574   2.467
38918W        W39783   5.211  14.993   1.508
38919W        W39784   3.822  16.977   0.438
38920W        W39785   5.341  15.928   0.308
38921W        W39786   3.987  16.477   1.327
38922W        W39787   5.277  15.119   2.791
38923W        W39788   6.949  14.828   0.218
38924W        W39789   7.042  16.574   3.317
38925W        W39790   5.696  17.831   3.469
38926W        W39791   7.254  16.925   2.991
38927W        W39792   6.662  17.723   3.602
38928W        W39793   4.401  18.179   2.080
38929W        W39794   7.260  16.801   0.954
38930W        W39795   5.790  16.068   1.467
38931W        W39796   5.557  14.680   1.357
38932W        W39797   4.616  17.664   1.194
38933W        W39798   5.115  15.405   2.419
38934W        W39799   4.815  14.774   1.888
38935W        W39800   3.878  17.596   0.436
38936W        W39801   5.694  16.960   1.154
38937W        W39802   4.569  17.755   3.033
38938W        W39803   4.046  16.578   0.729
38939W        W39804   3.931  15.121   1.728
38940W        W39805   5.479  17.086   1.785
38941W        W39806   3.731  14.940   0.805
38942W        W39807   6.395  16.146   2.732
38943W        W39808   6.272  15.532   0.304
38944W        W39809   6.789  17.204   1.952
38945W        W39810   5.450  17.688   1.783
38946W        W39811   4.862  17.792   0.694
38947W        W39812   6.144  14.695   0.124
38948W        W39813   3.944  17.955   1.865
38949W        W39814   6.141  15.713   3.500
38950W        W39815   4.124  15.243   3.499
38951W        W39816   3.855  15.843   0.832
38952W        W39817   4.546  15.832   0.557
38953W        W39818   6.309  16.159   3.374
38954W        W39819   4.652  16.440   2.083
38955W        W39820   6.126  14.726   1.203
38956W        W39821   5.257  18.157   1.706
38957W        W39822   6.471  17.619   2.643
38958W        W39823   6.055  17.768   1.754
38959W        W39824   6.074  16.748   1.348
38960W        W39825   5.536  14.973   0.419
38961W        W39826   7.217  14.601   1.141
38962W        W39827   4.905  16.236   0.304
38963W        W39828   7.071  15.573   1.294
38964W        W39829   5.763  16.743   0.171
38965W        W39830   6.699  16.943   2.919
38966W        W39831   6.353  17.644   0.386
38967W        W39832   4.968  15.319   3.292
38968W        W39833   4.788  15.903   2.533
38969W        W39834   6.880  17.398   2.810
38970W        W39835   5.980  15.348   3.187
38971W        W39836   3.824  15.819   2.964
38972W        W39837   5.584  16.296   2.690
38973W        W39838   3.941  17.054   1.347
38974W        W39839   4.088  16.351   2.237
38975W        W39840   6.405  16.637   2.587
38976W        W39841   6.177  18.017   3.398
38977W        W39842   6.073  15.756   2.951
38978W        W39843   6.350  17.810   1.356
38979W        W39844   5.352  17.530   2.679
38980W        W39845   4.837  17.885   1.948
38981W        W39846   6.642  17.056   2.367
38982W        W39847   5.692  17.128   3.504
38983W        W39848   4.297  17.081   1.843
38984W        W39849   6.643  16.840   1.488
38985W        W39850   6.284  17.906   2.239
38986W        W39851   4.262  17.635   2.109
38987W        W39852   5.283  15.687   3.319
38988W        W39853   5.734  17.853   0.830
38989W        W39854   5.042  17.108   3.468
38990W        W39855   5.168  17.346   0.845
38991W        W39856   4.389  16.086   0.104
38992W        W39857   3.728  18.172   7.003
38993W        W39858   4.104  17.065   6.526
38994W        W39859   6.809  16.795   4.296
38995W        W39860   6.939  17.880   6.323
38996W        W39861   4.857  17.871   3.849
38997W        W39862   4.940  16.023   4.832
38998W        W39863   4.455  15.871   4.996
38999W        W39864   5.446  16.686   4.430
39000W        W39865   5.121  17.778   6.785
39001W        W39866   3.770  15.339   6.748
39002W        W39867   4.532  14.619   6.550
39003W        W39868   6.226  15.007   5.437
39004W        W39869   5.875  15.878   4.007
39005W        W39870   6.445  15.312   7.098
39006W        W39871   3.811  15.104   6.223
39007W        W39872   3.910  17.723   7.244
39008W        W39873   5.432  17.113   3.976
39009W        W39874   3.864  15.896   5.669
39010W        W39875   4.757  15.787   6.906
39011W        W39876   7.216  15.646   5.405
39012W        W39877   6.980  16.689   6.264
39013W        W39878   5.288  16.022   5.291
39014W        W39879   5.834  17.361   5.660
39015W        W39880   4.334  16.795   5.892
39016W        W39881   3.693  16.323   5.463
39017W        W39882   4.729  16.295   6.655
39018W        W39883   7.000  16.078   6.909
39019W        W39884   4.616  17.522   5.354
39020W        W39885   5.737  17.211   6.488
39021W        W39886   4.957  15.851   5.713
39022W        W39887   5.249  16.635   5.356
39023W        W39888   6.246  17.408   7.204
39024W        W39889   5.325  16.728   7.214
39025W        W39890   5.306  16.444   6.692
39026W        W39891   3.715  15.835   7.214
39027W        W39892   6.547  17.370   6.813
39028W        W39893   4.128  14.952   4.811
39029W        W39894   4.655  17.210   5.810
39030W        W39895   7.118  16.993   5.100
39031W        W39896   6.531  15.393   5.667
39032W        W39897   6.816  15.346   3.762
39033W        W39898   7.281  16.147   6.068
39034W        W39899   5.248  17.854   5.821
39035W        W39900   7.022  17.320   4.259
39036W        W39901   4.151  18.106   4.013
39037W        W39902   4.544  18.152   4.689
39038W        W39903   4.341  14.906   6.115
39039W        W39904   6.964  15.924   6.390
39040W        W39905   6.369  16.346   4.849
39041W        W39906   6.335  16.034   3.876
39042W        W39907   5.543  17.178   6.016
39043W        W39908   5.349  15.508   5.215
39044W        W39909   5.949  17.595   6.209
39045W        W39910   6.820  16.386   4.631
39046W        W39911   5.722  15.044   4.647
39047W        W39912   4.379  17.738   4.330
39048W        W39913   3.750  15.237   4.929
39049W        W39914   6.536  15.844   5.403
39050W        W39915   3.994  17.461   5.318
39051W        W39916   5.335  17.811   4.188
39052W        W39917   6.727  15.837   3.652
39053W        W39918   3.750  17.595   5.816
39054W        W39919   4.541  17.167   6.296
39055W        W39920   4.914  16.527   4.915
39056W        W39921   4.936  14.932   6.008
39057W        W39922   7.165  14.694   5.305
39058W        W39923   4.384  16.566   3.773
39059W        W39924   4.039  15.599   3.952
39060W        W39925   4.101  17.555   4.746
39061W        W39926   5.232  17.038   4.994
39062W        W39927   6.564  17.897   6.708
39063W        W39928   5.490  15.539   4.392
39064W        W39929   6.873  17.937   5.164
39065W        W39930   6.550  15.790   6.762
39066W        W39931   7.263  17.446   4.896
39067W        W39932   5.890  16.738   6.380
39068W        W39933   3.656  16.289   4.586
39069W        W39934   4.767  16.704   6.159
39070W        W39935   5.971  15.968   4.537
39071W        W39936   5.848  16.458   4.641
39072W        W39937   4.191  15.878   6.115
39073W        W39938   4.176  15.754   7.037
39074W        W39939   4.066  14.671   5.196
39075W        W39940   5.834  15.018   5.757
39076W        W39941   5.482  15.203   6.920
39077W        W39942   5.837  15.352   4.098
39078W        W39943   7.020  17.745   6.852
39079W        W39944   5.987  14.826   6.891
39080W        W39945   7.006  17.127   7.013
39081W        W39946   6.436  15.294   6.609
39082W        W39947   6.236  15.232   4.879
39083W        W39948   6.629  16.366   7.283
39084W        W39949   4.369  17.942   5.269
39085W        W39950   5.027  15.659   4.255
39086W        W39951   4.596  14.943   6.919
39087W        W39952   6.648  15.427   4.600
39088W        W39953   7.015  15.909   4.545
39089W        W39954   4.758  18.126   7.016
39090W        W39955   4.684  14.662   4.251
39091W        W39956   7.005  15.196   5.286
39092W        W39957   7.155  17.445   3.731
39093W        W39958   4.062  16.648   5.433
39094W        W39959   5.979  15.235   3.663
39095W        W39960   7.113  17.567   5.383
39096W        W39961   7.152  14.761   6.133
39097W        W39962   5.597  15.973   6.687
39098W        W39963   5.690  17.312   4.390
39099W        W39964   6.090  16.606   7.130
39100W        W39965   5.764  14.583   5.439
39101W        W39966   4.376  15.486   5.502
39102W        W39967   3.930  16.686   6.276
39103W        W39968   5.789  17.879   4.982
39104W        W39969   6.983  15.476   5.854
39105W        W39970   5.620  17.823   6.621
39106W        W39971   6.963  16.882   3.826
39107W        W39972   5.398  16.365   4.887
39108W        W39973   7.250  14.876   6.628
39109W        W39974   5.399  16.711   6.222
39110W        W39975   5.616  15.597   5.667
39111W        W39976   6.468  15.895   4.505
39112W        W39977   6.755  15.628   4.147
39113W        W39978   6.564  17.668   4.536
39114W        W39979   6.398  17.271   5.332
39115W        W39980   6.294  16.350   4.310
39116W        W39981   5.727  16.560   5.296
39117W        W39982   6.608  16.348   5.363
39118W        W39983   3.983  15.363   5.787
39119W        W39984   6.761  16.415   6.614
39120W        W39985   7.112  18.033   5.760
39121W        W39986   5.042  17.477   5.162
39122W        W39987   6.049  18.010   6.486
39123W        W39988   6.043  15.340   6.250
39124W        W39989   5.250  18.048   6.311
39125W        W39990   6.947  15.002   4.777
39126W        W39991   6.738  16.321   6.078
39127W        W39992   3.721  15.642   6.116
39128W        W39993   6.581  15.437   5.134
39129W        W39994   6.992  15.588   6.911
39130W        W39995   5.877  17.287   5.129
39131W        W39996   5.133  17.878   4.742
39132W        W39997   4.248  15.058   4.000
39133W        W39998   5.352  14.712   5.810
39134W        W39999   4.380  17.832   3.658
39135W        W40000   4.754  16.298   4.409
39136W        W40001   5.408  16.927   6.722
39137W        W40002   5.238  15.285   4.712
39138W        W40003   6.594  14.882   5.140
39139W        W40004   6.314  18.164   5.468
39140W        W40005   5.726  17.812   5.808
39141W        W40006   5.122  16.849   5.769
39142W        W40007   6.892  17.572   5.895
39143W        W40008   4.586  15.075   4.664
39144W        W40009   5.108  17.372   5.624
39145W        W40010   4.591  15.303   3.689
39146W        W40011   5.392  15.912   6.083
39147W        W40012   6.240  14.778   5.953
39148W        W40013   3.660  16.621   5.838
39149W        W40014   5.364  16.439   3.996
39150W        W40015   4.632  14.754   3.766
39151W        W40016   5.370  15.835   4.817
39152W        W40017   6.340  14.811   6.516
39153W        W40018   4.928  16.823   6.625
39154W        W40019   5.732  16.605   6.842
39155W        W40020   6.349  16.635   6.735
39156W        W40021   5.633  14.775   7.240
39157W        W40022   4.855  15.391   5.633
39158W        W40023   4.281  15.347   5.031
39159W        W40024   4.067  18.059   4.707
39160W        W40025   5.399  17.389   6.832
39161W        W40026   4.434  16.874   4.191
39162W        W40027   6.114  16.259   5.412
39163W        W40028   6.394  16.058   5.811
39164W        W40029   5.599  16.732   5.745
39165W        W40030   6.069  17.106   3.877
39166W        W40031   5.741  15.127   5.205
39167W        W40032   7.220  15.405   4.473
39168W        W40033   3.714  17.994   6.504
39169W        W40034   4.131  17.220   6.036
39170W        W40035   3.698  18.066   4.268
39171W        W40036   5.597  15.336   6.074
39172W        W40037   4.960  17.359   3.923
39173W        W40038   6.865  17.741   4.109
39174W        W40039   5.840  16.394   4.123
39175W        W40040   4.683  15.585   4.640
39176W        W40041   5.515  15.495   3.692
39177W        W40042   6.099  17.060   6.870
39178W        W40043   6.452  14.966   4.487
39179W        W40044   3.782  14.814   3.935
39180W        W40045   5.068  17.133   6.225
39181W        W40046   4.867  17.049   5.317
39182W        W40047   4.609  17.001   3.715
39183W        W40048   3.850  17.242   4.483
39184W        W40049   4.354  16.312   6.925
39185W        W40050   5.058  14.872   7.111
39186W        W40051   5.767  15.014   6.467
39187W        W40052   4.962  14.782   4.748
39188W        W40053   6.021  14.859   4.253
39189W        W40054   3.966  14.791   5.830
39190W        W40055   4.014  15.754   5.200
39191W        W40056   6.703  14.862   5.606
39192W        W40057   4.125  15.360   4.420
39193W        W40058   6.696  15.048   6.036
39194W        W40059   7.092  16.251   3.721
39195W        W40060   4.384  15.009   5.540
39196W        W40061   5.498  15.581   6.480
39197W        W40062   3.646  15.271   3.958
39198W        W40063   4.432  16.660   6.519
39199W        W40064   5.790  16.058   5.698
39200W        W40065   5.657  18.137   3.994
39201W        W40066   3.803  16.644   3.691
39202W        W40067   4.538  17.055   6.817
39203W        W40068   4.059  16.222   6.448
39204W        W40069   5.050  16.327   6.242
39205W        W40070   6.818  14.686   6.504
39206W        W40071   7.216  16.296   6.495
39207W        W40072   7.204  16.496   4.181
39208W        W40073   6.067  16.828   4.280
39209W        W40074   6.541  18.128   3.975
39210W        W40075   5.718  16.118   7.117
39211W        W40076   4.048  17.085   7.157
39212W        W40077   7.254  15.007   7.109
39213W        W40078   6.972  15.935   5.730
39214W        W40079   5.280  18.065   7.207
39215W        W40080   5.135  14.694   3.934
39216W        W40081   6.674  17.293   3.877
39217W        W40082   4.443  15.386   6.763
39218W        W40083   4.877  17.380   6.625
39219W        W40084   7.003  15.371   6.423
39220W        W40085   6.214  18.030   4.391
39221W        W40086   6.453  16.649   5.758
39222W        W40087   4.703  15.065   6.425
39223W        W40088   5.172  16.134   7.182
39224W        W40089   4.675  17.313   4.376
39225W        W40090   6.430  16.811   4.640
39226W        W40091   4.198  15.437   6.364
39227W        W40092   5.527  17.499   4.828
39228W        W40093   7.277  16.059   5.009
39229W        W40094   5.499  14.692   6.728
39230W        W40095   6.279  17.397   5.807
39231W        W40096   6.582  17.741   5.515
39232W        W40097   5.801  17.543   3.943
39233W        W40098   3.811  17.435   6.785
39234W        W40099   4.554  15.427   6.023
39235W        W40100   4.524  14.775   5.133
39236W        W40101   6.145  15.617   5.825
39237W        W40102   4.943  16.788   4.025
39238W        W40103   6.941  16.730   5.524
39239W        W40104   4.268  17.488   6.947
39240W        W40105   6.655  18.170   4.744
39241W        W40106   4.754  15.190   5.189
39242W        W40107   4.523  16.683   5.279
39243W        W40108   4.836  18.094   6.029
39244W        W40109   6.903  18.190   7.061
39245W        W40110   6.062  16.378   5.994
39246W        W40111   3.911  16.176   3.909
39247W        W40112   7.045  17.834   4.606
39248W        W40113   6.882  15.158   4.225
39249W        W40114   5.021  14.677   6.628
39250W        W40115   6.727  17.479   5.086
39251W        W40116   6.756  16.035   4.991
39252W        W40117   4.873  15.708   5.207
39253W        W40118   5.118  15.970   6.531
39254W        W40119   6.229  17.123   6.394
39255W        W40120   4.879  15.577   6.506
39256W        W40121   4.858  18.043   5.122
39257W        W40122   4.175  18.002   6.756
39258W        W40123   4.287  17.363   3.886
39259W        W40124   6.804  17.121   4.696
39260W        W40125   4.408  15.913   6.582
39261W        W40126   7.181  15.843   4.063
39262W        W40127   4.926  16.900   4.534
39263W        W40128   6.025  16.282   6.615
39264W        W40129   5.916  15.910   6.159
39265W        W40130   4.476  16.282   6.188
39266W        W40131   6.686  18.170   6.017
39267W        W40132   6.477  14.804   7.011
39268W        W40133   4.141  14.954   6.598
39269W        W40134   4.480  15.977   5.651
39270W        W40135   4.849  15.791   3.773
39271W        W40136   3.652  17.550   6.318
39272W        W40137   5.237  16.259   5.761
39273W        W40138   5.060  15.284   3.866
39274W        W40139   4.195  16.100   4.647
39275W        W40140   3.966  17.952   6.084
39276W        W40141   6.761  16.178   4.192
39277W        W40142   6.856  15.094   6.878
39278W        W40143   6.292  17.303   4.841
39279W        W40144   3.890  16.227   7.018
39280W        W40145   6.856  14.691   4.314
39281W        W40146   6.376  17.166   4.325
39282W        W40147   5.278  16.224   4.410
39283W        W40148   6.465  15.028   3.933
39284W        W40149   6.530  15.635   6.119
39285W        W40150   4.239  16.228   5.326
39286W        W40151   4.533  17.167   4.975
39287W        W40152   6.296  15.787   4.940
39288W        W40153   5.319  15.166   5.636
39289W        W40154   7.281  17.077   6.147
39290W        W40155   7.199  15.064   5.708
39291W        W40156   3.738  17.894   5.084
39292W        W40157   4.247  17.081   4.620
39293W        W40158   4.162  14.698   7.173
39294W        W40159   5.281  17.551   7.275
39295W        W40160   7.036  16.519   5.065
39296W        W40161   6.390  16.696   3.945
39297W        W40162   5.685  18.217   6.157
39298W        W40163   6.542  16.939   7.194
39299W        W40164   5.357  14.649   4.474
39300W        W40165   6.070  15.518   5.333
39301W        W40166   3.756  17.105   5.665
39302W        W40167   5.009  15.067   4.306
39303W        W40168   4.813  16.551   7.155
39304W        W40169   5.807  15.532   4.869
39305W        W40170   6.012  16.942   5.991
39306W        W40171   4.166  17.547   6.426
39307W        W40172   4.757  17.530   7.149
39308W        W40173   4.608  15.327   4.163
39309W        W40174   6.125  15.469   4.488
39310W        W40175   6.083  17.577   6.725
39311W        W40176   4.768  16.169   5.324
39312W        W40177   4.423  17.867   6.189
39313W        W40178   7.168  17.984   3.790
39314W        W40179   4.031  16.656   6.786
39315W        W40180   6.026  16.918   5.474
39316W        W40181   4.462  16.567   4.716
39317W        W40182   4.833  17.574   6.111
39318W        W40183   5.211  14.993   5.152
39319W        W40184   3.822  16.977   4.082
39320W        W40185   5.341  15.928   3.952
39321W        W40186   3.987  16.477   4.971
39322W        W40187   5.277  15.119   6.435
39323W        W40188   6.949  14.828   3.862
39324W        W40189   7.042  16.574   6.961
39325W        W40190   5.696  17.831   7.113
39326W        W40191   7.254  16.925   6.635
39327W        W40192   6.662  17.723   7.246
39328W        W40193   4.401  18.179   5.724
39329W        W40194   7.260  16.801   4.598
39330W        W40195   5.790  16.068   5.111
39331W        W40196   5.557  14.680   5.001
39332W        W40197   4.616  17.664   4.838
39333W        W40198   5.115  15.405   6.063
39334W        W40199   4.815  14.774   5.532
39335W        W40200   3.878  17.596   4.080
39336W        W40201   5.694  16.960   4.798
39337W        W40202   4.569  17.755   6.677
39338W        W40203   4.046  16.578   4.373
39339W        W40204   3.931  15.121   5.372
39340W        W40205   5.479  17.086   5.429
39341W        W40206   3.731  14.940   4.449
39342W        W40207   6.395  16.146   6.376
39343W        W40208   6.272  15.532   3.948
39344W        W40209   6.789  17.204   5.596
39345W        W40210   5.450  17.688   5.427
39346W        W40211   4.862  17.792   4.338
39347W        W40212   6.144  14.695   3.768
39348W        W40213   3.944  17.955   5.509
39349W        W40214   6.141  15.713   7.144
39350W        W40215   4.124  15.243   7.143
39351W        W40216   3.855  15.843   4.476
39352W        W40217   4.546  15.832   4.201
39353W        W40218   6.309  16.159   7.018
39354W        W40219   4.652  16.440   5.727
39355W        W40220   6.126  14.726   4.847
39356W        W40221   5.257  18.157   5.350
39357W        W40222   6.471  17.619   6.287
39358W        W40223   6.055  17.768   5.398
39359W        W40224   6.074  16.748   4.992
39360W        W40225   5.536  14.973   4.063
39361W        W40226   7.217  14.601   4.785
39362W        W40227   4.905  16.236   3.948
39363W        W40228   7.071  15.573   4.938
39364W        W40229   5.763  16.743   3.815
39365W        W40230   6.699  16.943   6.563
39366W        W40231   6.353  17.644   4.030
39367W        W40232   4.968  15.319   6.936
39368W        W40233   4.788  15.903   6.177
39369W        W40234   6.880  17.398   6.454
39370W        W40235   5.980  15.348   6.831
39371W        W40236   3.824  15.819   6.608
39372W        W40237   5.584  16.296   6.334
39373W        W40238   3.941  17.054   4.991
39374W        W40239   4.088  16.351   5.881
39375W        W40240   6.405  16.637   6.231
39376W        W40241   6.177  18.017   7.042
39377W        W40242   6.073  15.756   6.595
39378W        W40243   6.350  17.810   5.000
39379W        W40244   5.352  17.530   6.323
39380W        W40245   4.837  17.885   5.592
39381W        W40246   6.642  17.056   6.011
39382W        W40247   5.692  17.128   7.148
39383W        W40248   4.297  17.081   5.487
39384W        W40249   6.643  16.840   5.132
39385W        W40250   6.284  17.906   5.883
39386W        W40251   4.262  17.635   5.753
39387W        W40252   5.283  15.687   6.963
39388W        W40253   5.734  17.853   4.474
39389W        W40254   5.042  17.108   7.112
39390W        W40255   5.168  17.346   4.489
39391W        W40256   4.389  16.086   3.748
39392W        W40257   3.728  18.172  10.648
39393W        W40258   4.104  17.065  10.171
39394W        W40259   6.809  16.795   7.941
39395W        W40260   6.939  17.880   9.968
39396W        W40261   4.857  17.871   7.494
39397W        W40262   4.940  16.023   8.477
39398W        W40263   4.455  15.871   8.641
39399W        W40264   5.446  16.686   8.075
39400W        W40265   5.121  17.778  10.430
39401W        W40266   3.770  15.339  10.393
39402W        W40267   4.532  14.619  10.195
39403W        W40268   6.226  15.007   9.082
39404W        W40269   5.875  15.878   7.652
39405W        W40270   6.445  15.312  10.743
39406W        W40271   3.811  15.104   9.868
39407W        W40272   3.910  17.723  10.889
39408W        W40273   5.432  17.113   7.621
39409W        W40274   3.864  15.896   9.314
39410W        W40275   4.757  15.787  10.551
39411W        W40276   7.216  15.646   9.050
39412W        W40277   6.980  16.689   9.909
39413W        W40278   5.288  16.022   8.936
39414W        W40279   5.834  17.361   9.305
39415W        W40280   4.334  16.795   9.537
39416W        W40281   3.693  16.323   9.108
39417W        W40282   4.729  16.295  10.300
39418W        W40283   7.000  16.078  10.554
39419W        W40284   4.616  17.522   8.999
39420W        W40285   5.737  17.211  10.133
39421W        W40286   4.957  15.851   9.358
39422W        W40287   5.249  16.635   9.001
39423W        W40288   6.246  17.408  10.849
39424W        W40289   5.325  16.728  10.859
39425W        W40290   5.306  16.444  10.337
39426W        W40291   3.715  15.835  10.859
39427W        W40292   6.547  17.370  10.458
39428W        W40293   4.128  14.952   8.456
39429W        W40294   4.655  17.210   9.455
39430W        W40295   7.118  16.993   8.745
39431W        W40296   6.531  15.393   9.312
39432W        W40297   6.816  15.346   7.407
39433W        W40298   7.281  16.147   9.713
39434W        W40299   5.248  17.854   9.466
39435W        W40300   7.022  17.320   7.904
39436W        W40301   4.151  18.106   7.658
39437W        W40302   4.544  18.152   8.334
39438W        W40303   4.341  14.906   9.760
39439W        W40304   6.964  15.924  10.035
39440W        W40305   6.369  16.346   8.494
39441W        W40306   6.335  16.034   7.521
39442W        W40307   5.543  17.178   9.661
39443W        W40308   5.349  15.508   8.860
39444W        W40309   5.949  17.595   9.854
39445W        W40310   6.820  16.386   8.276
39446W        W40311   5.722  15.044   8.292
39447W        W40312   4.379  17.738   7.975
39448W        W40313   3.750  15.237   8.574
39449W        W40314   6.536  15.844   9.048
39450W        W40315   3.994  17.461   8.963
39451W        W40316   5.335  17.811   7.833
39452W        W40317   6.727  15.837   7.297
39453W        W40318   3.750  17.595   9.461
39454W        W40319   4.541  17.167   9.941
39455W        W40320   4.914  16.527   8.560
39456W        W40321   4.936  14.932   9.653
39457W        W40322   7.165  14.694   8.950
39458W        W40323   4.384  16.566   7.418
39459W        W40324   4.039  15.599   7.597
39460W        W40325   4.101  17.555   8.391
39461W        W40326   5.232  17.038   8.639
39462W        W40327   6.564  17.897  10.353
39463W        W40328   5.490  15.539   8.037
39464W        W40329   6.873  17.937   8.809
39465W        W40330   6.550  15.790  10.407
39466W        W40331   7.263  17.446   8.541
39467W        W40332   5.890  16.738  10.025
39468W        W40333   3.656  16.289   8.231
39469W        W40334   4.767  16.704   9.804
39470W        W40335   5.971  15.968   8.182
39471W        W40336   5.848  16.458   8.286
39472W        W40337   4.191  15.878   9.760
39473W        W40338   4.176  15.754  10.682
39474W        W40339   4.066  14.671   8.841
39475W        W40340   5.834  15.018   9.402
39476W        W40341   5.482  15.203  10.565
39477W        W40342   5.837  15.352   7.743
39478W        W40343   7.020  17.745  10.497
39479W        W40344   5.987  14.826  10.536
39480W        W40345   7.006  17.127  10.658
39481W        W40346   6.436  15.294  10.254
39482W        W40347   6.236  15.232   8.524
39483W        W40348   6.629  16.366  10.928
39484W        W40349   4.369  17.942   8.914
39485W        W40350   5.027  15.659   7.900
39486W        W40351   4.596  14.943  10.564
39487W        W40352   6.648  15.427   8.245
39488W        W40353   7.015  15.909   8.190
39489W        W40354   4.758  18.126  10.661
39490W        W40355   4.684  14.662   7.896
39491W        W40356   7.005  15.196   8.931
39492W        W40357   7.155  17.445   7.376
39493W        W40358   4.062  16.648   9.078
39494W        W40359   5.979  15.235   7.308
39495W        W40360   7.113  17.567   9.028
39496W        W40361   7.152  14.761   9.778
39497W        W40362   5.597  15.973  10.332
39498W        W40363   5.690  17.312   8.035
39499W        W40364   6.090  16.606  10.775
39500W        W40365   5.764  14.583   9.084
39501W        W40366   4.376  15.486   9.147
39502W        W40367   3.930  16.686   9.921
39503W        W40368   5.789  17.879   8.627
39504W        W40369   6.983  15.476   9.499
39505W        W40370   5.620  17.823  10.266
39506W        W40371   6.963  16.882   7.471
39507W        W40372   5.398  16.365   8.532
39508W        W40373   7.250  14.876  10.273
39509W        W40374   5.399  16.711   9.867
39510W        W40375   5.616  15.597   9.312
39511W        W40376   6.468  15.895   8.150
39512W        W40377   6.755  15.628   7.792
39513W        W40378   6.564  17.668   8.181
39514W        W40379   6.398  17.271   8.977
39515W        W40380   6.294  16.350   7.955
39516W        W40381   5.727  16.560   8.941
39517W        W40382   6.608  16.348   9.008
39518W        W40383   3.983  15.363   9.432
39519W        W40384   6.761  16.415  10.259
39520W        W40385   7.112  18.033   9.405
39521W        W40386   5.042  17.477   8.807
39522W        W40387   6.049  18.010  10.131
39523W        W40388   6.043  15.340   9.895
39524W        W40389   5.250  18.048   9.956
39525W        W40390   6.947  15.002   8.422
39526W        W40391   6.738  16.321   9.723
39527W        W40392   3.721  15.642   9.761
39528W        W40393   6.581  15.437   8.779
39529W        W40394   6.992  15.588  10.556
39530W        W40395   5.877  17.287   8.774
39531W        W40396   5.133  17.878   8.387
39532W        W40397   4.248  15.058   7.645
39533W        W40398   5.352  14.712   9.455
39534W        W40399   4.380  17.832   7.303
39535W        W40400   4.754  16.298   8.054
39536W        W40401   5.408  16.927  10.367
39537W        W40402   5.238  15.285   8.357
39538W        W40403   6.594  14.882   8.785
39539W        W40404   6.314  18.164   9.113
39540W        W40405   5.726  17.812   9.453
39541W        W40406   5.122  16.849   9.414
39542W        W40407   6.892  17.572   9.540
39543W        W40408   4.586  15.075   8.309
39544W        W40409   5.108  17.372   9.269
39545W        W40410   4.591  15.303   7.334
39546W        W40411   5.392  15.912   9.728
39547W        W40412   6.240  14.778   9.598
39548W        W40413   3.660  16.621   9.483
39549W        W40414   5.364  16.439   7.641
39550W        W40415   4.632  14.754   7.411
39551W        W40416   5.370  15.835   8.462
39552W        W40417   6.340  14.811  10.161
39553W        W40418   4.928  16.823  10.270
39554W        W40419   5.732  16.605  10.487
39555W        W40420   6.349  16.635  10.380
39556W        W40421   5.633  14.775  10.885
39557W        W40422   4.855  15.391   9.278
39558W        W40423   4.281  15.347   8.676
39559W        W40424   4.067  18.059   8.352
39560W        W40425   5.399  17.389  10.477
39561W        W40426   4.434  16.874   7.836
39562W        W40427   6.114  16.259   9.057
39563W        W40428   6.394  16.058   9.456
39564W        W40429   5.599  16.732   9.390
39565W        W40430   6.069  17.106   7.522
39566W        W40431   5.741  15.127   8.850
39567W        W40432   7.220  15.405   8.118
39568W        W40433   3.714  17.994  10.149
39569W        W40434   4.131  17.220   9.681
39570W        W40435   3.698  18.066   7.913
39571W        W40436   5.597  15.336   9.719
39572W        W40437   4.960  17.359   7.568
39573W        W40438   6.865  17.741   7.754
39574W        W40439   5.840  16.394   7.768
39575W        W40440   4.683  15.585   8.285
39576W        W40441   5.515  15.495   7.337
39577W        W40442   6.099  17.060  10.515
39578W        W40443   6.452  14.966   8.132
39579W        W40444   3.782  14.814   7.580
39580W        W40445   5.068  17.133   9.870
39581W        W40446   4.867  17.049   8.962
39582W        W40447   4.609  17.001   7.360
39583W        W40448   3.850  17.242   8.128
39584W        W40449   4.354  16.312  10.570
39585W        W40450   5.058  14.872  10.756
39586W        W40451   5.767  15.014  10.112
39587W        W40452   4.962  14.782   8.393
39588W        W40453   6.021  14.859   7.898
39589W        W40454   3.966  14.791   9.475
39590W        W40455   4.014  15.754   8.845
39591W        W40456   6.703  14.862   9.251
39592W        W40457   4.125  15.360   8.065
39593W        W40458   6.696  15.048   9.681
39594W        W40459   7.092  16.251   7.366
39595W        W40460   4.384  15.009   9.185
39596W        W40461   5.498  15.581  10.125
39597W        W40462   3.646  15.271   7.603
39598W        W40463   4.432  16.660  10.164
39599W        W40464   5.790  16.058   9.343
39600W        W40465   5.657  18.137   7.639
39601W        W40466   3.803  16.644   7.336
39602W        W40467   4.538  17.055  10.462
39603W        W40468   4.059  16.222  10.093
39604W        W40469   5.050  16.327   9.887
39605W        W40470   6.818  14.686  10.149
39606W        W40471   7.216  16.296  10.140
39607W        W40472   7.204  16.496   7.826
39608W        W40473   6.067  16.828   7.925
39609W        W40474   6.541  18.128   7.620
39610W        W40475   5.718  16.118  10.762
39611W        W40476   4.048  17.085  10.802
39612W        W40477   7.254  15.007  10.754
39613W        W40478   6.972  15.935   9.375
39614W        W40479   5.280  18.065  10.852
39615W        W40480   5.135  14.694   7.579
39616W        W40481   6.674  17.293   7.522
39617W        W40482   4.443  15.386  10.408
39618W        W40483   4.877  17.380  10.270
39619W        W40484   7.003  15.371  10.068
39620W        W40485   6.214  18.030   8.036
39621W        W40486   6.453  16.649   9.403
39622W        W40487   4.703  15.065  10.070
39623W        W40488   5.172  16.134  10.827
39624W        W40489   4.675  17.313   8.021
39625W        W40490   6.430  16.811   8.285
39626W        W40491   4.198  15.437  10.009
39627W        W40492   5.527  17.499   8.473
39628W        W40493   7.277  16.059   8.654
39629W        W40494   5.499  14.692  10.373
39630W        W40495   6.279  17.397   9.452
39631W        W40496   6.582  17.741   9.160
39632W        W40497   5.801  17.543   7.588
39633W        W40498   3.811  17.435  10.430
39634W        W40499   4.554  15.427   9.668
39635W        W40500   4.524  14.775   8.778
39636W        W40501   6.145  15.617   9.470
39637W        W40502   4.943  16.788   7.670
39638W        W40503   6.941  16.730   9.169
39639W        W40504   4.268  17.488  10.592
39640W        W40505   6.655  18.170   8.389
39641W        W40506   4.754  15.190   8.834
39642W        W40507   4.523  16.683   8.924
39643W        W40508   4.836  18.094   9.674
39644W        W40509   6.903  18.190  10.706
39645W        W40510   6.062  16.378   9.639
39646W        W40511   3.911  16.176   7.554
39647W        W40512   7.045  17.834   8.251
39648W        W40513   6.882  15.158   7.870
39649W        W40514   5.021  14.677  10.273
39650W        W40515   6.727  17.479   8.731
39651W        W40516   6.756  16.035   8.636
39652W        W40517   4.873  15.708   8.852
39653W        W40518   5.118  15.970  10.176
39654W        W40519   6.229  17.123  10.039
39655W        W40520   4.879  15.577  10.151
39656W        W40521   4.858  18.043   8.767
39657W        W40522   4.175  18.002  10.401
39658W        W40523   4.287  17.363   7.531
39659W        W40524   6.804  17.121   8.341
39660W        W40525   4.408  15.913  10.227
39661W        W40526   7.181  15.843   7.708
39662W        W40527   4.926  16.900   8.179
39663W        W40528   6.025  16.282  10.260
39664W        W40529   5.916  15.910   9.804
39665W        W40530   4.476  16.282   9.833
39666W        W40531   6.686  18.170   9.662
39667W        W40532   6.477  14.804  10.656
39668W        W40533   4.141  14.954  10.243
39669W        W40534   4.480  15.977   9.296
39670W        W40535   4.849  15.791   7.418
39671W        W40536   3.652  17.550   9.963
39672W        W40537   5.237  16.259   9.406
39673W        W40538   5.060  15.284   7.511
39674W        W40539   4.195  16.100   8.292
39675W        W40540   3.966  17.952   9.729
39676W        W40541   6.761  16.178   7.837
39677W        W40542   6.856  15.094  10.523
39678W        W40543   6.292  17.303   8.486
39679W        W40544   3.890  16.227  10.663
39680W        W40545   6.856  14.691   7.959
39681W        W40546   6.376  17.166   7.970
39682W        W40547   5.278  16.224   8.055
39683W        W40548   6.465  15.028   7.578
39684W        W40549   6.530  15.635   9.764
39685W        W40550   4.239  16.228   8.971
39686W        W40551   4.533  17.167   8.620
39687W        W40552   6.296  15.787   8.585
39688W        W40553   5.319  15.166   9.281
39689W        W40554   7.281  17.077   9.792
39690W        W40555   7.199  15.064   9.353
39691W        W40556   3.738  17.894   8.729
39692W        W40557   4.247  17.081   8.265
39693W        W40558   4.162  14.698  10.818
39694W        W40559   5.281  17.551  10.920
39695W        W40560   7.036  16.519   8.710
39696W        W40561   6.390  16.696   7.590
39697W        W40562   5.685  18.217   9.802
39698W        W40563   6.542  16.939  10.839
39699W        W40564   5.357  14.649   8.119
39700W        W40565   6.070  15.518   8.978
39701W        W40566   3.756  17.105   9.310
39702W        W40567   5.009  15.067   7.951
39703W        W40568   4.813  16.551  10.800
39704W        W40569   5.807  15.532   8.514
39705W        W40570   6.012  16.942   9.636
39706W        W40571   4.166  17.547  10.071
39707W        W40572   4.757  17.530  10.794
39708W        W40573   4.608  15.327   7.808
39709W        W40574   6.125  15.469   8.133
39710W        W40575   6.083  17.577  10.370
39711W        W40576   4.768  16.169   8.969
39712W        W40577   4.423  17.867   9.834
39713W        W40578   7.168  17.984   7.435
39714W        W40579   4.031  16.656  10.431
39715W        W40580   6.026  16.918   9.119
39716W        W40581   4.462  16.567   8.361
39717W        W40582   4.833  17.574   9.756
39718W        W40583   5.211  14.993   8.797
39719W        W40584   3.822  16.977   7.727
39720W        W40585   5.341  15.928   7.597
39721W        W40586   3.987  16.477   8.616
39722W        W40587   5.277  15.119  10.080
39723W        W40588   6.949  14.828   7.507
39724W        W40589   7.042  16.574  10.606
39725W        W40590   5.696  17.831  10.758
39726W        W40591   7.254  16.925  10.280
39727W        W40592   6.662  17.723  10.891
39728W        W40593   4.401  18.179   9.369
39729W        W40594   7.260  16.801   8.243
39730W        W40595   5.790  16.068   8.756
39731W        W40596   5.557  14.680   8.646
39732W        W40597   4.616  17.664   8.483
39733W        W40598   5.115  15.405   9.708
39734W        W40599   4.815  14.774   9.177
39735W        W40600   3.878  17.596   7.725
39736W        W40601   5.694  16.960   8.443
39737W        W40602   4.569  17.755  10.322
39738W        W40603   4.046  16.578   8.018
39739W        W40604   3.931  15.121   9.017
39740W        W40605   5.479  17.086   9.074
39741W        W40606   3.731  14.940   8.094
39742W        W40607   6.395  16.146  10.021
39743W        W40608   6.272  15.532   7.593
39744W        W40609   6.789  17.204   9.241
39745W        W40610   5.450  17.688   9.072
39746W        W40611   4.862  17.792   7.983
39747W        W40612   6.144  14.695   7.413
39748W        W40613   3.944  17.955   9.154
39749W        W40614   6.141  15.713  10.789
39750W        W40615   4.124  15.243  10.788
39751W        W40616   3.855  15.843   8.121
39752W        W40617   4.546  15.832   7.846
39753W        W40618   6.309  16.159  10.663
39754W        W40619   4.652  16.440   9.372
39755W        W40620   6.126  14.726   8.492
39756W        W40621   5.257  18.157   8.995
39757W        W40622   6.471  17.619   9.932
39758W        W40623   6.055  17.768   9.043
39759W        W40624   6.074  16.748   8.637
39760W        W40625   5.536  14.973   7.708
39761W        W40626   7.217  14.601   8.430
39762W        W40627   4.905  16.236   7.593
39763W        W40628   7.071  15.573   8.583
39764W        W40629   5.763  16.743   7.460
39765W        W40630   6.699  16.943  10.208
39766W        W40631   6.353  17.644   7.675
39767W        W40632   4.968  15.319  10.581
39768W        W40633   4.788  15.903   9.822
39769W        W40634   6.880  17.398  10.099
39770W        W40635   5.980  15.348  10.476
39771W        W40636   3.824  15.819  10.253
39772W        W40637   5.584  16.296   9.979
39773W        W40638   3.941  17.054   8.636
39774W        W40639   4.088  16.351   9.526
39775W        W40640   6.405  16.637   9.876
39776W        W40641   6.177  18.017  10.687
39777W        W40642   6.073  15.756  10.240
39778W        W40643   6.350  17.810   8.645
39779W        W40644   5.352  17.530   9.968
39780W        W40645   4.837  17.885   9.237
39781W        W40646   6.642  17.056   9.656
39782W        W40647   5.692  17.128  10.793
39783W        W40648   4.297  17.081   9.132
39784W        W40649   6.643  16.840   8.777
39785W        W40650   6.284  17.906   9.528
39786W        W40651   4.262  17.635   9.398
39787W        W40652   5.283  15.687  10.608
39788W        W40653   5.734  17.853   8.119
39789W        W40654   5.042  17.108  10.757
39790W        W40655   5.168  17.346   8.134
39791W        W40656   4.389  16.086   7.393
39792W        W40657   3.728  18.172  14.292
39793W        W40658   4.104  17.065  13.815
39794W        W40659   6.809  16.795  11.585
39795W        W40660   6.939  17.880  13.612
39796W        W40661   4.857  17.871  11.138
39797W        W40662   4.940  16.023  12.121
39798W        W40663   4.455  15.871  12.285
39799W        W40664   5.446  16.686  11.719
39800W        W40665   5.121  17.778  14.074
39801W        W40666   3.770  15.339  14.037
39802W        W40667   4.532  14.619  13.839
39803W        W40668   6.226  15.007  12.726
39804W        W40669   5.875  15.878  11.296
39805W        W40670   6.445  15.312  14.387
39806W        W40671   3.811  15.104  13.512
39807W        W40672   3.910  17.723  14.533
39808W        W40673   5.432  17.113  11.265
39809W        W40674   3.864  15.896  12.958
39810W        W40675   4.757  15.787  14.195
39811W        W40676   7.216  15.646  12.694
39812W        W40677   6.980  16.689  13.553
39813W        W40678   5.288  16.022  12.580
39814W        W40679   5.834  17.361  12.949
39815W        W40680   4.334  16.795  13.181
39816W        W40681   3.693  16.323  12.752
39817W        W40682   4.729  16.295  13.944
39818W        W40683   7.000  16.078  14.198
39819W        W40684   4.616  17.522  12.643
39820W        W40685   5.737  17.211  13.777
39821W        W40686   4.957  15.851  13.002
39822W        W40687   5.249  16.635  12.645
39823W        W40688   6.246  17.408  14.493
39824W        W40689   5.325  16.728  14.503
39825W        W40690   5.306  16.444  13.981
39826W        W40691   3.715  15.835  14.503
39827W        W40692   6.547  17.370  14.102
39828W        W40693   4.128  14.952  12.100
39829W        W40694   4.655  17.210  13.099
39830W        W40695   7.118  16.993  12.389
39831W        W40696   6.531  15.393  12.956
39832W        W40697   6.816  15.346  11.051
39833W        W40698   7.281  16.147  13.357
39834W        W40699   5.248  17.854  13.110
39835W        W40700   7.022  17.320  11.548
39836W        W40701   4.151  18.106  11.302
39837W        W40702   4.544  18.152  11.978
39838W        W40703   4.341  14.906  13.404
39839W        W40704   6.964  15.924  13.679
39840W        W40705   6.369  16.346  12.138
39841W        W40706   6.335  16.034  11.165
39842W        W40707   5.543  17.178  13.305
39843W        W40708   5.349  15.508  12.504
39844W        W40709   5.949  17.595  13.498
39845W        W40710   6.820  16.386  11.920
39846W        W40711   5.722  15.044  11.936
39847W        W40712   4.379  17.738  11.619
39848W        W40713   3.750  15.237  12.218
39849W        W40714   6.536  15.844  12.692
39850W        W40715   3.994  17.461  12.607
39851W        W40716   5.335  17.811  11.477
39852W        W40717   6.727  15.837  10.941
39853W        W40718   3.750  17.595  13.105
39854W        W40719   4.541  17.167  13.585
39855W        W40720   4.914  16.527  12.204
39856W        W40721   4.936  14.932  13.297
39857W        W40722   7.165  14.694  12.594
39858W        W40723   4.384  16.566  11.062
39859W        W40724   4.039  15.599  11.241
39860W        W40725   4.101  17.555  12.035
39861W        W40726   5.232  17.038  12.283
39862W        W40727   6.564  17.897  13.997
39863W        W40728   5.490  15.539  11.681
39864W        W40729   6.873  17.937  12.453
39865W        W40730   6.550  15.790  14.051
39866W        W40731   7.263  17.446  12.185
39867W        W40732   5.890  16.738  13.669
39868W        W40733   3.656  16.289  11.875
39869W        W40734   4.767  16.704  13.448
39870W        W40735   5.971  15.968  11.826
39871W        W40736   5.848  16.458  11.930
39872W        W40737   4.191  15.878  13.404
39873W        W40738   4.176  15.754  14.326
39874W        W40739   4.066  14.671  12.485
39875W        W40740   5.834  15.018  13.046
39876W        W40741   5.482  15.203  14.209
39877W        W40742   5.837  15.352  11.387
39878W        W40743   7.020  17.745  14.141
39879W        W40744   5.987  14.826  14.180
39880W        W40745   7.006  17.127  14.302
39881W        W40746   6.436  15.294  13.898
39882W        W40747   6.236  15.232  12.168
39883W        W40748   6.629  16.366  14.572
39884W        W40749   4.369  17.942  12.558
39885W        W40750   5.027  15.659  11.544
39886W        W40751   4.596  14.943  14.208
39887W        W40752   6.648  15.427  11.889
39888W        W40753   7.015  15.909  11.834
39889W        W40754   4.758  18.126  14.305
39890W        W40755   4.684  14.662  11.540
39891W        W40756   7.005  15.196  12.575
39892W        W40757   7.155  17.445  11.020
39893W        W40758   4.062  16.648  12.722
39894W        W40759   5.979  15.235  10.952
39895W        W40760   7.113  17.567  12.672
39896W        W40761   7.152  14.761  13.422
39897W        W40762   5.597  15.973  13.976
39898W        W40763   5.690  17.312  11.679
39899W        W40764   6.090  16.606  14.419
39900W        W40765   5.764  14.583  12.728
39901W        W40766   4.376  15.486  12.791
39902W        W40767   3.930  16.686  13.565
39903W        W40768   5.789  17.879  12.271
39904W        W40769   6.983  15.476  13.143
39905W        W40770   5.620  17.823  13.910
39906W        W40771   6.963  16.882  11.115
39907W        W40772   5.398  16.365  12.176
39908W        W40773   7.250  14.876  13.917
39909W        W40774   5.399  16.711  13.511
39910W        W40775   5.616  15.597  12.956
39911W        W40776   6.468  15.895  11.794
39912W        W40777   6.755  15.628  11.436
39913W        W40778   6.564  17.668  11.825
39914W        W40779   6.398  17.271  12.621
39915W        W40780   6.294  16.350  11.599
39916W        W40781   5.727  16.560  12.585
39917W        W40782   6.608  16.348  12.652
39918W        W40783   3.983  15.363  13.076
39919W        W40784   6.761  16.415  13.903
39920W        W40785   7.112  18.033  13.049
39921W        W40786   5.042  17.477  12.451
39922W        W40787   6.049  18.010  13.775
39923W        W40788   6.043  15.340  13.539
39924W        W40789   5.250  18.048  13.600
39925W        W40790   6.947  15.002  12.066
39926W        W40791   6.738  16.321  13.367
39927W        W40792   3.721  15.642  13.405
39928W        W40793   6.581  15.437  12.423
39929W        W40794   6.992  15.588  14.200
39930W        W40795   5.877  17.287  12.418
39931W        W40796   5.133  17.878  12.031
39932W        W40797   4.248  15.058  11.289
39933W        W40798   5.352  14.712  13.099
39934W        W40799   4.380  17.832  10.947
39935W        W40800   4.754  16.298  11.698
39936W        W40801   5.408  16.927  14.011
39937W        W40802   5.238  15.285  12.001
39938W        W40803   6.594  14.882  12.429
39939W        W40804   6.314  18.164  12.757
39940W        W40805   5.726  17.812  13.097
39941W        W40806   5.122  16.849  13.058
39942W        W40807   6.892  17.572  13.184
39943W        W40808   4.586  15.075  11.953
39944W        W40809   5.108  17.372  12.913
39945W        W40810   4.591  15.303  10.978
39946W        W40811   5.392  15.912  13.372
39947W        W40812   6.240  14.778  13.242
39948W        W40813   3.660  16.621  13.127
39949W        W40814   5.364  16.439  11.285
39950W        W40815   4.632  14.754  11.055
39951W        W40816   5.370  15.835  12.106
39952W        W40817   6.340  14.811  13.805
39953W        W40818   4.928  16.823  13.914
39954W        W40819   5.732  16.605  14.131
39955W        W40820   6.349  16.635  14.024
39956W        W40821   5.633  14.775  14.529
39957W        W40822   4.855  15.391  12.922
39958W        W40823   4.281  15.347  12.320
39959W        W40824   4.067  18.059  11.996
39960W        W40825   5.399  17.389  14.121
39961W        W40826   4.434  16.874  11.480
39962W        W40827   6.114  16.259  12.701
39963W        W40828   6.394  16.058  13.100
39964W        W40829   5.599  16.732  13.034
39965W        W40830   6.069  17.106  11.166
39966W        W40831   5.741  15.127  12.494
39967W        W40832   7.220  15.405  11.762
39968W        W40833   3.714  17.994  13.793
39969W        W40834   4.131  17.220  13.325
39970W        W40835   3.698  18.066  11.557
39971W        W40836   5.597  15.336  13.363
39972W        W40837   4.960  17.359  11.212
39973W        W40838   6.865  17.741  11.398
39974W        W40839   5.840  16.394  11.412
39975W        W40840   4.683  15.585  11.929
39976W        W40841   5.515  15.495  10.981
39977W        W40842   6.099  17.060  14.159
39978W        W40843   6.452  14.966  11.776
39979W        W40844   3.782  14.814  11.224
39980W        W40845   5.068  17.133  13.514
39981W        W40846   4.867  17.049  12.606
39982W        W40847   4.609  17.001  11.004
39983W        W40848   3.850  17.242  11.772
39984W        W40849   4.354  16.312  14.214
39985W        W40850   5.058  14.872  14.400
39986W        W40851   5.767  15.014  13.756
39987W        W40852   4.962  14.782  12.037
39988W        W40853   6.021  14.859  11.542
39989W        W40854   3.966  14.791  13.119
39990W        W40855   4.014  15.754  12.489
39991W        W40856   6.703  14.862  12.895
39992W        W40857   4.125  15.360  11.709
39993W        W40858   6.696  15.048  13.325
39994W        W40859   7.092  16.251  11.010
39995W        W40860   4.384  15.009  12.829
39996W        W40861   5.498  15.581  13.769
39997W        W40862   3.646  15.271  11.247
39998W        W40863   4.432  16.660  13.808
39999W        W40864   5.790  16.058  12.987
40000W        W40865   5.657  18.137  11.283
40001W        W40866   3.803  16.644  10.980
40002W        W40867   4.538  17.055  14.106
40003W        W40868   4.059  16.222  13.737
40004W        W40869   5.050  16.327  13.531
40005W        W40870   6.818  14.686  13.793
40006W        W40871   7.216  16.296  13.784
40007W        W40872   7.204  16.496  11.470
40008W        W40873   6.067  16.828  11.569
40009W        W40874   6.541  18.128  11.264
40010W        W40875   5.718  16.118  14.406
40011W        W40876   4.048  17.085  14.446
40012W        W40877   7.254  15.007  14.398
40013W        W40878   6.972  15.935  13.019
40014W        W40879   5.280  18.065  14.496
40015W        W40880   5.135  14.694  11.223
40016W        W40881   6.674  17.293  11.166
40017W        W40882   4.443  15.386  14.052
40018W        W40883   4.877  17.380  13.914
40019W        W40884   7.003  15.371  13.712
40020W        W40885   6.214  18.030  11.680
40021W        W40886   6.453  16.649  13.047
40022W        W40887   4.703  15.065  13.714
40023W        W40888   5.172  16.134  14.471
40024W        W40889   4.675  17.313  11.665
40025W        W40890   6.430  16.811  11.929
40026W        W40891   4.198  15.437  13.653
40027W        W40892   5.527  17.499  12.117
40028W        W40893   7.277  16.059  12.298
40029W        W40894   5.499  14.692  14.017
40030W        W40895   6.279  17.397  13.096
40031W        W40896   6.582  17.741  12.804
40032W        W40897   5.801  17.543  11.232
40033W        W40898   3.811  17.435  14.074
40034W        W40899   4.554  15.427  13.312
40035W        W40900   4.524  14.775  12.422
40036W        W40901   6.145  15.617  13.114
40037W        W40902   4.943  16.788  11.314
40038W        W40903   6.941  16.730  12.813
40039W        W40904   4.268  17.488  14.236
40040W        W40905   6.655  18.170  12.033
40041W        W40906   4.754  15.190  12.478
40042W        W40907   4.523  16.683  12.568
40043W        W40908   4.836  18.094  13.318
40044W        W40909   6.903  18.190  14.350
40045W        W40910   6.062  16.378  13.283
40046W        W40911   3.911  16.176  11.198
40047W        W40912   7.045  17.834  11.895
40048W        W40913   6.882  15.158  11.514
40049W        W40914   5.021  14.677  13.917
40050W        W40915   6.727  17.479  12.375
40051W        W40916   6.756  16.035  12.280
40052W        W40917   4.873  15.708  12.496
40053W        W40918   5.118  15.970  13.820
40054W        W40919   6.229  17.123  13.683
40055W        W40920   4.879  15.577  13.795
40056W        W40921   4.858  18.043  12.411
40057W        W40922   4.175  18.002  14.045
40058W        W40923   4.287  17.363  11.175
40059W        W40924   6.804  17.121  11.985
40060W        W40925   4.408  15.913  13.871
40061W        W40926   7.181  15.843  11.352
40062W        W40927   4.926  16.900  11.823
40063W        W40928   6.025  16.282  13.904
40064W        W40929   5.916  15.910  13.448
40065W        W40930   4.476  16.282  13.477
40066W        W40931   6.686  18.170  13.306
40067W        W40932   6.477  14.804  14.300
40068W        W40933   4.141  14.954  13.887
40069W        W40934   4.480  15.977  12.940
40070W        W40935   4.849  15.791  11.062
40071W        W40936   3.652  17.550  13.607
40072W        W40937   5.237  16.259  13.050
40073W        W40938   5.060  15.284  11.155
40074W        W40939   4.195  16.100  11.936
40075W        W40940   3.966  17.952  13.373
40076W        W40941   6.761  16.178  11.481
40077W        W40942   6.856  15.094  14.167
40078W        W40943   6.292  17.303  12.130
40079W        W40944   3.890  16.227  14.307
40080W        W40945   6.856  14.691  11.603
40081W        W40946   6.376  17.166  11.614
40082W        W40947   5.278  16.224  11.699
40083W        W40948   6.465  15.028  11.222
40084W        W40949   6.530  15.635  13.408
40085W        W40950   4.239  16.228  12.615
40086W        W40951   4.533  17.167  12.264
40087W        W40952   6.296  15.787  12.229
40088W        W40953   5.319  15.166  12.925
40089W        W40954   7.281  17.077  13.436
40090W        W40955   7.199  15.064  12.997
40091W        W40956   3.738  17.894  12.373
40092W        W40957   4.247  17.081  11.909
40093W        W40958   4.162  14.698  14.462
40094W        W40959   5.281  17.551  14.564
40095W        W40960   7.036  16.519  12.354
40096W        W40961   6.390  16.696  11.234
40097W        W40962   5.685  18.217  13.446
40098W        W40963   6.542  16.939  14.483
40099W        W40964   5.357  14.649  11.763
40100W        W40965   6.070  15.518  12.622
40101W        W40966   3.756  17.105  12.954
40102W        W40967   5.009  15.067  11.595
40103W        W40968   4.813  16.551  14.444
40104W        W40969   5.807  15.532  12.158
40105W        W40970   6.012  16.942  13.280
40106W        W40971   4.166  17.547  13.715
40107W        W40972   4.757  17.530  14.438
40108W        W40973   4.608  15.327  11.452
40109W        W40974   6.125  15.469  11.777
40110W        W40975   6.083  17.577  14.014
40111W        W40976   4.768  16.169  12.613
40112W        W40977   4.423  17.867  13.478
40113W        W40978   7.168  17.984  11.079
40114W        W40979   4.031  16.656  14.075
40115W        W40980   6.026  16.918  12.763
40116W        W40981   4.462  16.567  12.005
40117W        W40982   4.833  17.574  13.400
40118W        W40983   5.211  14.993  12.441
40119W        W40984   3.822  16.977  11.371
40120W        W40985   5.341  15.928  11.241
40121W        W40986   3.987  16.477  12.260
40122W        W40987   5.277  15.119  13.724
40123W        W40988   6.949  14.828  11.151
40124W        W40989   7.042  16.574  14.250
40125W        W40990   5.696  17.831  14.402
40126W        W40991   7.254  16.925  13.924
40127W        W40992   6.662  17.723  14.535
40128W        W40993   4.401  18.179  13.013
40129W        W40994   7.260  16.801  11.887
40130W        W40995   5.790  16.068  12.400
40131W        W40996   5.557  14.680  12.290
40132W        W40997   4.616  17.664  12.127
40133W        W40998   5.115  15.405  13.352
40134W        W40999   4.815  14.774  12.821
40135W        W41000   3.878  17.596  11.369
40136W        W41001   5.694  16.960  12.087
40137W        W41002   4.569  17.755  13.966
40138W        W41003   4.046  16.578  11.662
40139W        W41004   3.931  15.121  12.661
40140W        W41005   5.479  17.086  12.718
40141W        W41006   3.731  14.940  11.738
40142W        W41007   6.395  16.146  13.665
40143W        W41008   6.272  15.532  11.237
40144W        W41009   6.789  17.204  12.885
40145W        W41010   5.450  17.688  12.716
40146W        W41011   4.862  17.792  11.627
40147W        W41012   6.144  14.695  11.057
40148W        W41013   3.944  17.955  12.798
40149W        W41014   6.141  15.713  14.433
40150W        W41015   4.124  15.243  14.432
40151W        W41016   3.855  15.843  11.765
40152W        W41017   4.546  15.832  11.490
40153W        W41018   6.309  16.159  14.307
40154W        W41019   4.652  16.440  13.016
40155W        W41020   6.126  14.726  12.136
40156W        W41021   5.257  18.157  12.639
40157W        W41022   6.471  17.619  13.576
40158W        W41023   6.055  17.768  12.687
40159W        W41024   6.074  16.748  12.281
40160W        W41025   5.536  14.973  11.352
40161W        W41026   7.217  14.601  12.074
40162W        W41027   4.905  16.236  11.237
40163W        W41028   7.071  15.573  12.227
40164W        W41029   5.763  16.743  11.104
40165W        W41030   6.699  16.943  13.852
40166W        W41031   6.353  17.644  11.319
40167W        W41032   4.968  15.319  14.225
40168W        W41033   4.788  15.903  13.466
40169W        W41034   6.880  17.398  13.743
40170W        W41035   5.980  15.348  14.120
40171W        W41036   3.824  15.819  13.897
40172W        W41037   5.584  16.296  13.623
40173W        W41038   3.941  17.054  12.280
40174W        W41039   4.088  16.351  13.170
40175W        W41040   6.405  16.637  13.520
40176W        W41041   6.177  18.017  14.331
40177W        W41042   6.073  15.756  13.884
40178W        W41043   6.350  17.810  12.289
40179W        W41044   5.352  17.530  13.612
40180W        W41045   4.837  17.885  12.881
40181W        W41046   6.642  17.056  13.300
40182W        W41047   5.692  17.128  14.437
40183W        W41048   4.297  17.081  12.776
40184W        W41049   6.643  16.840  12.421
40185W        W41050   6.284  17.906  13.172
40186W        W41051   4.262  17.635  13.042
40187W        W41052   5.283  15.687  14.252
40188W        W41053   5.734  17.853  11.763
40189W        W41054   5.042  17.108  14.401
40190W        W41055   5.168  17.346  11.778
40191W        W41056   4.389  16.086  11.037
40192W        W41057   3.728  18.172  17.936
40193W        W41058   4.104  17.065  17.459
40194W        W41059   6.809  16.795  15.229
40195W        W41060   6.939  17.880  17.256
40196W        W41061   4.857  17.871  14.782
40197W        W41062   4.940  16.023  15.765
40198W        W41063   4.455  15.871  15.929
40199W        W41064   5.446  16.686  15.363
40200W        W41065   5.121  17.778  17.718
40201W        W41066   3.770  15.339  17.681
40202W        W41067   4.532  14.619  17.483
40203W        W41068   6.226  15.007  16.370
40204W        W41069   5.875  15.878  14.940
40205W        W41070   6.445  15.312  18.031
40206W        W41071   3.811  15.104  17.156
40207W        W41072   3.910  17.723  18.177
40208W        W41073   5.432  17.113  14.909
40209W        W41074   3.864  15.896  16.602
40210W        W41075   4.757  15.787  17.839
40211W        W41076   7.216  15.646  16.338
40212W        W41077   6.980  16.689  17.197
40213W        W41078   5.288  16.022  16.224
40214W        W41079   5.834  17.361  16.593
40215W        W41080   4.334  16.795  16.825
40216W        W41081   3.693  16.323  16.396
40217W        W41082   4.729  16.295  17.588
40218W        W41083   7.000  16.078  17.842
40219W        W41084   4.616  17.522  16.287
40220W        W41085   5.737  17.211  17.421
40221W        W41086   4.957  15.851  16.646
40222W        W41087   5.249  16.635  16.289
40223W        W41088   6.246  17.408  18.137
40224W        W41089   5.325  16.728  18.147
40225W        W41090   5.306  16.444  17.625
40226W        W41091   3.715  15.835  18.147
40227W        W41092   6.547  17.370  17.746
40228W        W41093   4.128  14.952  15.744
40229W        W41094   4.655  17.210  16.743
40230W        W41095   7.118  16.993  16.033
40231W        W41096   6.531  15.393  16.600
40232W        W41097   6.816  15.346  14.695
40233W        W41098   7.281  16.147  17.001
40234W        W41099   5.248  17.854  16.754
40235W        W41100   7.022  17.320  15.192
40236W        W41101   4.151  18.106  14.946
40237W        W41102   4.544  18.152  15.622
40238W        W41103   4.341  14.906  17.048
40239W        W41104   6.964  15.924  17.323
40240W        W41105   6.369  16.346  15.782
40241W        W41106   6.335  16.034  14.809
40242W        W41107   5.543  17.178  16.949
40243W        W41108   5.349  15.508  16.148
40244W        W41109   5.949  17.595  17.142
40245W        W41110   6.820  16.386  15.564
40246W        W41111   5.722  15.044  15.580
40247W        W41112   4.379  17.738  15.263
40248W        W41113   3.750  15.237  15.862
40249W        W41114   6.536  15.844  16.336
40250W        W41115   3.994  17.461  16.251
40251W        W41116   5.335  17.811  15.121
40252W        W41117   6.727  15.837  14.585
40253W        W41118   3.750  17.595  16.749
40254W        W41119   4.541  17.167  17.229
40255W        W41120   4.914  16.527  15.848
40256W        W41121   4.936  14.932  16.941
40257W        W41122   7.165  14.694  16.238
40258W        W41123   4.384  16.566  14.706
40259W        W41124   4.039  15.599  14.885
40260W        W41125   4.101  17.555  15.679
40261W        W41126   5.232  17.038  15.927
40262W        W41127   6.564  17.897  17.641
40263W        W41128   5.490  15.539  15.325
40264W        W41129   6.873  17.937  16.097
40265W        W41130   6.550  15.790  17.695
40266W        W41131   7.263  17.446  15.829
40267W        W41132   5.890  16.738  17.313
40268W        W41133   3.656  16.289  15.519
40269W        W41134   4.767  16.704  17.092
40270W        W41135   5.971  15.968  15.470
40271W        W41136   5.848  16.458  15.574
40272W        W41137   4.191  15.878  17.048
40273W        W41138   4.176  15.754  17.970
40274W        W41139   4.066  14.671  16.129
40275W        W41140   5.834  15.018  16.690
40276W        W41141   5.482  15.203  17.853
40277W        W41142   5.837  15.352  15.031
40278W        W41143   7.020  17.745  17.785
40279W        W41144   5.987  14.826  17.824
40280W        W41145   7.006  17.127  17.946
40281W        W41146   6.436  15.294  17.542
40282W        W41147   6.236  15.232  15.812
40283W        W41148   6.629  16.366  18.216
40284W        W41149   4.369  17.942  16.202
40285W        W41150   5.027  15.659  15.188
40286W        W41151   4.596  14.943  17.852
40287W        W41152   6.648  15.427  15.533
40288W        W41153   7.015  15.909  15.478
40289W        W41154   4.758  18.126  17.949
40290W        W41155   4.684  14.662  15.184
40291W        W41156   7.005  15.196  16.219
40292W        W41157   7.155  17.445  14.664
40293W        W41158   4.062  16.648  16.366
40294W        W41159   5.979  15.235  14.596
40295W        W41160   7.113  17.567  16.316
40296W        W41161   7.152  14.761  17.066
40297W        W41162   5.597  15.973  17.620
40298W        W41163   5.690  17.312  15.323
40299W        W41164   6.090  16.606  18.063
40300W        W41165   5.764  14.583  16.372
40301W        W41166   4.376  15.486  16.435
40302W        W41167   3.930  16.686  17.209
40303W        W41168   5.789  17.879  15.915
40304W        W41169   6.983  15.476  16.787
40305W        W41170   5.620  17.823  17.554
40306W        W41171   5.398  16.365  15.820
40307W        W41172   7.250  14.876  17.561
40308W        W41173   5.399  16.711  17.155
40309W        W41174   5.616  15.597  16.600
40310W        W41175   6.468  15.895  15.438
40311W        W41176   6.755  15.628  15.080
40312W        W41177   6.564  17.668  15.469
40313W        W41178   6.398  17.271  16.265
40314W        W41179   6.294  16.350  15.243
40315W        W41180   5.727  16.560  16.229
40316W        W41181   6.608  16.348  16.296
40317W        W41182   3.983  15.363  16.720
40318W        W41183   6.761  16.415  17.547
40319W        W41184   7.112  18.033  16.693
40320W        W41185   5.042  17.477  16.095
40321W        W41186   6.049  18.010  17.419
40322W        W41187   6.043  15.340  17.183
40323W        W41188   5.250  18.048  17.244
40324W        W41189   6.947  15.002  15.710
40325W        W41190   6.738  16.321  17.011
40326W        W41191   3.721  15.642  17.049
40327W        W41192   6.581  15.437  16.067
40328W        W41193   6.992  15.588  17.844
40329W        W41194   5.877  17.287  16.062
40330W        W41195   5.133  17.878  15.675
40331W        W41196   4.248  15.058  14.933
40332W        W41197   5.352  14.712  16.743
40333W        W41198   4.380  17.832  14.591
40334W        W41199   4.754  16.298  15.342
40335W        W41200   5.408  16.927  17.655
40336W        W41201   5.238  15.285  15.645
40337W        W41202   6.594  14.882  16.073
40338W        W41203   6.314  18.164  16.401
40339W        W41204   5.726  17.812  16.741
40340W        W41205   5.122  16.849  16.702
40341W        W41206   6.892  17.572  16.828
40342W        W41207   4.586  15.075  15.597
40343W        W41208   5.108  17.372  16.557
40344W        W41209   4.591  15.303  14.622
40345W        W41210   5.392  15.912  17.016
40346W        W41211   6.240  14.778  16.886
40347W        W41212   3.660  16.621  16.771
40348W        W41213   5.364  16.439  14.929
40349W        W41214   4.632  14.754  14.699
40350W        W41215   5.370  15.835  15.750
40351W        W41216   6.340  14.811  17.449
40352W        W41217   4.928  16.823  17.558
40353W        W41218   5.732  16.605  17.775
40354W        W41219   6.349  16.635  17.668
40355W        W41220   5.633  14.775  18.173
40356W        W41221   4.855  15.391  16.566
40357W        W41222   4.281  15.347  15.964
40358W        W41223   4.067  18.059  15.640
40359W        W41224   5.399  17.389  17.765
40360W        W41225   4.434  16.874  15.124
40361W        W41226   6.114  16.259  16.345
40362W        W41227   6.394  16.058  16.744
40363W        W41228   5.599  16.732  16.678
40364W        W41229   6.069  17.106  14.810
40365W        W41230   5.741  15.127  16.138
40366W        W41231   7.220  15.405  15.406
40367W        W41232   3.714  17.994  17.437
40368W        W41233   4.131  17.220  16.969
40369W        W41234   3.698  18.066  15.201
40370W        W41235   5.597  15.336  17.007
40371W        W41236   4.960  17.359  14.856
40372W        W41237   6.865  17.741  15.042
40373W        W41238   5.840  16.394  15.056
40374W        W41239   4.683  15.585  15.573
40375W        W41240   5.515  15.495  14.625
40376W        W41241   6.099  17.060  17.803
40377W        W41242   6.452  14.966  15.420
40378W        W41243   3.782  14.814  14.868
40379W        W41244   5.068  17.133  17.158
40380W        W41245   4.867  17.049  16.250
40381W        W41246   4.609  17.001  14.648
40382W        W41247   3.850  17.242  15.416
40383W        W41248   4.354  16.312  17.858
40384W        W41249   5.058  14.872  18.044
40385W        W41250   5.767  15.014  17.400
40386W        W41251   4.962  14.782  15.681
40387W        W41252   6.021  14.859  15.186
40388W        W41253   3.966  14.791  16.763
40389W        W41254   4.014  15.754  16.133
40390W        W41255   6.703  14.862  16.539
40391W        W41256   4.125  15.360  15.353
40392W        W41257   6.696  15.048  16.969
40393W        W41258   7.092  16.251  14.654
40394W        W41259   4.384  15.009  16.473
40395W        W41260   5.498  15.581  17.413
40396W        W41261   3.646  15.271  14.891
40397W        W41262   4.432  16.660  17.452
40398W        W41263   5.790  16.058  16.631
40399W        W41264   5.657  18.137  14.927
40400W        W41265   3.803  16.644  14.624
40401W        W41266   4.538  17.055  17.750
40402W        W41267   4.059  16.222  17.381
40403W        W41268   5.050  16.327  17.175
40404W        W41269   6.818  14.686  17.437
40405W        W41270   7.216  16.296  17.428
40406W        W41271   7.204  16.496  15.114
40407W        W41272   6.067  16.828  15.213
40408W        W41273   6.541  18.128  14.908
40409W        W41274   5.718  16.118  18.050
40410W        W41275   4.048  17.085  18.090
40411W        W41276   7.254  15.007  18.042
40412W        W41277   6.972  15.935  16.663
40413W        W41278   5.280  18.065  18.140
40414W        W41279   5.135  14.694  14.867
40415W        W41280   6.674  17.293  14.810
40416W        W41281   4.443  15.386  17.696
40417W        W41282   4.877  17.380  17.558
40418W        W41283   7.003  15.371  17.356
40419W        W41284   6.214  18.030  15.324
40420W        W41285   6.453  16.649  16.691
40421W        W41286   4.703  15.065  17.358
40422W        W41287   5.172  16.134  18.115
40423W        W41288   4.675  17.313  15.309
40424W        W41289   6.430  16.811  15.573
40425W        W41290   4.198  15.437  17.297
40426W        W41291   5.527  17.499  15.761
40427W        W41292   7.277  16.059  15.942
40428W        W41293   5.499  14.692  17.661
40429W        W41294   6.279  17.397  16.740
40430W        W41295   6.582  17.741  16.448
40431W        W41296   5.801  17.543  14.876
40432W        W41297   3.811  17.435  17.718
40433W        W41298   4.554  15.427  16.956
40434W        W41299   4.524  14.775  16.066
40435W        W41300   6.145  15.617  16.758
40436W        W41301   4.943  16.788  14.958
40437W        W41302   6.941  16.730  16.457
40438W        W41303   4.268  17.488  17.880
40439W        W41304   6.655  18.170  15.677
40440W        W41305   4.754  15.190  16.122
40441W        W41306   4.523  16.683  16.212
40442W        W41307   4.836  18.094  16.962
40443W        W41308   6.903  18.190  17.994
40444W        W41309   6.062  16.378  16.927
40445W        W41310   3.911  16.176  14.842
40446W        W41311   7.045  17.834  15.539
40447W        W41312   6.882  15.158  15.158
40448W        W41313   5.021  14.677  17.561
40449W        W41314   6.727  17.479  16.019
40450W        W41315   6.756  16.035  15.924
40451W        W41316   4.873  15.708  16.140
40452W        W41317   5.118  15.970  17.464
40453W        W41318   6.229  17.123  17.327
40454W        W41319   4.879  15.577  17.439
40455W        W41320   4.858  18.043  16.055
40456W        W41321   4.175  18.002  17.689
40457W        W41322   4.287  17.363  14.819
40458W        W41323   6.804  17.121  15.629
40459W        W41324   4.408  15.913  17.515
40460W        W41325   7.181  15.843  14.996
40461W        W41326   4.926  16.900  15.467
40462W        W41327   6.025  16.282  17.548
40463W        W41328   5.916  15.910  17.092
40464W        W41329   4.476  16.282  17.121
40465W        W41330   6.686  18.170  16.950
40466W        W41331   6.477  14.804  17.944
40467W        W41332   4.141  14.954  17.531
40468W        W41333   4.480  15.977  16.584
40469W        W41334   4.849  15.791  14.706
40470W        W41335   3.652  17.550  17.251
40471W        W41336   5.237  16.259  16.694
40472W        W41337   5.060  15.284  14.799
40473W        W41338   4.195  16.100  15.580
40474W        W41339   3.966  17.952  17.017
40475W        W41340   6.761  16.178  15.125
40476W        W41341   6.856  15.094  17.811
40477W        W41342   6.292  17.303  15.774
40478W        W41343   3.890  16.227  17.951
40479W        W41344   6.856  14.691  15.247
40480W        W41345   6.376  17.166  15.258
40481W        W41346   5.278  16.224  15.343
40482W        W41347   6.465  15.028  14.866
40483W        W41348   6.530  15.635  17.052
40484W        W41349   4.239  16.228  16.259
40485W        W41350   4.533  17.167  15.908
40486W        W41351   6.296  15.787  15.873
40487W        W41352   5.319  15.166  16.569
40488W        W41353   7.281  17.077  17.080
40489W        W41354   7.199  15.064  16.641
40490W        W41355   3.738  17.894  16.017
40491W        W41356   4.247  17.081  15.553
40492W        W41357   4.162  14.698  18.106
40493W        W41358   5.281  17.551  18.208
40494W        W41359   7.036  16.519  15.998
40495W        W41360   6.390  16.696  14.878
40496W        W41361   5.685  18.217  17.090
40497W        W41362   6.542  16.939  18.127
40498W        W41363   5.357  14.649  15.407
40499W        W41364   6.070  15.518  16.266
40500W        W41365   3.756  17.105  16.598
40501W        W41366   5.009  15.067  15.239
40502W        W41367   4.813  16.551  18.088
40503W        W41368   5.807  15.532  15.802
40504W        W41369   6.012  16.942  16.924
40505W        W41370   4.166  17.547  17.359
40506W        W41371   4.757  17.530  18.082
40507W        W41372   4.608  15.327  15.096
40508W        W41373   6.125  15.469  15.421
40509W        W41374   6.083  17.577  17.658
40510W        W41375   4.768  16.169  16.257
40511W        W41376   4.423  17.867  17.122
40512W        W41377   7.168  17.984  14.723
40513W        W41378   4.031  16.656  17.719
40514W        W41379   6.026  16.918  16.407
40515W        W41380   4.462  16.567  15.649
40516W        W41381   4.833  17.574  17.044
40517W        W41382   5.211  14.993  16.085
40518W        W41383   3.822  16.977  15.015
40519W        W41384   5.341  15.928  14.885
40520W        W41385   3.987  16.477  15.904
40521W        W41386   5.277  15.119  17.368
40522W        W41387   6.949  14.828  14.795
40523W        W41388   7.042  16.574  17.894
40524W        W41389   5.696  17.831  18.046
40525W        W41390   7.254  16.925  17.568
40526W        W41391   6.662  17.723  18.179
40527W        W41392   4.401  18.179  16.657
40528W        W41393   7.260  16.801  15.531
40529W        W41394   5.790  16.068  16.044
40530W        W41395   5.557  14.680  15.934
40531W        W41396   4.616  17.664  15.771
40532W        W41397   5.115  15.405  16.996
40533W        W41398   4.815  14.774  16.465
40534W        W41399   3.878  17.596  15.013
40535W        W41400   5.694  16.960  15.731
40536W        W41401   4.569  17.755  17.610
40537W        W41402   4.046  16.578  15.306
40538W        W41403   3.931  15.121  16.305
40539W        W41404   5.479  17.086  16.362
40540W        W41405   3.731  14.940  15.382
40541W        W41406   6.395  16.146  17.309
40542W        W41407   6.272  15.532  14.881
40543W        W41408   6.789  17.204  16.529
40544W        W41409   5.450  17.688  16.360
40545W        W41410   4.862  17.792  15.271
40546W        W41411   6.144  14.695  14.701
40547W        W41412   3.944  17.955  16.442
40548W        W41413   6.141  15.713  18.077
40549W        W41414   4.124  15.243  18.076
40550W        W41415   3.855  15.843  15.409
40551W        W41416   4.546  15.832  15.134
40552W        W41417   6.309  16.159  17.951
40553W        W41418   4.652  16.440  16.660
40554W        W41419   6.126  14.726  15.780
40555W        W41420   5.257  18.157  16.283
40556W        W41421   6.471  17.619  17.220
40557W        W41422   6.055  17.768  16.331
40558W        W41423   6.074  16.748  15.925
40559W        W41424   5.536  14.973  14.996
40560W        W41425   7.217  14.601  15.718
40561W        W41426   4.905  16.236  14.881
40562W        W41427   7.071  15.573  15.871
40563W        W41428   5.763  16.743  14.748
40564W        W41429   6.699  16.943  17.496
40565W        W41430   6.353  17.644  14.963
40566W        W41431   4.968  15.319  17.869
40567W        W41432   4.788  15.903  17.110
40568W        W41433   6.880  17.398  17.387
40569W        W41434   5.980  15.348  17.764
40570W        W41435   3.824  15.819  17.541
40571W        W41436   5.584  16.296  17.267
40572W        W41437   3.941  17.054  15.924
40573W        W41438   4.088  16.351  16.814
40574W        W41439   6.405  16.637  17.164
40575W        W41440   6.177  18.017  17.975
40576W        W41441   6.073  15.756  17.528
40577W        W41442   6.350  17.810  15.933
40578W        W41443   5.352  17.530  17.256
40579W        W41444   4.837  17.885  16.525
40580W        W41445   6.642  17.056  16.944
40581W        W41446   5.692  17.128  18.081
40582W        W41447   4.297  17.081  16.420
40583W        W41448   6.643  16.840  16.065
40584W        W41449   6.284  17.906  16.816
40585W        W41450   4.262  17.635  16.686
40586W        W41451   5.283  15.687  17.896
40587W        W41452   5.734  17.853  15.407
40588W        W41453   5.042  17.108  18.045
40589W        W41454   5.168  17.346  15.422
40590W        W41455   4.389  16.086  14.681
40591W        W41456   3.728  18.172  21.580
40592W        W41457   4.104  17.065  21.103
40593W        W41458   6.809  16.795  18.873
40594W        W41459   6.939  17.880  20.900
40595W        W41460   4.857  17.871  18.426
40596W        W41461   4.940  16.023  19.409
40597W        W41462   4.455  15.871  19.573
40598W        W41463   5.446  16.686  19.007
40599W        W41464   5.121  17.778  21.362
40600W        W41465   3.770  15.339  21.325
40601W        W41466   4.532  14.619  21.127
40602W        W41467   6.226  15.007  20.014
40603W        W41468   5.875  15.878  18.584
40604W        W41469   6.445  15.312  21.675
40605W        W41470   3.811  15.104  20.800
40606W        W41471   3.910  17.723  21.821
40607W        W41472   5.432  17.113  18.553
40608W        W41473   3.864  15.896  20.246
40609W        W41474   4.757  15.787  21.483
40610W        W41475   7.216  15.646  19.982
40611W        W41476   6.980  16.689  20.841
40612W        W41477   5.288  16.022  19.868
40613W        W41478   5.834  17.361  20.237
40614W        W41479   4.334  16.795  20.469
40615W        W41480   3.693  16.323  20.040
40616W        W41481   4.729  16.295  21.232
40617W        W41482   7.000  16.078  21.486
40618W        W41483   4.616  17.522  19.931
40619W        W41484   5.737  17.211  21.065
40620W        W41485   4.957  15.851  20.290
40621W        W41486   5.249  16.635  19.933
40622W        W41487   6.246  17.408  21.781
40623W        W41488   5.325  16.728  21.791
40624W        W41489   5.306  16.444  21.269
40625W        W41490   3.715  15.835  21.791
40626W        W41491   6.547  17.370  21.390
40627W        W41492   4.128  14.952  19.388
40628W        W41493   4.655  17.210  20.387
40629W        W41494   7.118  16.993  19.677
40630W        W41495   6.531  15.393  20.244
40631W        W41496   6.816  15.346  18.339
40632W        W41497   7.281  16.147  20.645
40633W        W41498   5.248  17.854  20.398
40634W        W41499   7.022  17.320  18.836
40635W        W41500   4.151  18.106  18.590
40636W        W41501   4.544  18.152  19.266
40637W        W41502   4.341  14.906  20.692
40638W        W41503   6.964  15.924  20.967
40639W        W41504   6.369  16.346  19.426
40640W        W41505   6.335  16.034  18.453
40641W        W41506   5.543  17.178  20.593
40642W        W41507   5.349  15.508  19.792
40643W        W41508   5.949  17.595  20.786
40644W        W41509   6.820  16.386  19.208
40645W        W41510   5.722  15.044  19.224
40646W        W41511   4.379  17.738  18.907
40647W        W41512   3.750  15.237  19.506
40648W        W41513   6.536  15.844  19.980
40649W        W41514   3.994  17.461  19.895
40650W        W41515   5.335  17.811  18.765
40651W        W41516   6.727  15.837  18.229
40652W        W41517   3.750  17.595  20.393
40653W        W41518   4.541  17.167  20.873
40654W        W41519   4.914  16.527  19.492
40655W        W41520   4.936  14.932  20.585
40656W        W41521   7.165  14.694  19.882
40657W        W41522   4.384  16.566  18.350
40658W        W41523   4.039  15.599  18.529
40659W        W41524   4.101  17.555  19.323
40660W        W41525   5.232  17.038  19.571
40661W        W41526   6.564  17.897  21.285
40662W        W41527   5.490  15.539  18.969
40663W        W41528   6.873  17.937  19.741
40664W        W41529   6.550  15.790  21.339
40665W        W41530   7.263  17.446  19.473
40666W        W41531   5.890  16.738  20.957
40667W        W41532   3.656  16.289  19.163
40668W        W41533   4.767  16.704  20.736
40669W        W41534   5.971  15.968  19.114
40670W        W41535   5.848  16.458  19.218
40671W        W41536   4.191  15.878  20.692
40672W        W41537   4.176  15.754  21.614
40673W        W41538   4.066  14.671  19.773
40674W        W41539   5.834  15.018  20.334
40675W        W41540   5.482  15.203  21.497
40676W        W41541   5.837  15.352  18.675
40677W        W41542   7.020  17.745  21.429
40678W        W41543   5.987  14.826  21.468
40679W        W41544   7.006  17.127  21.590
40680W        W41545   6.436  15.294  21.186
40681W        W41546   6.236  15.232  19.456
40682W        W41547   6.629  16.366  21.860
40683W        W41548   4.369  17.942  19.846
40684W        W41549   5.027  15.659  18.832
40685W        W41550   4.596  14.943  21.496
40686W        W41551   6.648  15.427  19.177
40687W        W41552   7.015  15.909  19.122
40688W        W41553   4.758  18.126  21.593
40689W        W41554   4.684  14.662  18.828
40690W        W41555   7.005  15.196  19.863
40691W        W41556   7.155  17.445  18.308
40692W        W41557   4.062  16.648  20.010
40693W        W41558   5.979  15.235  18.240
40694W        W41559   7.113  17.567  19.960
40695W        W41560   7.152  14.761  20.710
40696W        W41561   5.597  15.973  21.264
40697W        W41562   5.690  17.312  18.967
40698W        W41563   6.090  16.606  21.707
40699W        W41564   5.764  14.583  20.016
40700W        W41565   4.376  15.486  20.079
40701W        W41566   3.930  16.686  20.853
40702W        W41567   5.789  17.879  19.559
40703W        W41568   6.983  15.476  20.431
40704W        W41569   5.620  17.823  21.198
40705W        W41570   6.963  16.882  18.403
40706W        W41571   5.398  16.365  19.464
40707W        W41572   7.250  14.876  21.205
40708W        W41573   5.399  16.711  20.799
40709W        W41574   5.616  15.597  20.244
40710W        W41575   6.468  15.895  19.082
40711W        W41576   6.755  15.628  18.724
40712W        W41577   6.564  17.668  19.113
40713W        W41578   6.398  17.271  19.909
40714W        W41579   6.294  16.350  18.887
40715W        W41580   5.727  16.560  19.873
40716W        W41581   6.608  16.348  19.940
40717W        W41582   3.983  15.363  20.364
40718W        W41583   6.761  16.415  21.191
40719W        W41584   7.112  18.033  20.337
40720W        W41585   5.042  17.477  19.739
40721W        W41586   6.049  18.010  21.063
40722W        W41587   6.043  15.340  20.827
40723W        W41588   5.250  18.048  20.888
40724W        W41589   6.947  15.002  19.354
40725W        W41590   6.738  16.321  20.655
40726W        W41591   3.721  15.642  20.693
40727W        W41592   6.581  15.437  19.711
40728W        W41593   6.992  15.588  21.488
40729W        W41594   5.877  17.287  19.706
40730W        W41595   5.133  17.878  19.319
40731W        W41596   4.248  15.058  18.577
40732W        W41597   5.352  14.712  20.387
40733W        W41598   4.380  17.832  18.235
40734W        W41599   4.754  16.298  18.986
40735W        W41600   5.408  16.927  21.299
40736W        W41601   5.238  15.285  19.289
40737W        W41602   6.594  14.882  19.717
40738W        W41603   6.314  18.164  20.045
40739W        W41604   5.726  17.812  20.385
40740W        W41605   5.122  16.849  20.346
40741W        W41606   6.892  17.572  20.472
40742W        W41607   4.586  15.075  19.241
40743W        W41608   5.108  17.372  20.201
40744W        W41609   4.591  15.303  18.266
40745W        W41610   5.392  15.912  20.660
40746W        W41611   6.240  14.778  20.530
40747W        W41612   3.660  16.621  20.415
40748W        W41613   5.364  16.439  18.573
40749W        W41614   4.632  14.754  18.343
40750W        W41615   5.370  15.835  19.394
40751W        W41616   6.340  14.811  21.093
40752W        W41617   4.928  16.823  21.202
40753W        W41618   5.732  16.605  21.419
40754W        W41619   6.349  16.635  21.312
40755W        W41620   5.633  14.775  21.817
40756W        W41621   4.855  15.391  20.210
40757W        W41622   4.281  15.347  19.608
40758W        W41623   4.067  18.059  19.284
40759W        W41624   5.399  17.389  21.409
40760W        W41625   4.434  16.874  18.768
40761W        W41626   6.114  16.259  19.989
40762W        W41627   6.394  16.058  20.388
40763W        W41628   5.599  16.732  20.322
40764W        W41629   6.069  17.106  18.454
40765W        W41630   5.741  15.127  19.782
40766W        W41631   7.220  15.405  19.050
40767W        W41632   3.714  17.994  21.081
40768W        W41633   4.131  17.220  20.613
40769W        W41634   3.698  18.066  18.845
40770W        W41635   5.597  15.336  20.651
40771W        W41636   4.960  17.359  18.500
40772W        W41637   6.865  17.741  18.686
40773W        W41638   5.840  16.394  18.700
40774W        W41639   4.683  15.585  19.217
40775W        W41640   5.515  15.495  18.269
40776W        W41641   6.099  17.060  21.447
40777W        W41642   6.452  14.966  19.064
40778W        W41643   3.782  14.814  18.512
40779W        W41644   5.068  17.133  20.802
40780W        W41645   4.867  17.049  19.894
40781W        W41646   4.609  17.001  18.292
40782W        W41647   3.850  17.242  19.060
40783W        W41648   4.354  16.312  21.502
40784W        W41649   5.058  14.872  21.688
40785W        W41650   5.767  15.014  21.044
40786W        W41651   4.962  14.782  19.325
40787W        W41652   6.021  14.859  18.830
40788W        W41653   3.966  14.791  20.407
40789W        W41654   4.014  15.754  19.777
40790W        W41655   6.703  14.862  20.183
40791W        W41656   4.125  15.360  18.997
40792W        W41657   6.696  15.048  20.613
40793W        W41658   7.092  16.251  18.298
40794W        W41659   4.384  15.009  20.117
40795W        W41660   5.498  15.581  21.057
40796W        W41661   3.646  15.271  18.535
40797W        W41662   4.432  16.660  21.096
40798W        W41663   5.790  16.058  20.275
40799W        W41664   5.657  18.137  18.571
40800W        W41665   3.803  16.644  18.268
40801W        W41666   4.538  17.055  21.394
40802W        W41667   4.059  16.222  21.025
40803W        W41668   5.050  16.327  20.819
40804W        W41669   6.818  14.686  21.081
40805W        W41670   7.216  16.296  21.072
40806W        W41671   7.204  16.496  18.758
40807W        W41672   6.067  16.828  18.857
40808W        W41673   6.541  18.128  18.552
40809W        W41674   5.718  16.118  21.694
40810W        W41675   4.048  17.085  21.734
40811W        W41676   7.254  15.007  21.686
40812W        W41677   6.972  15.935  20.307
40813W        W41678   5.280  18.065  21.784
40814W        W41679   5.135  14.694  18.511
40815W        W41680   6.674  17.293  18.454
40816W        W41681   4.443  15.386  21.340
40817W        W41682   4.877  17.380  21.202
40818W        W41683   7.003  15.371  21.000
40819W        W41684   6.214  18.030  18.968
40820W        W41685   6.453  16.649  20.335
40821W        W41686   4.703  15.065  21.002
40822W        W41687   5.172  16.134  21.759
40823W        W41688   4.675  17.313  18.953
40824W        W41689   6.430  16.811  19.217
40825W        W41690   4.198  15.437  20.941
40826W        W41691   5.527  17.499  19.405
40827W        W41692   7.277  16.059  19.586
40828W        W41693   5.499  14.692  21.305
40829W        W41694   6.279  17.397  20.384
40830W        W41695   6.582  17.741  20.092
40831W        W41696   5.801  17.543  18.520
40832W        W41697   3.811  17.435  21.362
40833W        W41698   4.554  15.427  20.600
40834W        W41699   4.524  14.775  19.710
40835W        W41700   6.145  15.617  20.402
40836W        W41701   4.943  16.788  18.602
40837W        W41702   6.941  16.730  20.101
40838W        W41703   4.268  17.488  21.524
40839W        W41704   6.655  18.170  19.321
40840W        W41705   4.754  15.190  19.766
40841W        W41706   4.523  16.683  19.856
40842W        W41707   4.836  18.094  20.606
40843W        W41708   6.903  18.190  21.638
40844W        W41709   6.062  16.378  20.571
40845W        W41710   3.911  16.176  18.486
40846W        W41711   7.045  17.834  19.183
40847W        W41712   6.882  15.158  18.802
40848W        W41713   5.021  14.677  21.205
40849W        W41714   6.727  17.479  19.663
40850W        W41715   6.756  16.035  19.568
40851W        W41716   4.873  15.708  19.784
40852W        W41717   5.118  15.970  21.108
40853W        W41718   6.229  17.123  20.971
40854W        W41719   4.879  15.577  21.083
40855W        W41720   4.858  18.043  19.699
40856W        W41721   4.175  18.002  21.333
40857W        W41722   4.287  17.363  18.463
40858W        W41723   6.804  17.121  19.273
40859W        W41724   4.408  15.913  21.159
40860W        W41725   7.181  15.843  18.640
40861W        W41726   4.926  16.900  19.111
40862W        W41727   6.025  16.282  21.192
40863W        W41728   5.916  15.910  20.736
40864W        W41729   4.476  16.282  20.765
40865W        W41730   6.686  18.170  20.594
40866W        W41731   6.477  14.804  21.588
40867W        W41732   4.141  14.954  21.175
40868W        W41733   4.480  15.977  20.228
40869W        W41734   4.849  15.791  18.350
40870W        W41735   3.652  17.550  20.895
40871W        W41736   5.237  16.259  20.338
40872W        W41737   5.060  15.284  18.443
40873W        W41738   4.195  16.100  19.224
40874W        W41739   3.966  17.952  20.661
40875W        W41740   6.761  16.178  18.769
40876W        W41741   6.856  15.094  21.455
40877W        W41742   6.292  17.303  19.418
40878W        W41743   3.890  16.227  21.595
40879W        W41744   6.856  14.691  18.891
40880W        W41745   6.376  17.166  18.902
40881W        W41746   5.278  16.224  18.987
40882W        W41747   6.465  15.028  18.510
40883W        W41748   6.530  15.635  20.696
40884W        W41749   4.239  16.228  19.903
40885W        W41750   4.533  17.167  19.552
40886W        W41751   6.296  15.787  19.517
40887W        W41752   5.319  15.166  20.213
40888W        W41753   7.281  17.077  20.724
40889W        W41754   7.199  15.064  20.285
40890W        W41755   3.738  17.894  19.661
40891W        W41756   4.247  17.081  19.197
40892W        W41757   4.162  14.698  21.750
40893W        W41758   5.281  17.551  21.852
40894W        W41759   7.036  16.519  19.642
40895W        W41760   6.390  16.696  18.522
40896W        W41761   5.685  18.217  20.734
40897W        W41762   6.542  16.939  21.771
40898W        W41763   5.357  14.649  19.051
40899W        W41764   6.070  15.518  19.910
40900W        W41765   3.756  17.105  20.242
40901W        W41766   5.009  15.067  18.883
40902W        W41767   4.813  16.551  21.732
40903W        W41768   5.807  15.532  19.446
40904W        W41769   6.012  16.942  20.568
40905W        W41770   4.166  17.547  21.003
40906W        W41771   4.757  17.530  21.726
40907W        W41772   4.608  15.327  18.740
40908W        W41773   6.125  15.469  19.065
40909W        W41774   6.083  17.577  21.302
40910W        W41775   4.768  16.169  19.901
40911W        W41776   4.423  17.867  20.766
40912W        W41777   7.168  17.984  18.367
40913W        W41778   4.031  16.656  21.363
40914W        W41779   6.026  16.918  20.051
40915W        W41780   4.462  16.567  19.293
40916W        W41781   4.833  17.574  20.688
40917W        W41782   5.211  14.993  19.729
40918W        W41783   3.822  16.977  18.659
40919W        W41784   5.341  15.928  18.529
40920W        W41785   3.987  16.477  19.548
40921W        W41786   5.277  15.119  21.012
40922W        W41787   6.949  14.828  18.439
40923W        W41788   7.042  16.574  21.538
40924W        W41789   5.696  17.831  21.690
40925W        W41790   7.254  16.925  21.212
40926W        W41791   6.662  17.723  21.823
40927W        W41792   4.401  18.179  20.301
40928W        W41793   7.260  16.801  19.175
40929W        W41794   5.790  16.068  19.688
40930W        W41795   5.557  14.680  19.578
40931W        W41796   4.616  17.664  19.415
40932W        W41797   5.115  15.405  20.640
40933W        W41798   4.815  14.774  20.109
40934W        W41799   3.878  17.596  18.657
40935W        W41800   5.694  16.960  19.375
40936W        W41801   4.569  17.755  21.254
40937W        W41802   4.046  16.578  18.950
40938W        W41803   3.931  15.121  19.949
40939W        W41804   5.479  17.086  20.006
40940W        W41805   3.731  14.940  19.026
40941W        W41806   6.395  16.146  20.953
40942W        W41807   6.272  15.532  18.525
40943W        W41808   6.789  17.204  20.173
40944W        W41809   5.450  17.688  20.004
40945W        W41810   4.862  17.792  18.915
40946W        W41811   6.144  14.695  18.345
40947W        W41812   3.944  17.955  20.086
40948W        W41813   6.141  15.713  21.721
40949W        W41814   4.124  15.243  21.720
40950W        W41815   3.855  15.843  19.053
40951W        W41816   4.546  15.832  18.778
40952W        W41817   6.309  16.159  21.595
40953W        W41818   4.652  16.440  20.304
40954W        W41819   6.126  14.726  19.424
40955W        W41820   5.257  18.157  19.927
40956W        W41821   6.471  17.619  20.864
40957W        W41822   6.055  17.768  19.975
40958W        W41823   6.074  16.748  19.569
40959W        W41824   5.536  14.973  18.640
40960W        W41825   7.217  14.601  19.362
40961W        W41826   4.905  16.236  18.525
40962W        W41827   7.071  15.573  19.515
40963W        W41828   5.763  16.743  18.392
40964W        W41829   6.699  16.943  21.140
40965W        W41830   6.353  17.644  18.607
40966W        W41831   4.968  15.319  21.513
40967W        W41832   4.788  15.903  20.754
40968W        W41833   6.880  17.398  21.031
40969W        W41834   5.980  15.348  21.408
40970W        W41835   3.824  15.819  21.185
40971W        W41836   5.584  16.296  20.911
40972W        W41837   3.941  17.054  19.568
40973W        W41838   4.088  16.351  20.458
40974W        W41839   6.405  16.637  20.808
40975W        W41840   6.177  18.017  21.619
40976W        W41841   6.073  15.756  21.172
40977W        W41842   6.350  17.810  19.577
40978W        W41843   5.352  17.530  20.900
40979W        W41844   4.837  17.885  20.169
40980W        W41845   6.642  17.056  20.588
40981W        W41846   5.692  17.128  21.725
40982W        W41847   4.297  17.081  20.064
40983W        W41848   6.643  16.840  19.709
40984W        W41849   6.284  17.906  20.460
40985W        W41850   4.262  17.635  20.330
40986W        W41851   5.283  15.687  21.540
40987W        W41852   5.734  17.853  19.051
40988W        W41853   5.042  17.108  21.689
40989W        W41854   5.168  17.346  19.066
40990W        W41855   4.389  16.086  18.325
40991W        W41856   3.728  18.172  25.225
40992W        W41857   4.104  17.065  24.748
40993W        W41858   6.809  16.795  22.518
40994W        W41859   6.939  17.880  24.545
40995W        W41860   4.857  17.871  22.071
40996W        W41861   4.940  16.023  23.054
40997W        W41862   4.455  15.871  23.218
40998W        W41863   5.446  16.686  22.652
40999W        W41864   5.121  17.778  25.007
41000W        W41865   3.770  15.339  24.970
41001W        W41866   4.532  14.619  24.772
41002W        W41867   6.226  15.007  23.659
41003W        W41868   5.875  15.878  22.229
41004W        W41869   6.445  15.312  25.320
41005W        W41870   3.811  15.104  24.445
41006W        W41871   3.910  17.723  25.466
41007W        W41872   5.432  17.113  22.198
41008W        W41873   3.864  15.896  23.891
41009W        W41874   4.757  15.787  25.128
41010W        W41875   7.216  15.646  23.627
41011W        W41876   6.980  16.689  24.486
41012W        W41877   5.288  16.022  23.513
41013W        W41878   5.834  17.361  23.882
41014W        W41879   4.334  16.795  24.114
41015W        W41880   3.693  16.323  23.685
41016W        W41881   4.729  16.295  24.877
41017W        W41882   7.000  16.078  25.131
41018W        W41883   4.616  17.522  23.576
41019W        W41884   5.737  17.211  24.710
41020W        W41885   4.957  15.851  23.935
41021W        W41886   5.249  16.635  23.578
41022W        W41887   6.246  17.408  25.426
41023W        W41888   5.325  16.728  25.436
41024W        W41889   5.306  16.444  24.914
41025W        W41890   3.715  15.835  25.436
41026W        W41891   6.547  17.370  25.035
41027W        W41892   4.128  14.952  23.033
41028W        W41893   4.655  17.210  24.032
41029W        W41894   7.118  16.993  23.322
41030W        W41895   6.531  15.393  23.889
41031W        W41896   6.816  15.346  21.984
41032W        W41897   7.281  16.147  24.290
41033W        W41898   5.248  17.854  24.043
41034W        W41899   7.022  17.320  22.481
41035W        W41900   4.151  18.106  22.235
41036W        W41901   4.544  18.152  22.911
41037W        W41902   4.341  14.906  24.337
41038W        W41903   6.964  15.924  24.612
41039W        W41904   6.369  16.346  23.071
41040W        W41905   6.335  16.034  22.098
41041W        W41906   5.543  17.178  24.238
41042W        W41907   5.349  15.508  23.437
41043W        W41908   5.949  17.595  24.431
41044W        W41909   6.820  16.386  22.853
41045W        W41910   5.722  15.044  22.869
41046W        W41911   4.379  17.738  22.552
41047W        W41912   3.750  15.237  23.151
41048W        W41913   6.536  15.844  23.625
41049W        W41914   3.994  17.461  23.540
41050W        W41915   5.335  17.811  22.410
41051W        W41916   6.727  15.837  21.874
41052W        W41917   3.750  17.595  24.038
41053W        W41918   4.541  17.167  24.518
41054W        W41919   4.914  16.527  23.137
41055W        W41920   4.936  14.932  24.230
41056W        W41921   7.165  14.694  23.527
41057W        W41922   4.384  16.566  21.995
41058W        W41923   4.039  15.599  22.174
41059W        W41924   4.101  17.555  22.968
41060W        W41925   5.232  17.038  23.216
41061W        W41926   6.564  17.897  24.930
41062W        W41927   5.490  15.539  22.614
41063W        W41928   6.873  17.937  23.386
41064W        W41929   6.550  15.790  24.984
41065W        W41930   7.263  17.446  23.118
41066W        W41931   5.890  16.738  24.602
41067W        W41932   3.656  16.289  22.808
41068W        W41933   4.767  16.704  24.381
41069W        W41934   5.971  15.968  22.759
41070W        W41935   5.848  16.458  22.863
41071W        W41936   4.191  15.878  24.337
41072W        W41937   4.176  15.754  25.259
41073W        W41938   4.066  14.671  23.418
41074W        W41939   5.834  15.018  23.979
41075W        W41940   5.482  15.203  25.142
41076W        W41941   5.837  15.352  22.320
41077W        W41942   7.020  17.745  25.074
41078W        W41943   5.987  14.826  25.113
41079W        W41944   7.006  17.127  25.235
41080W        W41945   6.436  15.294  24.831
41081W        W41946   6.236  15.232  23.101
41082W        W41947   6.629  16.366  25.505
41083W        W41948   4.369  17.942  23.491
41084W        W41949   5.027  15.659  22.477
41085W        W41950   4.596  14.943  25.141
41086W        W41951   6.648  15.427  22.822
41087W        W41952   7.015  15.909  22.767
41088W        W41953   4.758  18.126  25.238
41089W        W41954   4.684  14.662  22.473
41090W        W41955   7.005  15.196  23.508
41091W        W41956   7.155  17.445  21.953
41092W        W41957   4.062  16.648  23.655
41093W        W41958   5.979  15.235  21.885
41094W        W41959   7.113  17.567  23.605
41095W        W41960   7.152  14.761  24.355
41096W        W41961   5.597  15.973  24.909
41097W        W41962   5.690  17.312  22.612
41098W        W41963   6.090  16.606  25.352
41099W        W41964   5.764  14.583  23.661
41100W        W41965   4.376  15.486  23.724
41101W        W41966   3.930  16.686  24.498
41102W        W41967   5.789  17.879  23.204
41103W        W41968   6.983  15.476  24.076
41104W        W41969   5.620  17.823  24.843
41105W        W41970   6.963  16.882  22.048
41106W        W41971   5.398  16.365  23.109
41107W        W41972   7.250  14.876  24.850
41108W        W41973   5.399  16.711  24.444
41109W        W41974   5.616  15.597  23.889
41110W        W41975   6.468  15.895  22.727
41111W        W41976   6.755  15.628  22.369
41112W        W41977   6.564  17.668  22.758
41113W        W41978   6.398  17.271  23.554
41114W        W41979   6.294  16.350  22.532
41115W        W41980   5.727  16.560  23.518
41116W        W41981   6.608  16.348  23.585
41117W        W41982   3.983  15.363  24.009
41118W        W41983   6.761  16.415  24.836
41119W        W41984   7.112  18.033  23.982
41120W        W41985   5.042  17.477  23.384
41121W        W41986   6.049  18.010  24.708
41122W        W41987   6.043  15.340  24.472
41123W        W41988   5.250  18.048  24.533
41124W        W41989   6.947  15.002  22.999
41125W        W41990   6.738  16.321  24.300
41126W        W41991   3.721  15.642  24.338
41127W        W41992   6.581  15.437  23.356
41128W        W41993   6.992  15.588  25.133
41129W        W41994   5.877  17.287  23.351
41130W        W41995   5.133  17.878  22.964
41131W        W41996   4.248  15.058  22.222
41132W        W41997   5.352  14.712  24.032
41133W        W41998   4.380  17.832  21.880
41134W        W41999   4.754  16.298  22.631
41135W        W42000   5.408  16.927  24.944
41136W        W42001   5.238  15.285  22.934
41137W        W42002   6.594  14.882  23.362
41138W        W42003   6.314  18.164  23.690
41139W        W42004   5.726  17.812  24.030
41140W        W42005   5.122  16.849  23.991
41141W        W42006   6.892  17.572  24.117
41142W        W42007   4.586  15.075  22.886
41143W        W42008   5.108  17.372  23.846
41144W        W42009   4.591  15.303  21.911
41145W        W42010   5.392  15.912  24.305
41146W        W42011   6.240  14.778  24.175
41147W        W42012   3.660  16.621  24.060
41148W        W42013   5.364  16.439  22.218
41149W        W42014   4.632  14.754  21.988
41150W        W42015   5.370  15.835  23.039
41151W        W42016   6.340  14.811  24.738
41152W        W42017   4.928  16.823  24.847
41153W        W42018   5.732  16.605  25.064
41154W        W42019   6.349  16.635  24.957
41155W        W42020   5.633  14.775  25.462
41156W        W42021   4.855  15.391  23.855
41157W        W42022   4.281  15.347  23.253
41158W        W42023   4.067  18.059  22.929
41159W        W42024   5.399  17.389  25.054
41160W        W42025   4.434  16.874  22.413
41161W        W42026   6.114  16.259  23.634
41162W        W42027   6.394  16.058  24.033
41163W        W42028   5.599  16.732  23.967
41164W        W42029   6.069  17.106  22.099
41165W        W42030   5.741  15.127  23.427
41166W        W42031   7.220  15.405  22.695
41167W        W42032   3.714  17.994  24.726
41168W        W42033   4.131  17.220  24.258
41169W        W42034   3.698  18.066  22.490
41170W        W42035   5.597  15.336  24.296
41171W        W42036   4.960  17.359  22.145
41172W        W42037   6.865  17.741  22.331
41173W        W42038   5.840  16.394  22.345
41174W        W42039   4.683  15.585  22.862
41175W        W42040   5.515  15.495  21.914
41176W        W42041   6.099  17.060  25.092
41177W        W42042   6.452  14.966  22.709
41178W        W42043   3.782  14.814  22.157
41179W        W42044   5.068  17.133  24.447
41180W        W42045   4.867  17.049  23.539
41181W        W42046   4.609  17.001  21.937
41182W        W42047   3.850  17.242  22.705
41183W        W42048   4.354  16.312  25.147
41184W        W42049   5.058  14.872  25.333
41185W        W42050   5.767  15.014  24.689
41186W        W42051   4.962  14.782  22.970
41187W        W42052   6.021  14.859  22.475
41188W        W42053   3.966  14.791  24.052
41189W        W42054   4.014  15.754  23.422
41190W        W42055   6.703  14.862  23.828
41191W        W42056   4.125  15.360  22.642
41192W        W42057   6.696  15.048  24.258
41193W        W42058   7.092  16.251  21.943
41194W        W42059   4.384  15.009  23.762
41195W        W42060   5.498  15.581  24.702
41196W        W42061   3.646  15.271  22.180
41197W        W42062   4.432  16.660  24.741
41198W        W42063   5.790  16.058  23.920
41199W        W42064   5.657  18.137  22.216
41200W        W42065   3.803  16.644  21.913
41201W        W42066   4.538  17.055  25.039
41202W        W42067   4.059  16.222  24.670
41203W        W42068   5.050  16.327  24.464
41204W        W42069   6.818  14.686  24.726
41205W        W42070   7.216  16.296  24.717
41206W        W42071   7.204  16.496  22.403
41207W        W42072   6.067  16.828  22.502
41208W        W42073   6.541  18.128  22.197
41209W        W42074   5.718  16.118  25.339
41210W        W42075   4.048  17.085  25.379
41211W        W42076   7.254  15.007  25.331
41212W        W42077   6.972  15.935  23.952
41213W        W42078   5.280  18.065  25.429
41214W        W42079   5.135  14.694  22.156
41215W        W42080   6.674  17.293  22.099
41216W        W42081   4.443  15.386  24.985
41217W        W42082   4.877  17.380  24.847
41218W        W42083   7.003  15.371  24.645
41219W        W42084   6.214  18.030  22.613
41220W        W42085   6.453  16.649  23.980
41221W        W42086   4.703  15.065  24.647
41222W        W42087   5.172  16.134  25.404
41223W        W42088   4.675  17.313  22.598
41224W        W42089   6.430  16.811  22.862
41225W        W42090   4.198  15.437  24.586
41226W        W42091   5.527  17.499  23.050
41227W        W42092   7.277  16.059  23.231
41228W        W42093   5.499  14.692  24.950
41229W        W42094   6.279  17.397  24.029
41230W        W42095   6.582  17.741  23.737
41231W        W42096   5.801  17.543  22.165
41232W        W42097   3.811  17.435  25.007
41233W        W42098   4.554  15.427  24.245
41234W        W42099   4.524  14.775  23.355
41235W        W42100   6.145  15.617  24.047
41236W        W42101   4.943  16.788  22.247
41237W        W42102   6.941  16.730  23.746
41238W        W42103   4.268  17.488  25.169
41239W        W42104   6.655  18.170  22.966
41240W        W42105   4.754  15.190  23.411
41241W        W42106   4.523  16.683  23.501
41242W        W42107   4.836  18.094  24.251
41243W        W42108   6.903  18.190  25.283
41244W        W42109   6.062  16.378  24.216
41245W        W42110   3.911  16.176  22.131
41246W        W42111   7.045  17.834  22.828
41247W        W42112   6.882  15.158  22.447
41248W        W42113   5.021  14.677  24.850
41249W        W42114   6.727  17.479  23.308
41250W        W42115   6.756  16.035  23.213
41251W        W42116   4.873  15.708  23.429
41252W        W42117   5.118  15.970  24.753
41253W        W42118   6.229  17.123  24.616
41254W        W42119   4.879  15.577  24.728
41255W        W42120   4.858  18.043  23.344
41256W        W42121   4.175  18.002  24.978
41257W        W42122   4.287  17.363  22.108
41258W        W42123   6.804  17.121  22.918
41259W        W42124   4.408  15.913  24.804
41260W        W42125   7.181  15.843  22.285
41261W        W42126   4.926  16.900  22.756
41262W        W42127   6.025  16.282  24.837
41263W        W42128   5.916  15.910  24.381
41264W        W42129   4.476  16.282  24.410
41265W        W42130   6.686  18.170  24.239
41266W        W42131   6.477  14.804  25.233
41267W        W42132   4.141  14.954  24.820
41268W        W42133   4.480  15.977  23.873
41269W        W42134   4.849  15.791  21.995
41270W        W42135   3.652  17.550  24.540
41271W        W42136   5.237  16.259  23.983
41272W        W42137   5.060  15.284  22.088
41273W        W42138   4.195  16.100  22.869
41274W        W42139   3.966  17.952  24.306
41275W        W42140   6.761  16.178  22.414
41276W        W42141   6.856  15.094  25.100
41277W        W42142   6.292  17.303  23.063
41278W        W42143   3.890  16.227  25.240
41279W        W42144   6.856  14.691  22.536
41280W        W42145   6.376  17.166  22.547
41281W        W42146   5.278  16.224  22.632
41282W        W42147   6.465  15.028  22.155
41283W        W42148   6.530  15.635  24.341
41284W        W42149   4.239  16.228  23.548
41285W        W42150   4.533  17.167  23.197
41286W        W42151   6.296  15.787  23.162
41287W        W42152   5.319  15.166  23.858
41288W        W42153   7.281  17.077  24.369
41289W        W42154   7.199  15.064  23.930
41290W        W42155   3.738  17.894  23.306
41291W        W42156   4.247  17.081  22.842
41292W        W42157   4.162  14.698  25.395
41293W        W42158   5.281  17.551  25.497
41294W        W42159   7.036  16.519  23.287
41295W        W42160   6.390  16.696  22.167
41296W        W42161   5.685  18.217  24.379
41297W        W42162   6.542  16.939  25.416
41298W        W42163   5.357  14.649  22.696
41299W        W42164   6.070  15.518  23.555
41300W        W42165   3.756  17.105  23.887
41301W        W42166   5.009  15.067  22.528
41302W        W42167   4.813  16.551  25.377
41303W        W42168   5.807  15.532  23.091
41304W        W42169   6.012  16.942  24.213
41305W        W42170   4.166  17.547  24.648
41306W        W42171   4.757  17.530  25.371
41307W        W42172   4.608  15.327  22.385
41308W        W42173   6.125  15.469  22.710
41309W        W42174   6.083  17.577  24.947
41310W        W42175   4.768  16.169  23.546
41311W        W42176   4.423  17.867  24.411
41312W        W42177   7.168  17.984  22.012
41313W        W42178   4.031  16.656  25.008
41314W        W42179   6.026  16.918  23.696
41315W        W42180   4.462  16.567  22.938
41316W        W42181   4.833  17.574  24.333
41317W        W42182   5.211  14.993  23.374
41318W        W42183   3.822  16.977  22.304
41319W        W42184   5.341  15.928  22.174
41320W        W42185   3.987  16.477  23.193
41321W        W42186   5.277  15.119  24.657
41322W        W42187   6.949  14.828  22.084
41323W        W42188   7.042  16.574  25.183
41324W        W42189   5.696  17.831  25.335
41325W        W42190   7.254  16.925  24.857
41326W        W42191   6.662  17.723  25.468
41327W        W42192   4.401  18.179  23.946
41328W        W42193   7.260  16.801  22.820
41329W        W42194   5.790  16.068  23.333
41330W        W42195   5.557  14.680  23.223
41331W        W42196   4.616  17.664  23.060
41332W        W42197   5.115  15.405  24.285
41333W        W42198   4.815  14.774  23.754
41334W        W42199   3.878  17.596  22.302
41335W        W42200   5.694  16.960  23.020
41336W        W42201   4.569  17.755  24.899
41337W        W42202   4.046  16.578  22.595
41338W        W42203   3.931  15.121  23.594
41339W        W42204   5.479  17.086  23.651
41340W        W42205   3.731  14.940  22.671
41341W        W42206   6.395  16.146  24.598
41342W        W42207   6.272  15.532  22.170
41343W        W42208   6.789  17.204  23.818
41344W        W42209   5.450  17.688  23.649
41345W        W42210   4.862  17.792  22.560
41346W        W42211   6.144  14.695  21.990
41347W        W42212   3.944  17.955  23.731
41348W        W42213   6.141  15.713  25.366
41349W        W42214   4.124  15.243  25.365
41350W        W42215   3.855  15.843  22.698
41351W        W42216   4.546  15.832  22.423
41352W        W42217   6.309  16.159  25.240
41353W        W42218   4.652  16.440  23.949
41354W        W42219   6.126  14.726  23.069
41355W        W42220   5.257  18.157  23.572
41356W        W42221   6.471  17.619  24.509
41357W        W42222   6.055  17.768  23.620
41358W        W42223   6.074  16.748  23.214
41359W        W42224   5.536  14.973  22.285
41360W        W42225   7.217  14.601  23.007
41361W        W42226   4.905  16.236  22.170
41362W        W42227   7.071  15.573  23.160
41363W        W42228   5.763  16.743  22.037
41364W        W42229   6.699  16.943  24.785
41365W        W42230   6.353  17.644  22.252
41366W        W42231   4.968  15.319  25.158
41367W        W42232   4.788  15.903  24.399
41368W        W42233   6.880  17.398  24.676
41369W        W42234   5.980  15.348  25.053
41370W        W42235   3.824  15.819  24.830
41371W        W42236   5.584  16.296  24.556
41372W        W42237   3.941  17.054  23.213
41373W        W42238   4.088  16.351  24.103
41374W        W42239   6.405  16.637  24.453
41375W        W42240   6.177  18.017  25.264
41376W        W42241   6.073  15.756  24.817
41377W        W42242   6.350  17.810  23.222
41378W        W42243   5.352  17.530  24.545
41379W        W42244   4.837  17.885  23.814
41380W        W42245   6.642  17.056  24.233
41381W        W42246   5.692  17.128  25.370
41382W        W42247   4.297  17.081  23.709
41383W        W42248   6.643  16.840  23.354
41384W        W42249   6.284  17.906  24.105
41385W        W42250   4.262  17.635  23.975
41386W        W42251   5.283  15.687  25.185
41387W        W42252   5.734  17.853  22.696
41388W        W42253   5.042  17.108  25.334
41389W        W42254   5.168  17.346  22.711
41390W        W42255   4.389  16.086  21.970
41391W        W42256   3.728  18.172  28.869
41392W        W42257   4.104  17.065  28.392
41393W        W42258   6.809  16.795  26.162
41394W        W42259   6.939  17.880  28.189
41395W        W42260   4.857  17.871  25.715
41396W        W42261   4.940  16.023  26.698
41397W        W42262   4.455  15.871  26.862
41398W        W42263   5.446  16.686  26.296
41399W        W42264   5.121  17.778  28.651
41400W        W42265   3.770  15.339  28.614
41401W        W42266   4.532  14.619  28.416
41402W        W42267   6.226  15.007  27.303
41403W        W42268   5.875  15.878  25.873
41404W        W42269   6.445  15.312  28.964
41405W        W42270   3.811  15.104  28.089
41406W        W42271   3.910  17.723  29.110
41407W        W42272   5.432  17.113  25.842
41408W        W42273   3.864  15.896  27.535
41409W        W42274   4.757  15.787  28.772
41410W        W42275   7.216  15.646  27.271
41411W        W42276   6.980  16.689  28.130
41412W        W42277   5.288  16.022  27.157
41413W        W42278   5.834  17.361  27.526
41414W        W42279   4.334  16.795  27.758
41415W        W42280   3.693  16.323  27.329
41416W        W42281   4.729  16.295  28.521
41417W        W42282   7.000  16.078  28.775
41418W        W42283   4.616  17.522  27.220
41419W        W42284   5.737  17.211  28.354
41420W        W42285   4.957  15.851  27.579
41421W        W42286   5.249  16.635  27.222
41422W        W42287   6.246  17.408  29.070
41423W        W42288   5.325  16.728  29.080
41424W        W42289   5.306  16.444  28.558
41425W        W42290   3.715  15.835  29.080
41426W        W42291   6.547  17.370  28.679
41427W        W42292   4.128  14.952  26.677
41428W        W42293   4.655  17.210  27.676
41429W        W42294   7.118  16.993  26.966
41430W        W42295   6.531  15.393  27.533
41431W        W42296   6.816  15.346  25.628
41432W        W42297   7.281  16.147  27.934
41433W        W42298   5.248  17.854  27.687
41434W        W42299   7.022  17.320  26.125
41435W        W42300   4.151  18.106  25.879
41436W        W42301   4.544  18.152  26.555
41437W        W42302   4.341  14.906  27.981
41438W        W42303   6.964  15.924  28.256
41439W        W42304   6.369  16.346  26.715
41440W        W42305   6.335  16.034  25.742
41441W        W42306   5.543  17.178  27.882
41442W        W42307   5.349  15.508  27.081
41443W        W42308   5.949  17.595  28.075
41444W        W42309   6.820  16.386  26.497
41445W        W42310   5.722  15.044  26.513
41446W        W42311   4.379  17.738  26.196
41447W        W42312   3.750  15.237  26.795
41448W        W42313   6.536  15.844  27.269
41449W        W42314   3.994  17.461  27.184
41450W        W42315   5.335  17.811  26.054
41451W        W42316   6.727  15.837  25.518
41452W        W42317   3.750  17.595  27.682
41453W        W42318   4.541  17.167  28.162
41454W        W42319   4.914  16.527  26.781
41455W        W42320   4.936  14.932  27.874
41456W        W42321   7.165  14.694  27.171
41457W        W42322   4.384  16.566  25.639
41458W        W42323   4.039  15.599  25.818
41459W        W42324   4.101  17.555  26.612
41460W        W42325   5.232  17.038  26.860
41461W        W42326   6.564  17.897  28.574
41462W        W42327   5.490  15.539  26.258
41463W        W42328   6.873  17.937  27.030
41464W        W42329   6.550  15.790  28.628
41465W        W42330   7.263  17.446  26.762
41466W        W42331   5.890  16.738  28.246
41467W        W42332   3.656  16.289  26.452
41468W        W42333   4.767  16.704  28.025
41469W        W42334   5.971  15.968  26.403
41470W        W42335   5.848  16.458  26.507
41471W        W42336   4.191  15.878  27.981
41472W        W42337   4.176  15.754  28.903
41473W        W42338   4.066  14.671  27.062
41474W        W42339   5.834  15.018  27.623
41475W        W42340   5.482  15.203  28.786
41476W        W42341   5.837  15.352  25.964
41477W        W42342   7.020  17.745  28.718
41478W        W42343   5.987  14.826  28.757
41479W        W42344   7.006  17.127  28.879
41480W        W42345   6.436  15.294  28.475
41481W        W42346   6.236  15.232  26.745
41482W        W42347   6.629  16.366  29.149
41483W        W42348   4.369  17.942  27.135
41484W        W42349   5.027  15.659  26.121
41485W        W42350   4.596  14.943  28.785
41486W        W42351   6.648  15.427  26.466
41487W        W42352   7.015  15.909  26.411
41488W        W42353   4.758  18.126  28.882
41489W        W42354   4.684  14.662  26.117
41490W        W42355   7.005  15.196  27.152
41491W        W42356   7.155  17.445  25.597
41492W        W42357   4.062  16.648  27.299
41493W        W42358   5.979  15.235  25.529
41494W        W42359   7.113  17.567  27.249
41495W        W42360   7.152  14.761  27.999
41496W        W42361   5.597  15.973  28.553
41497W        W42362   5.690  17.312  26.256
41498W        W42363   6.090  16.606  28.996
41499W        W42364   5.764  14.583  27.305
41500W        W42365   4.376  15.486  27.368
41501W        W42366   3.930  16.686  28.142
41502W        W42367   5.789  17.879  26.848
41503W        W42368   6.983  15.476  27.720
41504W        W42369   5.620  17.823  28.487
41505W        W42370   6.963  16.882  25.692
41506W        W42371   5.398  16.365  26.753
41507W        W42372   7.250  14.876  28.494
41508W        W42373   5.399  16.711  28.088
41509W        W42374   5.616  15.597  27.533
41510W        W42375   6.468  15.895  26.371
41511W        W42376   6.755  15.628  26.013
41512W        W42377   6.564  17.668  26.402
41513W        W42378   6.398  17.271  27.198
41514W        W42379   6.294  16.350  26.176
41515W        W42380   5.727  16.560  27.162
41516W        W42381   6.608  16.348  27.229
41517W        W42382   3.983  15.363  27.653
41518W        W42383   6.761  16.415  28.480
41519W        W42384   7.112  18.033  27.626
41520W        W42385   5.042  17.477  27.028
41521W        W42386   6.049  18.010  28.352
41522W        W42387   6.043  15.340  28.116
41523W        W42388   5.250  18.048  28.177
41524W        W42389   6.947  15.002  26.643
41525W        W42390   6.738  16.321  27.944
41526W        W42391   3.721  15.642  27.982
41527W        W42392   6.581  15.437  27.000
41528W        W42393   6.992  15.588  28.777
41529W        W42394   5.877  17.287  26.995
41530W        W42395   5.133  17.878  26.608
41531W        W42396   4.248  15.058  25.866
41532W        W42397   5.352  14.712  27.676
41533W        W42398   4.380  17.832  25.524
41534W        W42399   4.754  16.298  26.275
41535W        W42400   5.408  16.927  28.588
41536W        W42401   5.238  15.285  26.578
41537W        W42402   6.594  14.882  27.006
41538W        W42403   6.314  18.164  27.334
41539W        W42404   5.726  17.812  27.674
41540W        W42405   5.122  16.849  27.635
41541W        W42406   6.892  17.572  27.761
41542W        W42407   4.586  15.075  26.530
41543W        W42408   5.108  17.372  27.490
41544W        W42409   4.591  15.303  25.555
41545W        W42410   5.392  15.912  27.949
41546W        W42411   6.240  14.778  27.819
41547W        W42412   3.660  16.621  27.704
41548W        W42413   5.364  16.439  25.862
41549W        W42414   4.632  14.754  25.632
41550W        W42415   5.370  15.835  26.683
41551W        W42416   6.340  14.811  28.382
41552W        W42417   4.928  16.823  28.491
41553W        W42418   5.732  16.605  28.708
41554W        W42419   6.349  16.635  28.601
41555W        W42420   5.633  14.775  29.106
41556W        W42421   4.855  15.391  27.499
41557W        W42422   4.281  15.347  26.897
41558W        W42423   4.067  18.059  26.573
41559W        W42424   5.399  17.389  28.698
41560W        W42425   4.434  16.874  26.057
41561W        W42426   6.114  16.259  27.278
41562W        W42427   6.394  16.058  27.677
41563W        W42428   5.599  16.732  27.611
41564W        W42429   6.069  17.106  25.743
41565W        W42430   5.741  15.127  27.071
41566W        W42431   7.220  15.405  26.339
41567W        W42432   3.714  17.994  28.370
41568W        W42433   4.131  17.220  27.902
41569W        W42434   3.698  18.066  26.134
41570W        W42435   5.597  15.336  27.940
41571W        W42436   4.960  17.359  25.789
41572W        W42437   6.865  17.741  25.975
41573W        W42438   5.840  16.394  25.989
41574W        W42439   4.683  15.585  26.506
41575W        W42440   5.515  15.495  25.558
41576W        W42441   6.099  17.060  28.736
41577W        W42442   6.452  14.966  26.353
41578W        W42443   3.782  14.814  25.801
41579W        W42444   5.068  17.133  28.091
41580W        W42445   4.867  17.049  27.183
41581W        W42446   4.609  17.001  25.581
41582W        W42447   3.850  17.242  26.349
41583W        W42448   4.354  16.312  28.791
41584W        W42449   5.058  14.872  28.977
41585W        W42450   5.767  15.014  28.333
41586W        W42451   4.962  14.782  26.614
41587W        W42452   6.021  14.859  26.119
41588W        W42453   3.966  14.791  27.696
41589W        W42454   4.014  15.754  27.066
41590W        W42455   6.703  14.862  27.472
41591W        W42456   4.125  15.360  26.286
41592W        W42457   6.696  15.048  27.902
41593W        W42458   7.092  16.251  25.587
41594W        W42459   4.384  15.009  27.406
41595W        W42460   5.498  15.581  28.346
41596W        W42461   3.646  15.271  25.824
41597W        W42462   4.432  16.660  28.385
41598W        W42463   5.790  16.058  27.564
41599W        W42464   5.657  18.137  25.860
41600W        W42465   3.803  16.644  25.557
41601W        W42466   4.538  17.055  28.683
41602W        W42467   4.059  16.222  28.314
41603W        W42468   5.050  16.327  28.108
41604W        W42469   6.818  14.686  28.370
41605W        W42470   7.216  16.296  28.361
41606W        W42471   7.204  16.496  26.047
41607W        W42472   6.067  16.828  26.146
41608W        W42473   6.541  18.128  25.841
41609W        W42474   5.718  16.118  28.983
41610W        W42475   4.048  17.085  29.023
41611W        W42476   7.254  15.007  28.975
41612W        W42477   6.972  15.935  27.596
41613W        W42478   5.280  18.065  29.073
41614W        W42479   5.135  14.694  25.800
41615W        W42480   6.674  17.293  25.743
41616W        W42481   4.443  15.386  28.629
41617W        W42482   4.877  17.380  28.491
41618W        W42483   7.003  15.371  28.289
41619W        W42484   6.214  18.030  26.257
41620W        W42485   6.453  16.649  27.624
41621W        W42486   4.703  15.065  28.291
41622W        W42487   5.172  16.134  29.048
41623W        W42488   4.675  17.313  26.242
41624W        W42489   6.430  16.811  26.506
41625W        W42490   4.198  15.437  28.230
41626W        W42491   5.527  17.499  26.694
41627W        W42492   7.277  16.059  26.875
41628W        W42493   5.499  14.692  28.594
41629W        W42494   6.279  17.397  27.673
41630W        W42495   6.582  17.741  27.381
41631W        W42496   5.801  17.543  25.809
41632W        W42497   3.811  17.435  28.651
41633W        W42498   4.554  15.427  27.889
41634W        W42499   4.524  14.775  26.999
41635W        W42500   6.145  15.617  27.691
41636W        W42501   4.943  16.788  25.891
41637W        W42502   6.941  16.730  27.390
41638W        W42503   4.268  17.488  28.813
41639W        W42504   6.655  18.170  26.610
41640W        W42505   4.754  15.190  27.055
41641W        W42506   4.523  16.683  27.145
41642W        W42507   4.836  18.094  27.895
41643W        W42508   6.903  18.190  28.927
41644W        W42509   6.062  16.378  27.860
41645W        W42510   3.911  16.176  25.775
41646W        W42511   7.045  17.834  26.472
41647W        W42512   6.882  15.158  26.091
41648W        W42513   5.021  14.677  28.494
41649W        W42514   6.727  17.479  26.952
41650W        W42515   6.756  16.035  26.857
41651W        W42516   4.873  15.708  27.073
41652W        W42517   5.118  15.970  28.397
41653W        W42518   6.229  17.123  28.260
41654W        W42519   4.879  15.577  28.372
41655W        W42520   4.858  18.043  26.988
41656W        W42521   4.175  18.002  28.622
41657W        W42522   4.287  17.363  25.752
41658W        W42523   6.804  17.121  26.562
41659W        W42524   4.408  15.913  28.448
41660W        W42525   7.181  15.843  25.929
41661W        W42526   4.926  16.900  26.400
41662W        W42527   6.025  16.282  28.481
41663W        W42528   5.916  15.910  28.025
41664W        W42529   4.476  16.282  28.054
41665W        W42530   6.686  18.170  27.883
41666W        W42531   6.477  14.804  28.877
41667W        W42532   4.141  14.954  28.464
41668W        W42533   4.480  15.977  27.517
41669W        W42534   4.849  15.791  25.639
41670W        W42535   3.652  17.550  28.184
41671W        W42536   5.237  16.259  27.627
41672W        W42537   5.060  15.284  25.732
41673W        W42538   4.195  16.100  26.513
41674W        W42539   3.966  17.952  27.950
41675W        W42540   6.761  16.178  26.058
41676W        W42541   6.856  15.094  28.744
41677W        W42542   6.292  17.303  26.707
41678W        W42543   3.890  16.227  28.884
41679W        W42544   6.856  14.691  26.180
41680W        W42545   6.376  17.166  26.191
41681W        W42546   5.278  16.224  26.276
41682W        W42547   6.465  15.028  25.799
41683W        W42548   6.530  15.635  27.985
41684W        W42549   4.239  16.228  27.192
41685W        W42550   4.533  17.167  26.841
41686W        W42551   6.296  15.787  26.806
41687W        W42552   5.319  15.166  27.502
41688W        W42553   7.281  17.077  28.013
41689W        W42554   7.199  15.064  27.574
41690W        W42555   3.738  17.894  26.950
41691W        W42556   4.247  17.081  26.486
41692W        W42557   4.162  14.698  29.039
41693W        W42558   5.281  17.551  29.141
41694W        W42559   7.036  16.519  26.931
41695W        W42560   6.390  16.696  25.811
41696W        W42561   5.685  18.217  28.023
41697W        W42562   6.542  16.939  29.060
41698W        W42563   5.357  14.649  26.340
41699W        W42564   6.070  15.518  27.199
41700W        W42565   3.756  17.105  27.531
41701W        W42566   5.009  15.067  26.172
41702W        W42567   4.813  16.551  29.021
41703W        W42568   5.807  15.532  26.735
41704W        W42569   6.012  16.942  27.857
41705W        W42570   4.166  17.547  28.292
41706W        W42571   4.757  17.530  29.015
41707W        W42572   4.608  15.327  26.029
41708W        W42573   6.125  15.469  26.354
41709W        W42574   6.083  17.577  28.591
41710W        W42575   4.768  16.169  27.190
41711W        W42576   4.423  17.867  28.055
41712W        W42577   7.168  17.984  25.656
41713W        W42578   4.031  16.656  28.652
41714W        W42579   6.026  16.918  27.340
41715W        W42580   4.462  16.567  26.582
41716W        W42581   4.833  17.574  27.977
41717W        W42582   5.211  14.993  27.018
41718W        W42583   3.822  16.977  25.948
41719W        W42584   5.341  15.928  25.818
41720W        W42585   3.987  16.477  26.837
41721W        W42586   5.277  15.119  28.301
41722W        W42587   6.949  14.828  25.728
41723W        W42588   7.042  16.574  28.827
41724W        W42589   5.696  17.831  28.979
41725W        W42590   7.254  16.925  28.501
41726W        W42591   6.662  17.723  29.112
41727W        W42592   4.401  18.179  27.590
41728W        W42593   7.260  16.801  26.464
41729W        W42594   5.790  16.068  26.977
41730W        W42595   5.557  14.680  26.867
41731W        W42596   4.616  17.664  26.704
41732W        W42597   5.115  15.405  27.929
41733W        W42598   4.815  14.774  27.398
41734W        W42599   3.878  17.596  25.946
41735W        W42600   5.694  16.960  26.664
41736W        W42601   4.569  17.755  28.543
41737W        W42602   4.046  16.578  26.239
41738W        W42603   3.931  15.121  27.238
41739W        W42604   5.479  17.086  27.295
41740W        W42605   3.731  14.940  26.315
41741W        W42606   6.395  16.146  28.242
41742W        W42607   6.272  15.532  25.814
41743W        W42608   6.789  17.204  27.462
41744W        W42609   5.450  17.688  27.293
41745W        W42610   4.862  17.792  26.204
41746W        W42611   6.144  14.695  25.634
41747W        W42612   3.944  17.955  27.375
41748W        W42613   6.141  15.713  29.010
41749W        W42614   4.124  15.243  29.009
41750W        W42615   3.855  15.843  26.342
41751W        W42616   4.546  15.832  26.067
41752W        W42617   6.309  16.159  28.884
41753W        W42618   4.652  16.440  27.593
41754W        W42619   6.126  14.726  26.713
41755W        W42620   5.257  18.157  27.216
41756W        W42621   6.471  17.619  28.153
41757W        W42622   6.055  17.768  27.264
41758W        W42623   6.074  16.748  26.858
41759W        W42624   5.536  14.973  25.929
41760W        W42625   7.217  14.601  26.651
41761W        W42626   4.905  16.236  25.814
41762W        W42627   7.071  15.573  26.804
41763W        W42628   5.763  16.743  25.681
41764W        W42629   6.699  16.943  28.429
41765W        W42630   6.353  17.644  25.896
41766W        W42631   4.968  15.319  28.802
41767W        W42632   4.788  15.903  28.043
41768W        W42633   6.880  17.398  28.320
41769W        W42634   5.980  15.348  28.697
41770W        W42635   3.824  15.819  28.474
41771W        W42636   5.584  16.296  28.200
41772W        W42637   3.941  17.054  26.857
41773W        W42638   4.088  16.351  27.747
41774W        W42639   6.405  16.637  28.097
41775W        W42640   6.177  18.017  28.908
41776W        W42641   6.073  15.756  28.461
41777W        W42642   6.350  17.810  26.866
41778W        W42643   5.352  17.530  28.189
41779W        W42644   4.837  17.885  27.458
41780W        W42645   6.642  17.056  27.877
41781W        W42646   5.692  17.128  29.014
41782W        W42647   4.297  17.081  27.353
41783W        W42648   6.643  16.840  26.998
41784W        W42649   6.284  17.906  27.749
41785W        W42650   4.262  17.635  27.619
41786W        W42651   5.283  15.687  28.829
41787W        W42652   5.734  17.853  26.340
41788W        W42653   5.042  17.108  28.978
41789W        W42654   5.168  17.346  26.355
41790W        W42655   4.389  16.086  25.614
41791W        W42656   3.728  21.816   3.359
41792W        W42657   4.104  20.709   2.882
41793W        W42658   6.809  20.439   0.652
41794W        W42659   6.939  21.524   2.679
41795W        W42660   4.857  21.515   0.205
41796W        W42661   4.940  19.667   1.188
41797W        W42662   4.455  19.515   1.352
41798W        W42663   5.446  20.330   0.786
41799W        W42664   5.121  21.422   3.141
41800W        W42665   3.770  18.983   3.104
41801W        W42666   4.532  18.263   2.906
41802W        W42667   6.226  18.651   1.793
41803W        W42668   5.875  19.522   0.363
41804W        W42669   6.445  18.956   3.454
41805W        W42670   3.811  18.748   2.579
41806W        W42671   3.910  21.367   3.600
41807W        W42672   5.432  20.757   0.332
41808W        W42673   3.864  19.540   2.025
41809W        W42674   4.757  19.431   3.262
41810W        W42675   7.216  19.290   1.761
41811W        W42676   6.980  20.333   2.620
41812W        W42677   5.288  19.666   1.647
41813W        W42678   5.834  21.005   2.016
41814W        W42679   4.334  20.439   2.248
41815W        W42680   3.693  19.967   1.819
41816W        W42681   4.729  19.939   3.011
41817W        W42682   7.000  19.722   3.265
41818W        W42683   4.616  21.166   1.710
41819W        W42684   5.737  20.855   2.844
41820W        W42685   4.957  19.495   2.069
41821W        W42686   5.249  20.279   1.712
41822W        W42687   6.246  21.052   3.560
41823W        W42688   5.325  20.372   3.570
41824W        W42689   5.306  20.088   3.048
41825W        W42690   3.715  19.479   3.570
41826W        W42691   6.547  21.014   3.169
41827W        W42692   4.128  18.596   1.167
41828W        W42693   4.655  20.854   2.166
41829W        W42694   7.118  20.637   1.456
41830W        W42695   6.531  19.037   2.023
41831W        W42696   6.816  18.990   0.118
41832W        W42697   7.281  19.791   2.424
41833W        W42698   5.248  21.498   2.177
41834W        W42699   7.022  20.964   0.615
41835W        W42700   4.151  21.750   0.369
41836W        W42701   4.544  21.796   1.045
41837W        W42702   4.341  18.550   2.471
41838W        W42703   6.964  19.568   2.746
41839W        W42704   6.369  19.990   1.205
41840W        W42705   6.335  19.678   0.232
41841W        W42706   5.543  20.822   2.372
41842W        W42707   5.349  19.152   1.571
41843W        W42708   5.949  21.239   2.565
41844W        W42709   6.820  20.030   0.987
41845W        W42710   5.722  18.688   1.003
41846W        W42711   4.379  21.382   0.686
41847W        W42712   3.750  18.881   1.285
41848W        W42713   6.536  19.488   1.759
41849W        W42714   3.994  21.105   1.674
41850W        W42715   5.335  21.455   0.544
41851W        W42716   6.727  19.481   0.008
41852W        W42717   3.750  21.239   2.172
41853W        W42718   4.541  20.811   2.652
41854W        W42719   4.914  20.171   1.271
41855W        W42720   4.936  18.576   2.364
41856W        W42721   7.165  18.338   1.661
41857W        W42722   4.384  20.210   0.129
41858W        W42723   4.039  19.243   0.308
41859W        W42724   4.101  21.199   1.102
41860W        W42725   5.232  20.682   1.350
41861W        W42726   6.564  21.541   3.064
41862W        W42727   5.490  19.183   0.748
41863W        W42728   6.873  21.581   1.520
41864W        W42729   6.550  19.434   3.118
41865W        W42730   7.263  21.090   1.252
41866W        W42731   5.890  20.382   2.736
41867W        W42732   3.656  19.933   0.942
41868W        W42733   4.767  20.348   2.515
41869W        W42734   5.971  19.612   0.893
41870W        W42735   5.848  20.102   0.997
41871W        W42736   4.191  19.522   2.471
41872W        W42737   4.176  19.398   3.393
41873W        W42738   4.066  18.315   1.552
41874W        W42739   5.834  18.662   2.113
41875W        W42740   5.482  18.847   3.276
41876W        W42741   5.837  18.996   0.454
41877W        W42742   7.020  21.389   3.208
41878W        W42743   5.987  18.470   3.247
41879W        W42744   7.006  20.771   3.369
41880W        W42745   6.436  18.938   2.965
41881W        W42746   6.236  18.876   1.235
41882W        W42747   6.629  20.010   3.639
41883W        W42748   4.369  21.586   1.625
41884W        W42749   5.027  19.303   0.611
41885W        W42750   4.596  18.587   3.275
41886W        W42751   6.648  19.071   0.956
41887W        W42752   7.015  19.553   0.901
41888W        W42753   4.758  21.770   3.372
41889W        W42754   4.684  18.306   0.607
41890W        W42755   7.005  18.840   1.642
41891W        W42756   7.155  21.089   0.087
41892W        W42757   4.062  20.292   1.789
41893W        W42758   5.979  18.879   0.019
41894W        W42759   7.113  21.211   1.739
41895W        W42760   7.152  18.405   2.489
41896W        W42761   5.597  19.617   3.043
41897W        W42762   5.690  20.956   0.746
41898W        W42763   6.090  20.250   3.486
41899W        W42764   5.764  18.227   1.795
41900W        W42765   4.376  19.130   1.858
41901W        W42766   3.930  20.330   2.632
41902W        W42767   5.789  21.523   1.338
41903W        W42768   6.983  19.120   2.210
41904W        W42769   5.620  21.467   2.977
41905W        W42770   6.963  20.526   0.182
41906W        W42771   5.398  20.009   1.243
41907W        W42772   7.250  18.520   2.984
41908W        W42773   5.399  20.355   2.578
41909W        W42774   5.616  19.241   2.023
41910W        W42775   6.468  19.539   0.861
41911W        W42776   6.755  19.272   0.503
41912W        W42777   6.564  21.312   0.892
41913W        W42778   6.398  20.915   1.688
41914W        W42779   6.294  19.994   0.666
41915W        W42780   5.727  20.204   1.652
41916W        W42781   6.608  19.992   1.719
41917W        W42782   3.983  19.007   2.143
41918W        W42783   6.761  20.059   2.970
41919W        W42784   7.112  21.677   2.116
41920W        W42785   5.042  21.121   1.518
41921W        W42786   6.049  21.654   2.842
41922W        W42787   6.043  18.984   2.606
41923W        W42788   5.250  21.692   2.667
41924W        W42789   6.947  18.646   1.133
41925W        W42790   6.738  19.965   2.434
41926W        W42791   3.721  19.286   2.472
41927W        W42792   6.581  19.081   1.490
41928W        W42793   6.992  19.232   3.267
41929W        W42794   5.877  20.931   1.485
41930W        W42795   5.133  21.522   1.098
41931W        W42796   4.248  18.702   0.356
41932W        W42797   5.352  18.356   2.166
41933W        W42798   4.380  21.476   0.014
41934W        W42799   4.754  19.942   0.765
41935W        W42800   5.408  20.571   3.078
41936W        W42801   5.238  18.929   1.068
41937W        W42802   6.594  18.526   1.496
41938W        W42803   6.314  21.808   1.824
41939W        W42804   5.726  21.456   2.164
41940W        W42805   5.122  20.493   2.125
41941W        W42806   6.892  21.216   2.251
41942W        W42807   4.586  18.719   1.020
41943W        W42808   5.108  21.016   1.980
41944W        W42809   4.591  18.947   0.045
41945W        W42810   5.392  19.556   2.439
41946W        W42811   6.240  18.422   2.309
41947W        W42812   3.660  20.265   2.194
41948W        W42813   5.364  20.083   0.352
41949W        W42814   4.632  18.398   0.122
41950W        W42815   5.370  19.479   1.173
41951W        W42816   6.340  18.455   2.872
41952W        W42817   4.928  20.467   2.981
41953W        W42818   5.732  20.249   3.198
41954W        W42819   6.349  20.279   3.091
41955W        W42820   5.633  18.419   3.596
41956W        W42821   4.855  19.035   1.989
41957W        W42822   4.281  18.991   1.387
41958W        W42823   4.067  21.703   1.063
41959W        W42824   5.399  21.033   3.188
41960W        W42825   4.434  20.518   0.547
41961W        W42826   6.114  19.903   1.768
41962W        W42827   6.394  19.702   2.167
41963W        W42828   5.599  20.376   2.101
41964W        W42829   6.069  20.750   0.233
41965W        W42830   5.741  18.771   1.561
41966W        W42831   7.220  19.049   0.829
41967W        W42832   3.714  21.638   2.860
41968W        W42833   4.131  20.864   2.392
41969W        W42834   3.698  21.710   0.624
41970W        W42835   5.597  18.980   2.430
41971W        W42836   4.960  21.003   0.279
41972W        W42837   6.865  21.385   0.465
41973W        W42838   5.840  20.038   0.479
41974W        W42839   4.683  19.229   0.996
41975W        W42840   5.515  19.139   0.048
41976W        W42841   6.099  20.704   3.226
41977W        W42842   6.452  18.610   0.843
41978W        W42843   3.782  18.458   0.291
41979W        W42844   5.068  20.777   2.581
41980W        W42845   4.867  20.693   1.673
41981W        W42846   4.609  20.645   0.071
41982W        W42847   3.850  20.886   0.839
41983W        W42848   4.354  19.956   3.281
41984W        W42849   5.058  18.516   3.467
41985W        W42850   5.767  18.658   2.823
41986W        W42851   4.962  18.426   1.104
41987W        W42852   6.021  18.503   0.609
41988W        W42853   3.966  18.435   2.186
41989W        W42854   4.014  19.398   1.556
41990W        W42855   6.703  18.506   1.962
41991W        W42856   4.125  19.004   0.776
41992W        W42857   6.696  18.692   2.392
41993W        W42858   7.092  19.895   0.077
41994W        W42859   4.384  18.653   1.896
41995W        W42860   5.498  19.225   2.836
41996W        W42861   3.646  18.915   0.314
41997W        W42862   4.432  20.304   2.875
41998W        W42863   5.790  19.702   2.054
41999W        W42864   5.657  21.781   0.350
42000W        W42865   3.803  20.288   0.047
42001W        W42866   4.538  20.699   3.173
42002W        W42867   4.059  19.866   2.804
42003W        W42868   5.050  19.971   2.598
42004W        W42869   6.818  18.330   2.860
42005W        W42870   7.216  19.940   2.851
42006W        W42871   7.204  20.140   0.537
42007W        W42872   6.067  20.472   0.636
42008W        W42873   6.541  21.772   0.331
42009W        W42874   5.718  19.762   3.473
42010W        W42875   4.048  20.729   3.513
42011W        W42876   7.254  18.651   3.465
42012W        W42877   6.972  19.579   2.086
42013W        W42878   5.280  21.709   3.563
42014W        W42879   5.135  18.338   0.290
42015W        W42880   6.674  20.937   0.233
42016W        W42881   4.443  19.030   3.119
42017W        W42882   4.877  21.024   2.981
42018W        W42883   7.003  19.015   2.779
42019W        W42884   6.214  21.674   0.747
42020W        W42885   6.453  20.293   2.114
42021W        W42886   4.703  18.709   2.781
42022W        W42887   5.172  19.778   3.538
42023W        W42888   4.675  20.957   0.732
42024W        W42889   6.430  20.455   0.996
42025W        W42890   4.198  19.081   2.720
42026W        W42891   5.527  21.143   1.184
42027W        W42892   7.277  19.703   1.365
42028W        W42893   5.499  18.336   3.084
42029W        W42894   6.279  21.041   2.163
42030W        W42895   6.582  21.385   1.871
42031W        W42896   5.801  21.187   0.299
42032W        W42897   3.811  21.079   3.141
42033W        W42898   4.554  19.071   2.379
42034W        W42899   4.524  18.419   1.489
42035W        W42900   6.145  19.261   2.181
42036W        W42901   4.943  20.432   0.381
42037W        W42902   6.941  20.374   1.880
42038W        W42903   4.268  21.132   3.303
42039W        W42904   6.655  21.814   1.100
42040W        W42905   4.754  18.834   1.545
42041W        W42906   4.523  20.327   1.635
42042W        W42907   4.836  21.738   2.385
42043W        W42908   6.903  21.834   3.417
42044W        W42909   6.062  20.022   2.350
42045W        W42910   3.911  19.820   0.265
42046W        W42911   7.045  21.478   0.962
42047W        W42912   6.882  18.802   0.581
42048W        W42913   5.021  18.321   2.984
42049W        W42914   6.727  21.123   1.442
42050W        W42915   6.756  19.679   1.347
42051W        W42916   4.873  19.352   1.563
42052W        W42917   5.118  19.614   2.887
42053W        W42918   6.229  20.767   2.750
42054W        W42919   4.879  19.221   2.862
42055W        W42920   4.858  21.687   1.478
42056W        W42921   4.175  21.646   3.112
42057W        W42922   4.287  21.007   0.242
42058W        W42923   6.804  20.765   1.052
42059W        W42924   4.408  19.557   2.938
42060W        W42925   7.181  19.487   0.419
42061W        W42926   4.926  20.544   0.890
42062W        W42927   6.025  19.926   2.971
42063W        W42928   5.916  19.554   2.515
42064W        W42929   4.476  19.926   2.544
42065W        W42930   6.686  21.814   2.373
42066W        W42931   6.477  18.448   3.367
42067W        W42932   4.141  18.598   2.954
42068W        W42933   4.480  19.621   2.007
42069W        W42934   4.849  19.435   0.129
42070W        W42935   3.652  21.194   2.674
42071W        W42936   5.237  19.903   2.117
42072W        W42937   5.060  18.928   0.222
42073W        W42938   4.195  19.744   1.003
42074W        W42939   3.966  21.596   2.440
42075W        W42940   6.761  19.822   0.548
42076W        W42941   6.856  18.738   3.234
42077W        W42942   6.292  20.947   1.197
42078W        W42943   3.890  19.871   3.374
42079W        W42944   6.856  18.335   0.670
42080W        W42945   6.376  20.810   0.681
42081W        W42946   5.278  19.868   0.766
42082W        W42947   6.465  18.672   0.289
42083W        W42948   6.530  19.279   2.475
42084W        W42949   4.239  19.872   1.682
42085W        W42950   4.533  20.811   1.331
42086W        W42951   6.296  19.431   1.296
42087W        W42952   5.319  18.810   1.992
42088W        W42953   7.281  20.721   2.503
42089W        W42954   7.199  18.708   2.064
42090W        W42955   3.738  21.538   1.440
42091W        W42956   4.247  20.725   0.976
42092W        W42957   4.162  18.342   3.529
42093W        W42958   5.281  21.195   3.631
42094W        W42959   7.036  20.163   1.421
42095W        W42960   6.390  20.340   0.301
42096W        W42961   5.685  21.861   2.513
42097W        W42962   6.542  20.583   3.550
42098W        W42963   5.357  18.293   0.830
42099W        W42964   6.070  19.162   1.689
42100W        W42965   3.756  20.749   2.021
42101W        W42966   5.009  18.711   0.662
42102W        W42967   4.813  20.195   3.511
42103W        W42968   5.807  19.176   1.225
42104W        W42969   6.012  20.586   2.347
42105W        W42970   4.166  21.191   2.782
42106W        W42971   4.757  21.174   3.505
42107W        W42972   4.608  18.971   0.519
42108W        W42973   6.125  19.113   0.844
42109W        W42974   6.083  21.221   3.081
42110W        W42975   4.768  19.813   1.680
42111W        W42976   4.423  21.511   2.545
42112W        W42977   7.168  21.628   0.146
42113W        W42978   4.031  20.300   3.142
42114W        W42979   6.026  20.562   1.830
42115W        W42980   4.462  20.211   1.072
42116W        W42981   4.833  21.218   2.467
42117W        W42982   5.211  18.637   1.508
42118W        W42983   3.822  20.621   0.438
42119W        W42984   5.341  19.572   0.308
42120W        W42985   3.987  20.121   1.327
42121W        W42986   5.277  18.763   2.791
42122W        W42987   6.949  18.472   0.218
42123W        W42988   7.042  20.218   3.317
42124W        W42989   5.696  21.475   3.469
42125W        W42990   7.254  20.569   2.991
42126W        W42991   6.662  21.367   3.602
42127W        W42992   4.401  21.823   2.080
42128W        W42993   7.260  20.445   0.954
42129W        W42994   5.790  19.712   1.467
42130W        W42995   5.557  18.324   1.357
42131W        W42996   4.616  21.308   1.194
42132W        W42997   5.115  19.049   2.419
42133W        W42998   4.815  18.418   1.888
42134W        W42999   3.878  21.240   0.436
42135W        W43000   5.694  20.604   1.154
42136W        W43001   4.569  21.399   3.033
42137W        W43002   4.046  20.222   0.729
42138W        W43003   3.931  18.765   1.728
42139W        W43004   5.479  20.730   1.785
42140W        W43005   3.731  18.584   0.805
42141W        W43006   6.395  19.790   2.732
42142W        W43007   6.272  19.176   0.304
42143W        W43008   6.789  20.848   1.952
42144W        W43009   5.450  21.332   1.783
42145W        W43010   4.862  21.436   0.694
42146W        W43011   6.144  18.339   0.124
42147W        W43012   3.944  21.599   1.865
42148W        W43013   6.141  19.357   3.500
42149W        W43014   4.124  18.887   3.499
42150W        W43015   3.855  19.487   0.832
42151W        W43016   4.546  19.476   0.557
42152W        W43017   6.309  19.803   3.374
42153W        W43018   4.652  20.084   2.083
42154W        W43019   6.126  18.370   1.203
42155W        W43020   5.257  21.801   1.706
42156W        W43021   6.471  21.263   2.643
42157W        W43022   6.055  21.412   1.754
42158W        W43023   6.074  20.392   1.348
42159W        W43024   5.536  18.617   0.419
42160W        W43025   7.217  18.245   1.141
42161W        W43026   4.905  19.880   0.304
42162W        W43027   7.071  19.217   1.294
42163W        W43028   5.763  20.387   0.171
42164W        W43029   6.699  20.587   2.919
42165W        W43030   6.353  21.288   0.386
42166W        W43031   4.968  18.963   3.292
42167W        W43032   4.788  19.547   2.533
42168W        W43033   6.880  21.042   2.810
42169W        W43034   5.980  18.992   3.187
42170W        W43035   3.824  19.463   2.964
42171W        W43036   5.584  19.940   2.690
42172W        W43037   3.941  20.698   1.347
42173W        W43038   4.088  19.995   2.237
42174W        W43039   6.405  20.281   2.587
42175W        W43040   6.177  21.661   3.398
42176W        W43041   6.073  19.400   2.951
42177W        W43042   6.350  21.454   1.356
42178W        W43043   5.352  21.174   2.679
42179W        W43044   4.837  21.529   1.948
42180W        W43045   6.642  20.700   2.367
42181W        W43046   5.692  20.772   3.504
42182W        W43047   4.297  20.725   1.843
42183W        W43048   6.643  20.484   1.488
42184W        W43049   6.284  21.550   2.239
42185W        W43050   4.262  21.279   2.109
42186W        W43051   5.283  19.331   3.319
42187W        W43052   5.734  21.497   0.830
42188W        W43053   5.042  20.752   3.468
42189W        W43054   5.168  20.990   0.845
42190W        W43055   4.389  19.730   0.104
42191W        W43056   3.728  21.816   7.003
42192W        W43057   4.104  20.709   6.526
42193W        W43058   6.809  20.439   4.296
42194W        W43059   6.939  21.524   6.323
42195W        W43060   4.857  21.515   3.849
42196W        W43061   4.940  19.667   4.832
42197W        W43062   4.455  19.515   4.996
42198W        W43063   5.446  20.330   4.430
42199W        W43064   5.121  21.422   6.785
42200W        W43065   3.770  18.983   6.748
42201W        W43066   4.532  18.263   6.550
42202W        W43067   6.226  18.651   5.437
42203W        W43068   5.875  19.522   4.007
42204W        W43069   6.445  18.956   7.098
42205W        W43070   3.811  18.748   6.223
42206W        W43071   3.910  21.367   7.244
42207W        W43072   5.432  20.757   3.976
42208W        W43073   3.864  19.540   5.669
42209W        W43074   4.757  19.431   6.906
42210W        W43075   7.216  19.290   5.405
42211W        W43076   6.980  20.333   6.264
42212W        W43077   5.288  19.666   5.291
42213W        W43078   5.834  21.005   5.660
42214W        W43079   4.334  20.439   5.892
42215W        W43080   3.693  19.967   5.463
42216W        W43081   4.729  19.939   6.655
42217W        W43082   7.000  19.722   6.909
42218W        W43083   4.616  21.166   5.354
42219W        W43084   5.737  20.855   6.488
42220W        W43085   4.957  19.495   5.713
42221W        W43086   5.249  20.279   5.356
42222W        W43087   6.246  21.052   7.204
42223W        W43088   5.325  20.372   7.214
42224W        W43089   5.306  20.088   6.692
42225W        W43090   3.715  19.479   7.214
42226W        W43091   6.547  21.014   6.813
42227W        W43092   4.128  18.596   4.811
42228W        W43093   4.655  20.854   5.810
42229W        W43094   7.118  20.637   5.100
42230W        W43095   6.531  19.037   5.667
42231W        W43096   6.816  18.990   3.762
42232W        W43097   7.281  19.791   6.068
42233W        W43098   5.248  21.498   5.821
42234W        W43099   7.022  20.964   4.259
42235W        W43100   4.151  21.750   4.013
42236W        W43101   4.544  21.796   4.689
42237W        W43102   4.341  18.550   6.115
42238W        W43103   6.964  19.568   6.390
42239W        W43104   6.369  19.990   4.849
42240W        W43105   6.335  19.678   3.876
42241W        W43106   5.543  20.822   6.016
42242W        W43107   5.349  19.152   5.215
42243W        W43108   5.949  21.239   6.209
42244W        W43109   6.820  20.030   4.631
42245W        W43110   5.722  18.688   4.647
42246W        W43111   4.379  21.382   4.330
42247W        W43112   3.750  18.881   4.929
42248W        W43113   6.536  19.488   5.403
42249W        W43114   3.994  21.105   5.318
42250W        W43115   5.335  21.455   4.188
42251W        W43116   6.727  19.481   3.652
42252W        W43117   3.750  21.239   5.816
42253W        W43118   4.541  20.811   6.296
42254W        W43119   4.914  20.171   4.915
42255W        W43120   4.936  18.576   6.008
42256W        W43121   7.165  18.338   5.305
42257W        W43122   4.384  20.210   3.773
42258W        W43123   4.039  19.243   3.952
42259W        W43124   4.101  21.199   4.746
42260W        W43125   5.232  20.682   4.994
42261W        W43126   6.564  21.541   6.708
42262W        W43127   5.490  19.183   4.392
42263W        W43128   6.873  21.581   5.164
42264W        W43129   6.550  19.434   6.762
42265W        W43130   7.263  21.090   4.896
42266W        W43131   5.890  20.382   6.380
42267W        W43132   3.656  19.933   4.586
42268W        W43133   4.767  20.348   6.159
42269W        W43134   5.971  19.612   4.537
42270W        W43135   5.848  20.102   4.641
42271W        W43136   4.191  19.522   6.115
42272W        W43137   4.176  19.398   7.037
42273W        W43138   4.066  18.315   5.196
42274W        W43139   5.834  18.662   5.757
42275W        W43140   5.482  18.847   6.920
42276W        W43141   5.837  18.996   4.098
42277W        W43142   7.020  21.389   6.852
42278W        W43143   5.987  18.470   6.891
42279W        W43144   7.006  20.771   7.013
42280W        W43145   6.436  18.938   6.609
42281W        W43146   6.236  18.876   4.879
42282W        W43147   6.629  20.010   7.283
42283W        W43148   4.369  21.586   5.269
42284W        W43149   5.027  19.303   4.255
42285W        W43150   4.596  18.587   6.919
42286W        W43151   6.648  19.071   4.600
42287W        W43152   7.015  19.553   4.545
42288W        W43153   4.758  21.770   7.016
42289W        W43154   4.684  18.306   4.251
42290W        W43155   7.005  18.840   5.286
42291W        W43156   7.155  21.089   3.731
42292W        W43157   4.062  20.292   5.433
42293W        W43158   5.979  18.879   3.663
42294W        W43159   7.113  21.211   5.383
42295W        W43160   7.152  18.405   6.133
42296W        W43161   5.597  19.617   6.687
42297W        W43162   5.690  20.956   4.390
42298W        W43163   6.090  20.250   7.130
42299W        W43164   5.764  18.227   5.439
42300W        W43165   4.376  19.130   5.502
42301W        W43166   3.930  20.330   6.276
42302W        W43167   5.789  21.523   4.982
42303W        W43168   6.983  19.120   5.854
42304W        W43169   5.620  21.467   6.621
42305W        W43170   6.963  20.526   3.826
42306W        W43171   5.398  20.009   4.887
42307W        W43172   7.250  18.520   6.628
42308W        W43173   5.399  20.355   6.222
42309W        W43174   5.616  19.241   5.667
42310W        W43175   6.468  19.539   4.505
42311W        W43176   6.755  19.272   4.147
42312W        W43177   6.564  21.312   4.536
42313W        W43178   6.398  20.915   5.332
42314W        W43179   6.294  19.994   4.310
42315W        W43180   5.727  20.204   5.296
42316W        W43181   6.608  19.992   5.363
42317W        W43182   3.983  19.007   5.787
42318W        W43183   6.761  20.059   6.614
42319W        W43184   7.112  21.677   5.760
42320W        W43185   5.042  21.121   5.162
42321W        W43186   6.049  21.654   6.486
42322W        W43187   6.043  18.984   6.250
42323W        W43188   5.250  21.692   6.311
42324W        W43189   6.947  18.646   4.777
42325W        W43190   6.738  19.965   6.078
42326W        W43191   3.721  19.286   6.116
42327W        W43192   6.581  19.081   5.134
42328W        W43193   6.992  19.232   6.911
42329W        W43194   5.877  20.931   5.129
42330W        W43195   5.133  21.522   4.742
42331W        W43196   4.248  18.702   4.000
42332W        W43197   5.352  18.356   5.810
42333W        W43198   4.380  21.476   3.658
42334W        W43199   4.754  19.942   4.409
42335W        W43200   5.408  20.571   6.722
42336W        W43201   5.238  18.929   4.712
42337W        W43202   6.594  18.526   5.140
42338W        W43203   6.314  21.808   5.468
42339W        W43204   5.726  21.456   5.808
42340W        W43205   5.122  20.493   5.769
42341W        W43206   6.892  21.216   5.895
42342W        W43207   4.586  18.719   4.664
42343W        W43208   5.108  21.016   5.624
42344W        W43209   4.591  18.947   3.689
42345W        W43210   5.392  19.556   6.083
42346W        W43211   6.240  18.422   5.953
42347W        W43212   3.660  20.265   5.838
42348W        W43213   5.364  20.083   3.996
42349W        W43214   4.632  18.398   3.766
42350W        W43215   5.370  19.479   4.817
42351W        W43216   6.340  18.455   6.516
42352W        W43217   4.928  20.467   6.625
42353W        W43218   5.732  20.249   6.842
42354W        W43219   6.349  20.279   6.735
42355W        W43220   5.633  18.419   7.240
42356W        W43221   4.855  19.035   5.633
42357W        W43222   4.281  18.991   5.031
42358W        W43223   4.067  21.703   4.707
42359W        W43224   5.399  21.033   6.832
42360W        W43225   4.434  20.518   4.191
42361W        W43226   6.114  19.903   5.412
42362W        W43227   6.394  19.702   5.811
42363W        W43228   5.599  20.376   5.745
42364W        W43229   6.069  20.750   3.877
42365W        W43230   5.741  18.771   5.205
42366W        W43231   7.220  19.049   4.473
42367W        W43232   3.714  21.638   6.504
42368W        W43233   4.131  20.864   6.036
42369W        W43234   3.698  21.710   4.268
42370W        W43235   5.597  18.980   6.074
42371W        W43236   4.960  21.003   3.923
42372W        W43237   6.865  21.385   4.109
42373W        W43238   5.840  20.038   4.123
42374W        W43239   4.683  19.229   4.640
42375W        W43240   5.515  19.139   3.692
42376W        W43241   6.099  20.704   6.870
42377W        W43242   6.452  18.610   4.487
42378W        W43243   3.782  18.458   3.935
42379W        W43244   5.068  20.777   6.225
42380W        W43245   4.867  20.693   5.317
42381W        W43246   4.609  20.645   3.715
42382W        W43247   3.850  20.886   4.483
42383W        W43248   4.354  19.956   6.925
42384W        W43249   5.058  18.516   7.111
42385W        W43250   5.767  18.658   6.467
42386W        W43251   4.962  18.426   4.748
42387W        W43252   6.021  18.503   4.253
42388W        W43253   3.966  18.435   5.830
42389W        W43254   4.014  19.398   5.200
42390W        W43255   6.703  18.506   5.606
42391W        W43256   4.125  19.004   4.420
42392W        W43257   6.696  18.692   6.036
42393W        W43258   7.092  19.895   3.721
42394W        W43259   4.384  18.653   5.540
42395W        W43260   5.498  19.225   6.480
42396W        W43261   3.646  18.915   3.958
42397W        W43262   4.432  20.304   6.519
42398W        W43263   5.790  19.702   5.698
42399W        W43264   5.657  21.781   3.994
42400W        W43265   3.803  20.288   3.691
42401W        W43266   4.538  20.699   6.817
42402W        W43267   4.059  19.866   6.448
42403W        W43268   5.050  19.971   6.242
42404W        W43269   6.818  18.330   6.504
42405W        W43270   7.216  19.940   6.495
42406W        W43271   7.204  20.140   4.181
42407W        W43272   6.067  20.472   4.280
42408W        W43273   6.541  21.772   3.975
42409W        W43274   5.718  19.762   7.117
42410W        W43275   4.048  20.729   7.157
42411W        W43276   7.254  18.651   7.109
42412W        W43277   6.972  19.579   5.730
42413W        W43278   5.280  21.709   7.207
42414W        W43279   5.135  18.338   3.934
42415W        W43280   6.674  20.937   3.877
42416W        W43281   4.443  19.030   6.763
42417W        W43282   4.877  21.024   6.625
42418W        W43283   7.003  19.015   6.423
42419W        W43284   6.214  21.674   4.391
42420W        W43285   6.453  20.293   5.758
42421W        W43286   4.703  18.709   6.425
42422W        W43287   5.172  19.778   7.182
42423W        W43288   4.675  20.957   4.376
42424W        W43289   6.430  20.455   4.640
42425W        W43290   4.198  19.081   6.364
42426W        W43291   5.527  21.143   4.828
42427W        W43292   7.277  19.703   5.009
42428W        W43293   5.499  18.336   6.728
42429W        W43294   6.279  21.041   5.807
42430W        W43295   6.582  21.385   5.515
42431W        W43296   5.801  21.187   3.943
42432W        W43297   3.811  21.079   6.785
42433W        W43298   4.554  19.071   6.023
42434W        W43299   4.524  18.419   5.133
42435W        W43300   6.145  19.261   5.825
42436W        W43301   4.943  20.432   4.025
42437W        W43302   6.941  20.374   5.524
42438W        W43303   4.268  21.132   6.947
42439W        W43304   6.655  21.814   4.744
42440W        W43305   4.754  18.834   5.189
42441W        W43306   4.523  20.327   5.279
42442W        W43307   4.836  21.738   6.029
42443W        W43308   6.903  21.834   7.061
42444W        W43309   6.062  20.022   5.994
42445W        W43310   3.911  19.820   3.909
42446W        W43311   7.045  21.478   4.606
42447W        W43312   6.882  18.802   4.225
42448W        W43313   5.021  18.321   6.628
42449W        W43314   6.727  21.123   5.086
42450W        W43315   6.756  19.679   4.991
42451W        W43316   4.873  19.352   5.207
42452W        W43317   5.118  19.614   6.531
42453W        W43318   6.229  20.767   6.394
42454W        W43319   4.879  19.221   6.506
42455W        W43320   4.858  21.687   5.122
42456W        W43321   4.175  21.646   6.756
42457W        W43322   4.287  21.007   3.886
42458W        W43323   6.804  20.765   4.696
42459W        W43324   4.408  19.557   6.582
42460W        W43325   7.181  19.487   4.063
42461W        W43326   4.926  20.544   4.534
42462W        W43327   6.025  19.926   6.615
42463W        W43328   5.916  19.554   6.159
42464W        W43329   4.476  19.926   6.188
42465W        W43330   6.686  21.814   6.017
42466W        W43331   6.477  18.448   7.011
42467W        W43332   4.141  18.598   6.598
42468W        W43333   4.480  19.621   5.651
42469W        W43334   4.849  19.435   3.773
42470W        W43335   3.652  21.194   6.318
42471W        W43336   5.237  19.903   5.761
42472W        W43337   5.060  18.928   3.866
42473W        W43338   4.195  19.744   4.647
42474W        W43339   3.966  21.596   6.084
42475W        W43340   6.761  19.822   4.192
42476W        W43341   6.856  18.738   6.878
42477W        W43342   6.292  20.947   4.841
42478W        W43343   3.890  19.871   7.018
42479W        W43344   6.856  18.335   4.314
42480W        W43345   6.376  20.810   4.325
42481W        W43346   5.278  19.868   4.410
42482W        W43347   6.465  18.672   3.933
42483W        W43348   6.530  19.279   6.119
42484W        W43349   4.239  19.872   5.326
42485W        W43350   4.533  20.811   4.975
42486W        W43351   6.296  19.431   4.940
42487W        W43352   5.319  18.810   5.636
42488W        W43353   7.281  20.721   6.147
42489W        W43354   7.199  18.708   5.708
42490W        W43355   3.738  21.538   5.084
42491W        W43356   4.247  20.725   4.620
42492W        W43357   4.162  18.342   7.173
42493W        W43358   5.281  21.195   7.275
42494W        W43359   7.036  20.163   5.065
42495W        W43360   6.390  20.340   3.945
42496W        W43361   5.685  21.861   6.157
42497W        W43362   6.542  20.583   7.194
42498W        W43363   5.357  18.293   4.474
42499W        W43364   6.070  19.162   5.333
42500W        W43365   3.756  20.749   5.665
42501W        W43366   5.009  18.711   4.306
42502W        W43367   4.813  20.195   7.155
42503W        W43368   5.807  19.176   4.869
42504W        W43369   6.012  20.586   5.991
42505W        W43370   4.166  21.191   6.426
42506W        W43371   4.757  21.174   7.149
42507W        W43372   4.608  18.971   4.163
42508W        W43373   6.125  19.113   4.488
42509W        W43374   6.083  21.221   6.725
42510W        W43375   4.768  19.813   5.324
42511W        W43376   4.423  21.511   6.189
42512W        W43377   7.168  21.628   3.790
42513W        W43378   4.031  20.300   6.786
42514W        W43379   6.026  20.562   5.474
42515W        W43380   4.462  20.211   4.716
42516W        W43381   4.833  21.218   6.111
42517W        W43382   5.211  18.637   5.152
42518W        W43383   3.822  20.621   4.082
42519W        W43384   5.341  19.572   3.952
42520W        W43385   3.987  20.121   4.971
42521W        W43386   5.277  18.763   6.435
42522W        W43387   6.949  18.472   3.862
42523W        W43388   7.042  20.218   6.961
42524W        W43389   5.696  21.475   7.113
42525W        W43390   7.254  20.569   6.635
42526W        W43391   6.662  21.367   7.246
42527W        W43392   4.401  21.823   5.724
42528W        W43393   7.260  20.445   4.598
42529W        W43394   5.790  19.712   5.111
42530W        W43395   5.557  18.324   5.001
42531W        W43396   4.616  21.308   4.838
42532W        W43397   5.115  19.049   6.063
42533W        W43398   4.815  18.418   5.532
42534W        W43399   3.878  21.240   4.080
42535W        W43400   5.694  20.604   4.798
42536W        W43401   4.569  21.399   6.677
42537W        W43402   4.046  20.222   4.373
42538W        W43403   3.931  18.765   5.372
42539W        W43404   5.479  20.730   5.429
42540W        W43405   3.731  18.584   4.449
42541W        W43406   6.395  19.790   6.376
42542W        W43407   6.272  19.176   3.948
42543W        W43408   6.789  20.848   5.596
42544W        W43409   5.450  21.332   5.427
42545W        W43410   4.862  21.436   4.338
42546W        W43411   6.144  18.339   3.768
42547W        W43412   3.944  21.599   5.509
42548W        W43413   6.141  19.357   7.144
42549W        W43414   4.124  18.887   7.143
42550W        W43415   3.855  19.487   4.476
42551W        W43416   4.546  19.476   4.201
42552W        W43417   6.309  19.803   7.018
42553W        W43418   4.652  20.084   5.727
42554W        W43419   6.126  18.370   4.847
42555W        W43420   5.257  21.801   5.350
42556W        W43421   6.471  21.263   6.287
42557W        W43422   6.055  21.412   5.398
42558W        W43423   6.074  20.392   4.992
42559W        W43424   5.536  18.617   4.063
42560W        W43425   7.217  18.245   4.785
42561W        W43426   4.905  19.880   3.948
42562W        W43427   7.071  19.217   4.938
42563W        W43428   5.763  20.387   3.815
42564W        W43429   6.699  20.587   6.563
42565W        W43430   6.353  21.288   4.030
42566W        W43431   4.968  18.963   6.936
42567W        W43432   4.788  19.547   6.177
42568W        W43433   6.880  21.042   6.454
42569W        W43434   5.980  18.992   6.831
42570W        W43435   3.824  19.463   6.608
42571W        W43436   5.584  19.940   6.334
42572W        W43437   3.941  20.698   4.991
42573W        W43438   4.088  19.995   5.881
42574W        W43439   6.405  20.281   6.231
42575W        W43440   6.177  21.661   7.042
42576W        W43441   6.073  19.400   6.595
42577W        W43442   6.350  21.454   5.000
42578W        W43443   5.352  21.174   6.323
42579W        W43444   4.837  21.529   5.592
42580W        W43445   6.642  20.700   6.011
42581W        W43446   5.692  20.772   7.148
42582W        W43447   4.297  20.725   5.487
42583W        W43448   6.643  20.484   5.132
42584W        W43449   6.284  21.550   5.883
42585W        W43450   4.262  21.279   5.753
42586W        W43451   5.283  19.331   6.963
42587W        W43452   5.734  21.497   4.474
42588W        W43453   5.042  20.752   7.112
42589W        W43454   5.168  20.990   4.489
42590W        W43455   4.389  19.730   3.748
42591W        W43456   3.728  21.816  10.648
42592W        W43457   4.104  20.709  10.171
42593W        W43458   6.809  20.439   7.941
42594W        W43459   6.939  21.524   9.968
42595W        W43460   4.857  21.515   7.494
42596W        W43461   4.940  19.667   8.477
42597W        W43462   4.455  19.515   8.641
42598W        W43463   5.446  20.330   8.075
42599W        W43464   5.121  21.422  10.430
42600W        W43465   3.770  18.983  10.393
42601W        W43466   4.532  18.263  10.195
42602W        W43467   6.226  18.651   9.082
42603W        W43468   5.875  19.522   7.652
42604W        W43469   6.445  18.956  10.743
42605W        W43470   3.811  18.748   9.868
42606W        W43471   3.910  21.367  10.889
42607W        W43472   5.432  20.757   7.621
42608W        W43473   3.864  19.540   9.314
42609W        W43474   4.757  19.431  10.551
42610W        W43475   7.216  19.290   9.050
42611W        W43476   6.980  20.333   9.909
42612W        W43477   5.288  19.666   8.936
42613W        W43478   5.834  21.005   9.305
42614W        W43479   4.334  20.439   9.537
42615W        W43480   3.693  19.967   9.108
42616W        W43481   4.729  19.939  10.300
42617W        W43482   7.000  19.722  10.554
42618W        W43483   4.616  21.166   8.999
42619W        W43484   5.737  20.855  10.133
42620W        W43485   4.957  19.495   9.358
42621W        W43486   5.249  20.279   9.001
42622W        W43487   6.246  21.052  10.849
42623W        W43488   5.325  20.372  10.859
42624W        W43489   5.306  20.088  10.337
42625W        W43490   3.715  19.479  10.859
42626W        W43491   6.547  21.014  10.458
42627W        W43492   4.128  18.596   8.456
42628W        W43493   4.655  20.854   9.455
42629W        W43494   7.118  20.637   8.745
42630W        W43495   6.531  19.037   9.312
42631W        W43496   6.816  18.990   7.407
42632W        W43497   7.281  19.791   9.713
42633W        W43498   5.248  21.498   9.466
42634W        W43499   7.022  20.964   7.904
42635W        W43500   4.151  21.750   7.658
42636W        W43501   4.544  21.796   8.334
42637W        W43502   4.341  18.550   9.760
42638W        W43503   6.964  19.568  10.035
42639W        W43504   6.369  19.990   8.494
42640W        W43505   6.335  19.678   7.521
42641W        W43506   5.543  20.822   9.661
42642W        W43507   5.349  19.152   8.860
42643W        W43508   5.949  21.239   9.854
42644W        W43509   6.820  20.030   8.276
42645W        W43510   5.722  18.688   8.292
42646W        W43511   4.379  21.382   7.975
42647W        W43512   3.750  18.881   8.574
42648W        W43513   6.536  19.488   9.048
42649W        W43514   3.994  21.105   8.963
42650W        W43515   5.335  21.455   7.833
42651W        W43516   6.727  19.481   7.297
42652W        W43517   3.750  21.239   9.461
42653W        W43518   4.541  20.811   9.941
42654W        W43519   4.914  20.171   8.560
42655W        W43520   4.936  18.576   9.653
42656W        W43521   7.165  18.338   8.950
42657W        W43522   4.384  20.210   7.418
42658W        W43523   4.039  19.243   7.597
42659W        W43524   4.101  21.199   8.391
42660W        W43525   5.232  20.682   8.639
42661W        W43526   6.564  21.541  10.353
42662W        W43527   5.490  19.183   8.037
42663W        W43528   6.873  21.581   8.809
42664W        W43529   6.550  19.434  10.407
42665W        W43530   7.263  21.090   8.541
42666W        W43531   5.890  20.382  10.025
42667W        W43532   3.656  19.933   8.231
42668W        W43533   4.767  20.348   9.804
42669W        W43534   5.971  19.612   8.182
42670W        W43535   5.848  20.102   8.286
42671W        W43536   4.191  19.522   9.760
42672W        W43537   4.176  19.398  10.682
42673W        W43538   4.066  18.315   8.841
42674W        W43539   5.834  18.662   9.402
42675W        W43540   5.482  18.847  10.565
42676W        W43541   5.837  18.996   7.743
42677W        W43542   7.020  21.389  10.497
42678W        W43543   5.987  18.470  10.536
42679W        W43544   7.006  20.771  10.658
42680W        W43545   6.436  18.938  10.254
42681W        W43546   6.236  18.876   8.524
42682W        W43547   6.629  20.010  10.928
42683W        W43548   4.369  21.586   8.914
42684W        W43549   5.027  19.303   7.900
42685W        W43550   4.596  18.587  10.564
42686W        W43551   6.648  19.071   8.245
42687W        W43552   7.015  19.553   8.190
42688W        W43553   4.758  21.770  10.661
42689W        W43554   4.684  18.306   7.896
42690W        W43555   7.005  18.840   8.931
42691W        W43556   7.155  21.089   7.376
42692W        W43557   4.062  20.292   9.078
42693W        W43558   5.979  18.879   7.308
42694W        W43559   7.113  21.211   9.028
42695W        W43560   7.152  18.405   9.778
42696W        W43561   5.597  19.617  10.332
42697W        W43562   5.690  20.956   8.035
42698W        W43563   6.090  20.250  10.775
42699W        W43564   5.764  18.227   9.084
42700W        W43565   4.376  19.130   9.147
42701W        W43566   3.930  20.330   9.921
42702W        W43567   5.789  21.523   8.627
42703W        W43568   6.983  19.120   9.499
42704W        W43569   5.620  21.467  10.266
42705W        W43570   6.963  20.526   7.471
42706W        W43571   5.398  20.009   8.532
42707W        W43572   7.250  18.520  10.273
42708W        W43573   5.399  20.355   9.867
42709W        W43574   5.616  19.241   9.312
42710W        W43575   6.468  19.539   8.150
42711W        W43576   6.755  19.272   7.792
42712W        W43577   6.564  21.312   8.181
42713W        W43578   6.398  20.915   8.977
42714W        W43579   6.294  19.994   7.955
42715W        W43580   5.727  20.204   8.941
42716W        W43581   6.608  19.992   9.008
42717W        W43582   3.983  19.007   9.432
42718W        W43583   6.761  20.059  10.259
42719W        W43584   7.112  21.677   9.405
42720W        W43585   5.042  21.121   8.807
42721W        W43586   6.049  21.654  10.131
42722W        W43587   6.043  18.984   9.895
42723W        W43588   5.250  21.692   9.956
42724W        W43589   6.947  18.646   8.422
42725W        W43590   6.738  19.965   9.723
42726W        W43591   3.721  19.286   9.761
42727W        W43592   6.581  19.081   8.779
42728W        W43593   6.992  19.232  10.556
42729W        W43594   5.877  20.931   8.774
42730W        W43595   5.133  21.522   8.387
42731W        W43596   4.248  18.702   7.645
42732W        W43597   5.352  18.356   9.455
42733W        W43598   4.380  21.476   7.303
42734W        W43599   4.754  19.942   8.054
42735W        W43600   5.408  20.571  10.367
42736W        W43601   5.238  18.929   8.357
42737W        W43602   6.594  18.526   8.785
42738W        W43603   6.314  21.808   9.113
42739W        W43604   5.726  21.456   9.453
42740W        W43605   5.122  20.493   9.414
42741W        W43606   6.892  21.216   9.540
42742W        W43607   4.586  18.719   8.309
42743W        W43608   5.108  21.016   9.269
42744W        W43609   4.591  18.947   7.334
42745W        W43610   5.392  19.556   9.728
42746W        W43611   6.240  18.422   9.598
42747W        W43612   3.660  20.265   9.483
42748W        W43613   5.364  20.083   7.641
42749W        W43614   4.632  18.398   7.411
42750W        W43615   5.370  19.479   8.462
42751W        W43616   6.340  18.455  10.161
42752W        W43617   4.928  20.467  10.270
42753W        W43618   5.732  20.249  10.487
42754W        W43619   6.349  20.279  10.380
42755W        W43620   5.633  18.419  10.885
42756W        W43621   4.855  19.035   9.278
42757W        W43622   4.281  18.991   8.676
42758W        W43623   4.067  21.703   8.352
42759W        W43624   5.399  21.033  10.477
42760W        W43625   4.434  20.518   7.836
42761W        W43626   6.114  19.903   9.057
42762W        W43627   6.394  19.702   9.456
42763W        W43628   5.599  20.376   9.390
42764W        W43629   6.069  20.750   7.522
42765W        W43630   5.741  18.771   8.850
42766W        W43631   7.220  19.049   8.118
42767W        W43632   3.714  21.638  10.149
42768W        W43633   4.131  20.864   9.681
42769W        W43634   3.698  21.710   7.913
42770W        W43635   5.597  18.980   9.719
42771W        W43636   4.960  21.003   7.568
42772W        W43637   6.865  21.385   7.754
42773W        W43638   5.840  20.038   7.768
42774W        W43639   4.683  19.229   8.285
42775W        W43640   5.515  19.139   7.337
42776W        W43641   6.099  20.704  10.515
42777W        W43642   6.452  18.610   8.132
42778W        W43643   3.782  18.458   7.580
42779W        W43644   5.068  20.777   9.870
42780W        W43645   4.867  20.693   8.962
42781W        W43646   4.609  20.645   7.360
42782W        W43647   3.850  20.886   8.128
42783W        W43648   4.354  19.956  10.570
42784W        W43649   5.058  18.516  10.756
42785W        W43650   5.767  18.658  10.112
42786W        W43651   4.962  18.426   8.393
42787W        W43652   6.021  18.503   7.898
42788W        W43653   3.966  18.435   9.475
42789W        W43654   4.014  19.398   8.845
42790W        W43655   6.703  18.506   9.251
42791W        W43656   4.125  19.004   8.065
42792W        W43657   6.696  18.692   9.681
42793W        W43658   7.092  19.895   7.366
42794W        W43659   4.384  18.653   9.185
42795W        W43660   5.498  19.225  10.125
42796W        W43661   3.646  18.915   7.603
42797W        W43662   4.432  20.304  10.164
42798W        W43663   5.790  19.702   9.343
42799W        W43664   5.657  21.781   7.639
42800W        W43665   3.803  20.288   7.336
42801W        W43666   4.538  20.699  10.462
42802W        W43667   4.059  19.866  10.093
42803W        W43668   5.050  19.971   9.887
42804W        W43669   6.818  18.330  10.149
42805W        W43670   7.216  19.940  10.140
42806W        W43671   7.204  20.140   7.826
42807W        W43672   6.067  20.472   7.925
42808W        W43673   6.541  21.772   7.620
42809W        W43674   5.718  19.762  10.762
42810W        W43675   4.048  20.729  10.802
42811W        W43676   7.254  18.651  10.754
42812W        W43677   6.972  19.579   9.375
42813W        W43678   5.280  21.709  10.852
42814W        W43679   5.135  18.338   7.579
42815W        W43680   6.674  20.937   7.522
42816W        W43681   4.443  19.030  10.408
42817W        W43682   4.877  21.024  10.270
42818W        W43683   7.003  19.015  10.068
42819W        W43684   6.214  21.674   8.036
42820W        W43685   6.453  20.293   9.403
42821W        W43686   4.703  18.709  10.070
42822W        W43687   5.172  19.778  10.827
42823W        W43688   4.675  20.957   8.021
42824W        W43689   6.430  20.455   8.285
42825W        W43690   4.198  19.081  10.009
42826W        W43691   5.527  21.143   8.473
42827W        W43692   7.277  19.703   8.654
42828W        W43693   5.499  18.336  10.373
42829W        W43694   6.279  21.041   9.452
42830W        W43695   6.582  21.385   9.160
42831W        W43696   5.801  21.187   7.588
42832W        W43697   3.811  21.079  10.430
42833W        W43698   4.554  19.071   9.668
42834W        W43699   4.524  18.419   8.778
42835W        W43700   6.145  19.261   9.470
42836W        W43701   4.943  20.432   7.670
42837W        W43702   6.941  20.374   9.169
42838W        W43703   4.268  21.132  10.592
42839W        W43704   6.655  21.814   8.389
42840W        W43705   4.754  18.834   8.834
42841W        W43706   4.523  20.327   8.924
42842W        W43707   4.836  21.738   9.674
42843W        W43708   6.903  21.834  10.706
42844W        W43709   6.062  20.022   9.639
42845W        W43710   3.911  19.820   7.554
42846W        W43711   7.045  21.478   8.251
42847W        W43712   6.882  18.802   7.870
42848W        W43713   5.021  18.321  10.273
42849W        W43714   6.727  21.123   8.731
42850W        W43715   6.756  19.679   8.636
42851W        W43716   4.873  19.352   8.852
42852W        W43717   5.118  19.614  10.176
42853W        W43718   6.229  20.767  10.039
42854W        W43719   4.879  19.221  10.151
42855W        W43720   4.858  21.687   8.767
42856W        W43721   4.175  21.646  10.401
42857W        W43722   4.287  21.007   7.531
42858W        W43723   6.804  20.765   8.341
42859W        W43724   4.408  19.557  10.227
42860W        W43725   7.181  19.487   7.708
42861W        W43726   4.926  20.544   8.179
42862W        W43727   6.025  19.926  10.260
42863W        W43728   5.916  19.554   9.804
42864W        W43729   4.476  19.926   9.833
42865W        W43730   6.686  21.814   9.662
42866W        W43731   6.477  18.448  10.656
42867W        W43732   4.141  18.598  10.243
42868W        W43733   4.480  19.621   9.296
42869W        W43734   4.849  19.435   7.418
42870W        W43735   3.652  21.194   9.963
42871W        W43736   5.237  19.903   9.406
42872W        W43737   5.060  18.928   7.511
42873W        W43738   4.195  19.744   8.292
42874W        W43739   3.966  21.596   9.729
42875W        W43740   6.761  19.822   7.837
42876W        W43741   6.856  18.738  10.523
42877W        W43742   6.292  20.947   8.486
42878W        W43743   3.890  19.871  10.663
42879W        W43744   6.856  18.335   7.959
42880W        W43745   6.376  20.810   7.970
42881W        W43746   5.278  19.868   8.055
42882W        W43747   6.465  18.672   7.578
42883W        W43748   6.530  19.279   9.764
42884W        W43749   4.239  19.872   8.971
42885W        W43750   4.533  20.811   8.620
42886W        W43751   6.296  19.431   8.585
42887W        W43752   5.319  18.810   9.281
42888W        W43753   7.281  20.721   9.792
42889W        W43754   7.199  18.708   9.353
42890W        W43755   3.738  21.538   8.729
42891W        W43756   4.247  20.725   8.265
42892W        W43757   4.162  18.342  10.818
42893W        W43758   5.281  21.195  10.920
42894W        W43759   7.036  20.163   8.710
42895W        W43760   6.390  20.340   7.590
42896W        W43761   5.685  21.861   9.802
42897W        W43762   6.542  20.583  10.839
42898W        W43763   5.357  18.293   8.119
42899W        W43764   6.070  19.162   8.978
42900W        W43765   3.756  20.749   9.310
42901W        W43766   5.009  18.711   7.951
42902W        W43767   4.813  20.195  10.800
42903W        W43768   5.807  19.176   8.514
42904W        W43769   6.012  20.586   9.636
42905W        W43770   4.166  21.191  10.071
42906W        W43771   4.757  21.174  10.794
42907W        W43772   4.608  18.971   7.808
42908W        W43773   6.125  19.113   8.133
42909W        W43774   6.083  21.221  10.370
42910W        W43775   4.768  19.813   8.969
42911W        W43776   4.423  21.511   9.834
42912W        W43777   7.168  21.628   7.435
42913W        W43778   4.031  20.300  10.431
42914W        W43779   6.026  20.562   9.119
42915W        W43780   4.462  20.211   8.361
42916W        W43781   4.833  21.218   9.756
42917W        W43782   5.211  18.637   8.797
42918W        W43783   3.822  20.621   7.727
42919W        W43784   5.341  19.572   7.597
42920W        W43785   3.987  20.121   8.616
42921W        W43786   5.277  18.763  10.080
42922W        W43787   6.949  18.472   7.507
42923W        W43788   7.042  20.218  10.606
42924W        W43789   5.696  21.475  10.758
42925W        W43790   7.254  20.569  10.280
42926W        W43791   6.662  21.367  10.891
42927W        W43792   4.401  21.823   9.369
42928W        W43793   7.260  20.445   8.243
42929W        W43794   5.790  19.712   8.756
42930W        W43795   5.557  18.324   8.646
42931W        W43796   4.616  21.308   8.483
42932W        W43797   5.115  19.049   9.708
42933W        W43798   4.815  18.418   9.177
42934W        W43799   3.878  21.240   7.725
42935W        W43800   5.694  20.604   8.443
42936W        W43801   4.569  21.399  10.322
42937W        W43802   4.046  20.222   8.018
42938W        W43803   3.931  18.765   9.017
42939W        W43804   5.479  20.730   9.074
42940W        W43805   3.731  18.584   8.094
42941W        W43806   6.395  19.790  10.021
42942W        W43807   6.272  19.176   7.593
42943W        W43808   6.789  20.848   9.241
42944W        W43809   5.450  21.332   9.072
42945W        W43810   4.862  21.436   7.983
42946W        W43811   6.144  18.339   7.413
42947W        W43812   3.944  21.599   9.154
42948W        W43813   6.141  19.357  10.789
42949W        W43814   4.124  18.887  10.788
42950W        W43815   3.855  19.487   8.121
42951W        W43816   4.546  19.476   7.846
42952W        W43817   6.309  19.803  10.663
42953W        W43818   4.652  20.084   9.372
42954W        W43819   6.126  18.370   8.492
42955W        W43820   5.257  21.801   8.995
42956W        W43821   6.471  21.263   9.932
42957W        W43822   6.055  21.412   9.043
42958W        W43823   6.074  20.392   8.637
42959W        W43824   5.536  18.617   7.708
42960W        W43825   7.217  18.245   8.430
42961W        W43826   4.905  19.880   7.593
42962W        W43827   7.071  19.217   8.583
42963W        W43828   5.763  20.387   7.460
42964W        W43829   6.699  20.587  10.208
42965W        W43830   6.353  21.288   7.675
42966W        W43831   4.968  18.963  10.581
42967W        W43832   4.788  19.547   9.822
42968W        W43833   6.880  21.042  10.099
42969W        W43834   5.980  18.992  10.476
42970W        W43835   3.824  19.463  10.253
42971W        W43836   5.584  19.940   9.979
42972W        W43837   3.941  20.698   8.636
42973W        W43838   4.088  19.995   9.526
42974W        W43839   6.405  20.281   9.876
42975W        W43840   6.177  21.661  10.687
42976W        W43841   6.073  19.400  10.240
42977W        W43842   6.350  21.454   8.645
42978W        W43843   5.352  21.174   9.968
42979W        W43844   4.837  21.529   9.237
42980W        W43845   6.642  20.700   9.656
42981W        W43846   5.692  20.772  10.793
42982W        W43847   4.297  20.725   9.132
42983W        W43848   6.643  20.484   8.777
42984W        W43849   6.284  21.550   9.528
42985W        W43850   4.262  21.279   9.398
42986W        W43851   5.283  19.331  10.608
42987W        W43852   5.734  21.497   8.119
42988W        W43853   5.042  20.752  10.757
42989W        W43854   5.168  20.990   8.134
42990W        W43855   4.389  19.730   7.393
42991W        W43856   3.728  21.816  14.292
42992W        W43857   4.104  20.709  13.815
42993W        W43858   6.809  20.439  11.585
42994W        W43859   6.939  21.524  13.612
42995W        W43860   4.857  21.515  11.138
42996W        W43861   4.940  19.667  12.121
42997W        W43862   4.455  19.515  12.285
42998W        W43863   5.446  20.330  11.719
42999W        W43864   5.121  21.422  14.074
43000W        W43865   3.770  18.983  14.037
43001W        W43866   4.532  18.263  13.839
43002W        W43867   6.226  18.651  12.726
43003W        W43868   5.875  19.522  11.296
43004W        W43869   6.445  18.956  14.387
43005W        W43870   3.811  18.748  13.512
43006W        W43871   3.910  21.367  14.533
43007W        W43872   5.432  20.757  11.265
43008W        W43873   3.864  19.540  12.958
43009W        W43874   4.757  19.431  14.195
43010W        W43875   7.216  19.290  12.694
43011W        W43876   6.980  20.333  13.553
43012W        W43877   5.288  19.666  12.580
43013W        W43878   5.834  21.005  12.949
43014W        W43879   4.334  20.439  13.181
43015W        W43880   3.693  19.967  12.752
43016W        W43881   4.729  19.939  13.944
43017W        W43882   7.000  19.722  14.198
43018W        W43883   4.616  21.166  12.643
43019W        W43884   5.737  20.855  13.777
43020W        W43885   4.957  19.495  13.002
43021W        W43886   5.249  20.279  12.645
43022W        W43887   6.246  21.052  14.493
43023W        W43888   5.325  20.372  14.503
43024W        W43889   5.306  20.088  13.981
43025W        W43890   3.715  19.479  14.503
43026W        W43891   6.547  21.014  14.102
43027W        W43892   4.128  18.596  12.100
43028W        W43893   4.655  20.854  13.099
43029W        W43894   7.118  20.637  12.389
43030W        W43895   6.531  19.037  12.956
43031W        W43896   6.816  18.990  11.051
43032W        W43897   7.281  19.791  13.357
43033W        W43898   5.248  21.498  13.110
43034W        W43899   7.022  20.964  11.548
43035W        W43900   4.151  21.750  11.302
43036W        W43901   4.544  21.796  11.978
43037W        W43902   4.341  18.550  13.404
43038W        W43903   6.964  19.568  13.679
43039W        W43904   6.369  19.990  12.138
43040W        W43905   6.335  19.678  11.165
43041W        W43906   5.543  20.822  13.305
43042W        W43907   5.349  19.152  12.504
43043W        W43908   5.949  21.239  13.498
43044W        W43909   6.820  20.030  11.920
43045W        W43910   5.722  18.688  11.936
43046W        W43911   4.379  21.382  11.619
43047W        W43912   3.750  18.881  12.218
43048W        W43913   6.536  19.488  12.692
43049W        W43914   3.994  21.105  12.607
43050W        W43915   5.335  21.455  11.477
43051W        W43916   6.727  19.481  10.941
43052W        W43917   3.750  21.239  13.105
43053W        W43918   4.541  20.811  13.585
43054W        W43919   4.914  20.171  12.204
43055W        W43920   4.936  18.576  13.297
43056W        W43921   7.165  18.338  12.594
43057W        W43922   4.384  20.210  11.062
43058W        W43923   4.039  19.243  11.241
43059W        W43924   4.101  21.199  12.035
43060W        W43925   5.232  20.682  12.283
43061W        W43926   6.564  21.541  13.997
43062W        W43927   5.490  19.183  11.681
43063W        W43928   6.873  21.581  12.453
43064W        W43929   6.550  19.434  14.051
43065W        W43930   7.263  21.090  12.185
43066W        W43931   5.890  20.382  13.669
43067W        W43932   3.656  19.933  11.875
43068W        W43933   4.767  20.348  13.448
43069W        W43934   5.971  19.612  11.826
43070W        W43935   5.848  20.102  11.930
43071W        W43936   4.191  19.522  13.404
43072W        W43937   4.176  19.398  14.326
43073W        W43938   4.066  18.315  12.485
43074W        W43939   5.834  18.662  13.046
43075W        W43940   5.482  18.847  14.209
43076W        W43941   5.837  18.996  11.387
43077W        W43942   7.020  21.389  14.141
43078W        W43943   5.987  18.470  14.180
43079W        W43944   7.006  20.771  14.302
43080W        W43945   6.436  18.938  13.898
43081W        W43946   6.236  18.876  12.168
43082W        W43947   6.629  20.010  14.572
43083W        W43948   4.369  21.586  12.558
43084W        W43949   5.027  19.303  11.544
43085W        W43950   4.596  18.587  14.208
43086W        W43951   6.648  19.071  11.889
43087W        W43952   7.015  19.553  11.834
43088W        W43953   4.758  21.770  14.305
43089W        W43954   4.684  18.306  11.540
43090W        W43955   7.005  18.840  12.575
43091W        W43956   7.155  21.089  11.020
43092W        W43957   4.062  20.292  12.722
43093W        W43958   5.979  18.879  10.952
43094W        W43959   7.113  21.211  12.672
43095W        W43960   7.152  18.405  13.422
43096W        W43961   5.597  19.617  13.976
43097W        W43962   5.690  20.956  11.679
43098W        W43963   6.090  20.250  14.419
43099W        W43964   5.764  18.227  12.728
43100W        W43965   4.376  19.130  12.791
43101W        W43966   3.930  20.330  13.565
43102W        W43967   5.789  21.523  12.271
43103W        W43968   6.983  19.120  13.143
43104W        W43969   5.620  21.467  13.910
43105W        W43970   6.963  20.526  11.115
43106W        W43971   5.398  20.009  12.176
43107W        W43972   7.250  18.520  13.917
43108W        W43973   5.399  20.355  13.511
43109W        W43974   5.616  19.241  12.956
43110W        W43975   6.468  19.539  11.794
43111W        W43976   6.755  19.272  11.436
43112W        W43977   6.564  21.312  11.825
43113W        W43978   6.398  20.915  12.621
43114W        W43979   6.294  19.994  11.599
43115W        W43980   5.727  20.204  12.585
43116W        W43981   6.608  19.992  12.652
43117W        W43982   3.983  19.007  13.076
43118W        W43983   6.761  20.059  13.903
43119W        W43984   7.112  21.677  13.049
43120W        W43985   5.042  21.121  12.451
43121W        W43986   6.049  21.654  13.775
43122W        W43987   6.043  18.984  13.539
43123W        W43988   5.250  21.692  13.600
43124W        W43989   6.947  18.646  12.066
43125W        W43990   6.738  19.965  13.367
43126W        W43991   3.721  19.286  13.405
43127W        W43992   6.581  19.081  12.423
43128W        W43993   6.992  19.232  14.200
43129W        W43994   5.877  20.931  12.418
43130W        W43995   5.133  21.522  12.031
43131W        W43996   4.248  18.702  11.289
43132W        W43997   5.352  18.356  13.099
43133W        W43998   4.380  21.476  10.947
43134W        W43999   4.754  19.942  11.698
43135W        W44000   5.408  20.571  14.011
43136W        W44001   5.238  18.929  12.001
43137W        W44002   6.594  18.526  12.429
43138W        W44003   6.314  21.808  12.757
43139W        W44004   5.726  21.456  13.097
43140W        W44005   5.122  20.493  13.058
43141W        W44006   6.892  21.216  13.184
43142W        W44007   4.586  18.719  11.953
43143W        W44008   5.108  21.016  12.913
43144W        W44009   4.591  18.947  10.978
43145W        W44010   5.392  19.556  13.372
43146W        W44011   6.240  18.422  13.242
43147W        W44012   3.660  20.265  13.127
43148W        W44013   5.364  20.083  11.285
43149W        W44014   4.632  18.398  11.055
43150W        W44015   5.370  19.479  12.106
43151W        W44016   6.340  18.455  13.805
43152W        W44017   4.928  20.467  13.914
43153W        W44018   5.732  20.249  14.131
43154W        W44019   6.349  20.279  14.024
43155W        W44020   5.633  18.419  14.529
43156W        W44021   4.855  19.035  12.922
43157W        W44022   4.281  18.991  12.320
43158W        W44023   4.067  21.703  11.996
43159W        W44024   5.399  21.033  14.121
43160W        W44025   4.434  20.518  11.480
43161W        W44026   6.114  19.903  12.701
43162W        W44027   6.394  19.702  13.100
43163W        W44028   5.599  20.376  13.034
43164W        W44029   6.069  20.750  11.166
43165W        W44030   5.741  18.771  12.494
43166W        W44031   7.220  19.049  11.762
43167W        W44032   3.714  21.638  13.793
43168W        W44033   4.131  20.864  13.325
43169W        W44034   3.698  21.710  11.557
43170W        W44035   5.597  18.980  13.363
43171W        W44036   4.960  21.003  11.212
43172W        W44037   6.865  21.385  11.398
43173W        W44038   5.840  20.038  11.412
43174W        W44039   4.683  19.229  11.929
43175W        W44040   5.515  19.139  10.981
43176W        W44041   6.099  20.704  14.159
43177W        W44042   6.452  18.610  11.776
43178W        W44043   3.782  18.458  11.224
43179W        W44044   5.068  20.777  13.514
43180W        W44045   4.867  20.693  12.606
43181W        W44046   4.609  20.645  11.004
43182W        W44047   3.850  20.886  11.772
43183W        W44048   4.354  19.956  14.214
43184W        W44049   5.058  18.516  14.400
43185W        W44050   5.767  18.658  13.756
43186W        W44051   4.962  18.426  12.037
43187W        W44052   6.021  18.503  11.542
43188W        W44053   3.966  18.435  13.119
43189W        W44054   4.014  19.398  12.489
43190W        W44055   6.703  18.506  12.895
43191W        W44056   4.125  19.004  11.709
43192W        W44057   6.696  18.692  13.325
43193W        W44058   7.092  19.895  11.010
43194W        W44059   4.384  18.653  12.829
43195W        W44060   5.498  19.225  13.769
43196W        W44061   3.646  18.915  11.247
43197W        W44062   4.432  20.304  13.808
43198W        W44063   5.790  19.702  12.987
43199W        W44064   5.657  21.781  11.283
43200W        W44065   3.803  20.288  10.980
43201W        W44066   4.538  20.699  14.106
43202W        W44067   4.059  19.866  13.737
43203W        W44068   5.050  19.971  13.531
43204W        W44069   6.818  18.330  13.793
43205W        W44070   7.216  19.940  13.784
43206W        W44071   7.204  20.140  11.470
43207W        W44072   6.067  20.472  11.569
43208W        W44073   6.541  21.772  11.264
43209W        W44074   5.718  19.762  14.406
43210W        W44075   4.048  20.729  14.446
43211W        W44076   7.254  18.651  14.398
43212W        W44077   6.972  19.579  13.019
43213W        W44078   5.280  21.709  14.496
43214W        W44079   5.135  18.338  11.223
43215W        W44080   6.674  20.937  11.166
43216W        W44081   4.443  19.030  14.052
43217W        W44082   4.877  21.024  13.914
43218W        W44083   7.003  19.015  13.712
43219W        W44084   6.214  21.674  11.680
43220W        W44085   6.453  20.293  13.047
43221W        W44086   4.703  18.709  13.714
43222W        W44087   5.172  19.778  14.471
43223W        W44088   4.675  20.957  11.665
43224W        W44089   6.430  20.455  11.929
43225W        W44090   4.198  19.081  13.653
43226W        W44091   5.527  21.143  12.117
43227W        W44092   7.277  19.703  12.298
43228W        W44093   5.499  18.336  14.017
43229W        W44094   6.279  21.041  13.096
43230W        W44095   6.582  21.385  12.804
43231W        W44096   5.801  21.187  11.232
43232W        W44097   3.811  21.079  14.074
43233W        W44098   4.554  19.071  13.312
43234W        W44099   4.524  18.419  12.422
43235W        W44100   6.145  19.261  13.114
43236W        W44101   4.943  20.432  11.314
43237W        W44102   6.941  20.374  12.813
43238W        W44103   4.268  21.132  14.236
43239W        W44104   6.655  21.814  12.033
43240W        W44105   4.754  18.834  12.478
43241W        W44106   4.523  20.327  12.568
43242W        W44107   4.836  21.738  13.318
43243W        W44108   6.903  21.834  14.350
43244W        W44109   6.062  20.022  13.283
43245W        W44110   3.911  19.820  11.198
43246W        W44111   7.045  21.478  11.895
43247W        W44112   6.882  18.802  11.514
43248W        W44113   5.021  18.321  13.917
43249W        W44114   6.727  21.123  12.375
43250W        W44115   6.756  19.679  12.280
43251W        W44116   4.873  19.352  12.496
43252W        W44117   5.118  19.614  13.820
43253W        W44118   6.229  20.767  13.683
43254W        W44119   4.879  19.221  13.795
43255W        W44120   4.858  21.687  12.411
43256W        W44121   4.175  21.646  14.045
43257W        W44122   4.287  21.007  11.175
43258W        W44123   6.804  20.765  11.985
43259W        W44124   4.408  19.557  13.871
43260W        W44125   7.181  19.487  11.352
43261W        W44126   4.926  20.544  11.823
43262W        W44127   6.025  19.926  13.904
43263W        W44128   5.916  19.554  13.448
43264W        W44129   4.476  19.926  13.477
43265W        W44130   6.686  21.814  13.306
43266W        W44131   6.477  18.448  14.300
43267W        W44132   4.141  18.598  13.887
43268W        W44133   4.480  19.621  12.940
43269W        W44134   4.849  19.435  11.062
43270W        W44135   3.652  21.194  13.607
43271W        W44136   5.237  19.903  13.050
43272W        W44137   5.060  18.928  11.155
43273W        W44138   4.195  19.744  11.936
43274W        W44139   3.966  21.596  13.373
43275W        W44140   6.761  19.822  11.481
43276W        W44141   6.856  18.738  14.167
43277W        W44142   6.292  20.947  12.130
43278W        W44143   3.890  19.871  14.307
43279W        W44144   6.856  18.335  11.603
43280W        W44145   6.376  20.810  11.614
43281W        W44146   5.278  19.868  11.699
43282W        W44147   6.465  18.672  11.222
43283W        W44148   6.530  19.279  13.408
43284W        W44149   4.239  19.872  12.615
43285W        W44150   4.533  20.811  12.264
43286W        W44151   6.296  19.431  12.229
43287W        W44152   5.319  18.810  12.925
43288W        W44153   7.281  20.721  13.436
43289W        W44154   7.199  18.708  12.997
43290W        W44155   3.738  21.538  12.373
43291W        W44156   4.247  20.725  11.909
43292W        W44157   4.162  18.342  14.462
43293W        W44158   5.281  21.195  14.564
43294W        W44159   7.036  20.163  12.354
43295W        W44160   6.390  20.340  11.234
43296W        W44161   5.685  21.861  13.446
43297W        W44162   6.542  20.583  14.483
43298W        W44163   5.357  18.293  11.763
43299W        W44164   6.070  19.162  12.622
43300W        W44165   3.756  20.749  12.954
43301W        W44166   5.009  18.711  11.595
43302W        W44167   4.813  20.195  14.444
43303W        W44168   5.807  19.176  12.158
43304W        W44169   6.012  20.586  13.280
43305W        W44170   4.166  21.191  13.715
43306W        W44171   4.757  21.174  14.438
43307W        W44172   4.608  18.971  11.452
43308W        W44173   6.125  19.113  11.777
43309W        W44174   6.083  21.221  14.014
43310W        W44175   4.768  19.813  12.613
43311W        W44176   4.423  21.511  13.478
43312W        W44177   7.168  21.628  11.079
43313W        W44178   4.031  20.300  14.075
43314W        W44179   6.026  20.562  12.763
43315W        W44180   4.462  20.211  12.005
43316W        W44181   4.833  21.218  13.400
43317W        W44182   5.211  18.637  12.441
43318W        W44183   3.822  20.621  11.371
43319W        W44184   5.341  19.572  11.241
43320W        W44185   3.987  20.121  12.260
43321W        W44186   5.277  18.763  13.724
43322W        W44187   6.949  18.472  11.151
43323W        W44188   7.042  20.218  14.250
43324W        W44189   5.696  21.475  14.402
43325W        W44190   7.254  20.569  13.924
43326W        W44191   6.662  21.367  14.535
43327W        W44192   4.401  21.823  13.013
43328W        W44193   7.260  20.445  11.887
43329W        W44194   5.790  19.712  12.400
43330W        W44195   5.557  18.324  12.290
43331W        W44196   4.616  21.308  12.127
43332W        W44197   5.115  19.049  13.352
43333W        W44198   4.815  18.418  12.821
43334W        W44199   3.878  21.240  11.369
43335W        W44200   5.694  20.604  12.087
43336W        W44201   4.569  21.399  13.966
43337W        W44202   4.046  20.222  11.662
43338W        W44203   3.931  18.765  12.661
43339W        W44204   5.479  20.730  12.718
43340W        W44205   3.731  18.584  11.738
43341W        W44206   6.395  19.790  13.665
43342W        W44207   6.272  19.176  11.237
43343W        W44208   6.789  20.848  12.885
43344W        W44209   5.450  21.332  12.716
43345W        W44210   4.862  21.436  11.627
43346W        W44211   6.144  18.339  11.057
43347W        W44212   3.944  21.599  12.798
43348W        W44213   6.141  19.357  14.433
43349W        W44214   4.124  18.887  14.432
43350W        W44215   3.855  19.487  11.765
43351W        W44216   4.546  19.476  11.490
43352W        W44217   6.309  19.803  14.307
43353W        W44218   4.652  20.084  13.016
43354W        W44219   6.126  18.370  12.136
43355W        W44220   5.257  21.801  12.639
43356W        W44221   6.471  21.263  13.576
43357W        W44222   6.055  21.412  12.687
43358W        W44223   6.074  20.392  12.281
43359W        W44224   5.536  18.617  11.352
43360W        W44225   7.217  18.245  12.074
43361W        W44226   4.905  19.880  11.237
43362W        W44227   7.071  19.217  12.227
43363W        W44228   5.763  20.387  11.104
43364W        W44229   6.699  20.587  13.852
43365W        W44230   6.353  21.288  11.319
43366W        W44231   4.968  18.963  14.225
43367W        W44232   4.788  19.547  13.466
43368W        W44233   6.880  21.042  13.743
43369W        W44234   5.980  18.992  14.120
43370W        W44235   3.824  19.463  13.897
43371W        W44236   5.584  19.940  13.623
43372W        W44237   3.941  20.698  12.280
43373W        W44238   4.088  19.995  13.170
43374W        W44239   6.405  20.281  13.520
43375W        W44240   6.177  21.661  14.331
43376W        W44241   6.073  19.400  13.884
43377W        W44242   6.350  21.454  12.289
43378W        W44243   5.352  21.174  13.612
43379W        W44244   4.837  21.529  12.881
43380W        W44245   6.642  20.700  13.300
43381W        W44246   5.692  20.772  14.437
43382W        W44247   4.297  20.725  12.776
43383W        W44248   6.643  20.484  12.421
43384W        W44249   6.284  21.550  13.172
43385W        W44250   4.262  21.279  13.042
43386W        W44251   5.283  19.331  14.252
43387W        W44252   5.734  21.497  11.763
43388W        W44253   5.042  20.752  14.401
43389W        W44254   5.168  20.990  11.778
43390W        W44255   4.389  19.730  11.037
43391W        W44256   3.728  21.816  17.936
43392W        W44257   4.104  20.709  17.459
43393W        W44258   6.809  20.439  15.229
43394W        W44259   6.939  21.524  17.256
43395W        W44260   4.857  21.515  14.782
43396W        W44261   4.940  19.667  15.765
43397W        W44262   4.455  19.515  15.929
43398W        W44263   5.446  20.330  15.363
43399W        W44264   5.121  21.422  17.718
43400W        W44265   3.770  18.983  17.681
43401W        W44266   4.532  18.263  17.483
43402W        W44267   6.226  18.651  16.370
43403W        W44268   5.875  19.522  14.940
43404W        W44269   6.445  18.956  18.031
43405W        W44270   3.811  18.748  17.156
43406W        W44271   3.910  21.367  18.177
43407W        W44272   5.432  20.757  14.909
43408W        W44273   3.864  19.540  16.602
43409W        W44274   4.757  19.431  17.839
43410W        W44275   7.216  19.290  16.338
43411W        W44276   6.980  20.333  17.197
43412W        W44277   5.288  19.666  16.224
43413W        W44278   5.834  21.005  16.593
43414W        W44279   4.334  20.439  16.825
43415W        W44280   3.693  19.967  16.396
43416W        W44281   4.729  19.939  17.588
43417W        W44282   7.000  19.722  17.842
43418W        W44283   4.616  21.166  16.287
43419W        W44284   5.737  20.855  17.421
43420W        W44285   4.957  19.495  16.646
43421W        W44286   5.249  20.279  16.289
43422W        W44287   6.246  21.052  18.137
43423W        W44288   5.325  20.372  18.147
43424W        W44289   5.306  20.088  17.625
43425W        W44290   3.715  19.479  18.147
43426W        W44291   6.547  21.014  17.746
43427W        W44292   4.128  18.596  15.744
43428W        W44293   4.655  20.854  16.743
43429W        W44294   7.118  20.637  16.033
43430W        W44295   6.531  19.037  16.600
43431W        W44296   6.816  18.990  14.695
43432W        W44297   7.281  19.791  17.001
43433W        W44298   5.248  21.498  16.754
43434W        W44299   7.022  20.964  15.192
43435W        W44300   4.151  21.750  14.946
43436W        W44301   4.544  21.796  15.622
43437W        W44302   4.341  18.550  17.048
43438W        W44303   6.964  19.568  17.323
43439W        W44304   6.369  19.990  15.782
43440W        W44305   6.335  19.678  14.809
43441W        W44306   5.543  20.822  16.949
43442W        W44307   5.349  19.152  16.148
43443W        W44308   5.949  21.239  17.142
43444W        W44309   6.820  20.030  15.564
43445W        W44310   5.722  18.688  15.580
43446W        W44311   4.379  21.382  15.263
43447W        W44312   3.750  18.881  15.862
43448W        W44313   6.536  19.488  16.336
43449W        W44314   3.994  21.105  16.251
43450W        W44315   5.335  21.455  15.121
43451W        W44316   6.727  19.481  14.585
43452W        W44317   3.750  21.239  16.749
43453W        W44318   4.541  20.811  17.229
43454W        W44319   4.914  20.171  15.848
43455W        W44320   4.936  18.576  16.941
43456W        W44321   7.165  18.338  16.238
43457W        W44322   4.384  20.210  14.706
43458W        W44323   4.039  19.243  14.885
43459W        W44324   4.101  21.199  15.679
43460W        W44325   5.232  20.682  15.927
43461W        W44326   6.564  21.541  17.641
43462W        W44327   5.490  19.183  15.325
43463W        W44328   6.873  21.581  16.097
43464W        W44329   6.550  19.434  17.695
43465W        W44330   7.263  21.090  15.829
43466W        W44331   5.890  20.382  17.313
43467W        W44332   3.656  19.933  15.519
43468W        W44333   4.767  20.348  17.092
43469W        W44334   5.971  19.612  15.470
43470W        W44335   5.848  20.102  15.574
43471W        W44336   4.191  19.522  17.048
43472W        W44337   4.176  19.398  17.970
43473W        W44338   4.066  18.315  16.129
43474W        W44339   5.834  18.662  16.690
43475W        W44340   5.482  18.847  17.853
43476W        W44341   5.837  18.996  15.031
43477W        W44342   7.020  21.389  17.785
43478W        W44343   5.987  18.470  17.824
43479W        W44344   7.006  20.771  17.946
43480W        W44345   6.436  18.938  17.542
43481W        W44346   6.236  18.876  15.812
43482W        W44347   6.629  20.010  18.216
43483W        W44348   4.369  21.586  16.202
43484W        W44349   5.027  19.303  15.188
43485W        W44350   4.596  18.587  17.852
43486W        W44351   6.648  19.071  15.533
43487W        W44352   7.015  19.553  15.478
43488W        W44353   4.758  21.770  17.949
43489W        W44354   4.684  18.306  15.184
43490W        W44355   7.005  18.840  16.219
43491W        W44356   7.155  21.089  14.664
43492W        W44357   4.062  20.292  16.366
43493W        W44358   5.979  18.879  14.596
43494W        W44359   7.113  21.211  16.316
43495W        W44360   7.152  18.405  17.066
43496W        W44361   5.597  19.617  17.620
43497W        W44362   5.690  20.956  15.323
43498W        W44363   6.090  20.250  18.063
43499W        W44364   5.764  18.227  16.372
43500W        W44365   4.376  19.130  16.435
43501W        W44366   3.930  20.330  17.209
43502W        W44367   5.789  21.523  15.915
43503W        W44368   6.983  19.120  16.787
43504W        W44369   5.620  21.467  17.554
43505W        W44370   6.963  20.526  14.759
43506W        W44371   5.398  20.009  15.820
43507W        W44372   7.250  18.520  17.561
43508W        W44373   5.399  20.355  17.155
43509W        W44374   5.616  19.241  16.600
43510W        W44375   6.468  19.539  15.438
43511W        W44376   6.755  19.272  15.080
43512W        W44377   6.564  21.312  15.469
43513W        W44378   6.398  20.915  16.265
43514W        W44379   6.294  19.994  15.243
43515W        W44380   5.727  20.204  16.229
43516W        W44381   6.608  19.992  16.296
43517W        W44382   3.983  19.007  16.720
43518W        W44383   6.761  20.059  17.547
43519W        W44384   7.112  21.677  16.693
43520W        W44385   5.042  21.121  16.095
43521W        W44386   6.049  21.654  17.419
43522W        W44387   6.043  18.984  17.183
43523W        W44388   5.250  21.692  17.244
43524W        W44389   6.947  18.646  15.710
43525W        W44390   6.738  19.965  17.011
43526W        W44391   3.721  19.286  17.049
43527W        W44392   6.581  19.081  16.067
43528W        W44393   6.992  19.232  17.844
43529W        W44394   5.877  20.931  16.062
43530W        W44395   5.133  21.522  15.675
43531W        W44396   4.248  18.702  14.933
43532W        W44397   5.352  18.356  16.743
43533W        W44398   4.380  21.476  14.591
43534W        W44399   4.754  19.942  15.342
43535W        W44400   5.408  20.571  17.655
43536W        W44401   5.238  18.929  15.645
43537W        W44402   6.594  18.526  16.073
43538W        W44403   6.314  21.808  16.401
43539W        W44404   5.726  21.456  16.741
43540W        W44405   5.122  20.493  16.702
43541W        W44406   6.892  21.216  16.828
43542W        W44407   4.586  18.719  15.597
43543W        W44408   5.108  21.016  16.557
43544W        W44409   4.591  18.947  14.622
43545W        W44410   5.392  19.556  17.016
43546W        W44411   6.240  18.422  16.886
43547W        W44412   3.660  20.265  16.771
43548W        W44413   5.364  20.083  14.929
43549W        W44414   4.632  18.398  14.699
43550W        W44415   5.370  19.479  15.750
43551W        W44416   6.340  18.455  17.449
43552W        W44417   4.928  20.467  17.558
43553W        W44418   5.732  20.249  17.775
43554W        W44419   6.349  20.279  17.668
43555W        W44420   5.633  18.419  18.173
43556W        W44421   4.855  19.035  16.566
43557W        W44422   4.281  18.991  15.964
43558W        W44423   4.067  21.703  15.640
43559W        W44424   5.399  21.033  17.765
43560W        W44425   4.434  20.518  15.124
43561W        W44426   6.114  19.903  16.345
43562W        W44427   6.394  19.702  16.744
43563W        W44428   5.599  20.376  16.678
43564W        W44429   6.069  20.750  14.810
43565W        W44430   5.741  18.771  16.138
43566W        W44431   7.220  19.049  15.406
43567W        W44432   3.714  21.638  17.437
43568W        W44433   4.131  20.864  16.969
43569W        W44434   3.698  21.710  15.201
43570W        W44435   5.597  18.980  17.007
43571W        W44436   4.960  21.003  14.856
43572W        W44437   6.865  21.385  15.042
43573W        W44438   5.840  20.038  15.056
43574W        W44439   4.683  19.229  15.573
43575W        W44440   5.515  19.139  14.625
43576W        W44441   6.099  20.704  17.803
43577W        W44442   6.452  18.610  15.420
43578W        W44443   3.782  18.458  14.868
43579W        W44444   5.068  20.777  17.158
43580W        W44445   4.867  20.693  16.250
43581W        W44446   4.609  20.645  14.648
43582W        W44447   3.850  20.886  15.416
43583W        W44448   4.354  19.956  17.858
43584W        W44449   5.058  18.516  18.044
43585W        W44450   5.767  18.658  17.400
43586W        W44451   4.962  18.426  15.681
43587W        W44452   6.021  18.503  15.186
43588W        W44453   3.966  18.435  16.763
43589W        W44454   4.014  19.398  16.133
43590W        W44455   6.703  18.506  16.539
43591W        W44456   4.125  19.004  15.353
43592W        W44457   6.696  18.692  16.969
43593W        W44458   7.092  19.895  14.654
43594W        W44459   4.384  18.653  16.473
43595W        W44460   5.498  19.225  17.413
43596W        W44461   3.646  18.915  14.891
43597W        W44462   4.432  20.304  17.452
43598W        W44463   5.790  19.702  16.631
43599W        W44464   5.657  21.781  14.927
43600W        W44465   3.803  20.288  14.624
43601W        W44466   4.538  20.699  17.750
43602W        W44467   4.059  19.866  17.381
43603W        W44468   5.050  19.971  17.175
43604W        W44469   6.818  18.330  17.437
43605W        W44470   7.216  19.940  17.428
43606W        W44471   7.204  20.140  15.114
43607W        W44472   6.067  20.472  15.213
43608W        W44473   6.541  21.772  14.908
43609W        W44474   5.718  19.762  18.050
43610W        W44475   4.048  20.729  18.090
43611W        W44476   7.254  18.651  18.042
43612W        W44477   6.972  19.579  16.663
43613W        W44478   5.280  21.709  18.140
43614W        W44479   5.135  18.338  14.867
43615W        W44480   6.674  20.937  14.810
43616W        W44481   4.443  19.030  17.696
43617W        W44482   4.877  21.024  17.558
43618W        W44483   7.003  19.015  17.356
43619W        W44484   6.453  20.293  16.691
43620W        W44485   4.703  18.709  17.358
43621W        W44486   5.172  19.778  18.115
43622W        W44487   4.675  20.957  15.309
43623W        W44488   6.430  20.455  15.573
43624W        W44489   4.198  19.081  17.297
43625W        W44490   5.527  21.143  15.761
43626W        W44491   7.277  19.703  15.942
43627W        W44492   5.499  18.336  17.661
43628W        W44493   6.279  21.041  16.740
43629W        W44494   6.582  21.385  16.448
43630W        W44495   5.801  21.187  14.876
43631W        W44496   3.811  21.079  17.718
43632W        W44497   4.554  19.071  16.956
43633W        W44498   4.524  18.419  16.066
43634W        W44499   6.145  19.261  16.758
43635W        W44500   4.943  20.432  14.958
43636W        W44501   6.941  20.374  16.457
43637W        W44502   4.268  21.132  17.880
43638W        W44503   6.655  21.814  15.677
43639W        W44504   4.754  18.834  16.122
43640W        W44505   4.523  20.327  16.212
43641W        W44506   4.836  21.738  16.962
43642W        W44507   6.903  21.834  17.994
43643W        W44508   6.062  20.022  16.927
43644W        W44509   3.911  19.820  14.842
43645W        W44510   7.045  21.478  15.539
43646W        W44511   6.882  18.802  15.158
43647W        W44512   5.021  18.321  17.561
43648W        W44513   6.727  21.123  16.019
43649W        W44514   6.756  19.679  15.924
43650W        W44515   4.873  19.352  16.140
43651W        W44516   5.118  19.614  17.464
43652W        W44517   6.229  20.767  17.327
43653W        W44518   4.879  19.221  17.439
43654W        W44519   4.858  21.687  16.055
43655W        W44520   4.175  21.646  17.689
43656W        W44521   4.287  21.007  14.819
43657W        W44522   6.804  20.765  15.629
43658W        W44523   4.408  19.557  17.515
43659W        W44524   7.181  19.487  14.996
43660W        W44525   4.926  20.544  15.467
43661W        W44526   6.025  19.926  17.548
43662W        W44527   5.916  19.554  17.092
43663W        W44528   4.476  19.926  17.121
43664W        W44529   6.686  21.814  16.950
43665W        W44530   6.477  18.448  17.944
43666W        W44531   4.141  18.598  17.531
43667W        W44532   4.480  19.621  16.584
43668W        W44533   4.849  19.435  14.706
43669W        W44534   3.652  21.194  17.251
43670W        W44535   5.237  19.903  16.694
43671W        W44536   5.060  18.928  14.799
43672W        W44537   4.195  19.744  15.580
43673W        W44538   3.966  21.596  17.017
43674W        W44539   6.761  19.822  15.125
43675W        W44540   6.856  18.738  17.811
43676W        W44541   6.292  20.947  15.774
43677W        W44542   3.890  19.871  17.951
43678W        W44543   6.856  18.335  15.247
43679W        W44544   6.376  20.810  15.258
43680W        W44545   5.278  19.868  15.343
43681W        W44546   6.465  18.672  14.866
43682W        W44547   6.530  19.279  17.052
43683W        W44548   4.239  19.872  16.259
43684W        W44549   4.533  20.811  15.908
43685W        W44550   6.296  19.431  15.873
43686W        W44551   5.319  18.810  16.569
43687W        W44552   7.281  20.721  17.080
43688W        W44553   7.199  18.708  16.641
43689W        W44554   3.738  21.538  16.017
43690W        W44555   4.247  20.725  15.553
43691W        W44556   4.162  18.342  18.106
43692W        W44557   5.281  21.195  18.208
43693W        W44558   7.036  20.163  15.998
43694W        W44559   6.390  20.340  14.878
43695W        W44560   5.685  21.861  17.090
43696W        W44561   6.542  20.583  18.127
43697W        W44562   5.357  18.293  15.407
43698W        W44563   6.070  19.162  16.266
43699W        W44564   3.756  20.749  16.598
43700W        W44565   5.009  18.711  15.239
43701W        W44566   4.813  20.195  18.088
43702W        W44567   5.807  19.176  15.802
43703W        W44568   6.012  20.586  16.924
43704W        W44569   4.166  21.191  17.359
43705W        W44570   4.757  21.174  18.082
43706W        W44571   4.608  18.971  15.096
43707W        W44572   6.125  19.113  15.421
43708W        W44573   6.083  21.221  17.658
43709W        W44574   4.768  19.813  16.257
43710W        W44575   4.423  21.511  17.122
43711W        W44576   7.168  21.628  14.723
43712W        W44577   4.031  20.300  17.719
43713W        W44578   6.026  20.562  16.407
43714W        W44579   4.462  20.211  15.649
43715W        W44580   4.833  21.218  17.044
43716W        W44581   5.211  18.637  16.085
43717W        W44582   3.822  20.621  15.015
43718W        W44583   5.341  19.572  14.885
43719W        W44584   3.987  20.121  15.904
43720W        W44585   5.277  18.763  17.368
43721W        W44586   6.949  18.472  14.795
43722W        W44587   7.042  20.218  17.894
43723W        W44588   5.696  21.475  18.046
43724W        W44589   7.254  20.569  17.568
43725W        W44590   6.662  21.367  18.179
43726W        W44591   4.401  21.823  16.657
43727W        W44592   7.260  20.445  15.531
43728W        W44593   5.790  19.712  16.044
43729W        W44594   5.557  18.324  15.934
43730W        W44595   4.616  21.308  15.771
43731W        W44596   5.115  19.049  16.996
43732W        W44597   4.815  18.418  16.465
43733W        W44598   3.878  21.240  15.013
43734W        W44599   5.694  20.604  15.731
43735W        W44600   4.569  21.399  17.610
43736W        W44601   4.046  20.222  15.306
43737W        W44602   3.931  18.765  16.305
43738W        W44603   5.479  20.730  16.362
43739W        W44604   3.731  18.584  15.382
43740W        W44605   6.395  19.790  17.309
43741W        W44606   6.272  19.176  14.881
43742W        W44607   6.789  20.848  16.529
43743W        W44608   5.450  21.332  16.360
43744W        W44609   4.862  21.436  15.271
43745W        W44610   6.144  18.339  14.701
43746W        W44611   3.944  21.599  16.442
43747W        W44612   6.141  19.357  18.077
43748W        W44613   4.124  18.887  18.076
43749W        W44614   3.855  19.487  15.409
43750W        W44615   4.546  19.476  15.134
43751W        W44616   6.309  19.803  17.951
43752W        W44617   4.652  20.084  16.660
43753W        W44618   6.126  18.370  15.780
43754W        W44619   5.257  21.801  16.283
43755W        W44620   6.471  21.263  17.220
43756W        W44621   6.055  21.412  16.331
43757W        W44622   6.074  20.392  15.925
43758W        W44623   5.536  18.617  14.996
43759W        W44624   7.217  18.245  15.718
43760W        W44625   4.905  19.880  14.881
43761W        W44626   7.071  19.217  15.871
43762W        W44627   5.763  20.387  14.748
43763W        W44628   6.699  20.587  17.496
43764W        W44629   6.353  21.288  14.963
43765W        W44630   4.968  18.963  17.869
43766W        W44631   4.788  19.547  17.110
43767W        W44632   6.880  21.042  17.387
43768W        W44633   5.980  18.992  17.764
43769W        W44634   3.824  19.463  17.541
43770W        W44635   5.584  19.940  17.267
43771W        W44636   3.941  20.698  15.924
43772W        W44637   4.088  19.995  16.814
43773W        W44638   6.405  20.281  17.164
43774W        W44639   6.177  21.661  17.975
43775W        W44640   6.073  19.400  17.528
43776W        W44641   6.350  21.454  15.933
43777W        W44642   5.352  21.174  17.256
43778W        W44643   4.837  21.529  16.525
43779W        W44644   6.642  20.700  16.944
43780W        W44645   5.692  20.772  18.081
43781W        W44646   4.297  20.725  16.420
43782W        W44647   6.643  20.484  16.065
43783W        W44648   6.284  21.550  16.816
43784W        W44649   4.262  21.279  16.686
43785W        W44650   5.283  19.331  17.896
43786W        W44651   5.734  21.497  15.407
43787W        W44652   5.042  20.752  18.045
43788W        W44653   5.168  20.990  15.422
43789W        W44654   4.389  19.730  14.681
43790W        W44655   3.728  21.816  21.580
43791W        W44656   4.104  20.709  21.103
43792W        W44657   6.809  20.439  18.873
43793W        W44658   6.939  21.524  20.900
43794W        W44659   4.857  21.515  18.426
43795W        W44660   4.940  19.667  19.409
43796W        W44661   4.455  19.515  19.573
43797W        W44662   5.446  20.330  19.007
43798W        W44663   5.121  21.422  21.362
43799W        W44664   3.770  18.983  21.325
43800W        W44665   4.532  18.263  21.127
43801W        W44666   6.226  18.651  20.014
43802W        W44667   5.875  19.522  18.584
43803W        W44668   6.445  18.956  21.675
43804W        W44669   3.811  18.748  20.800
43805W        W44670   3.910  21.367  21.821
43806W        W44671   5.432  20.757  18.553
43807W        W44672   3.864  19.540  20.246
43808W        W44673   4.757  19.431  21.483
43809W        W44674   7.216  19.290  19.982
43810W        W44675   6.980  20.333  20.841
43811W        W44676   5.288  19.666  19.868
43812W        W44677   5.834  21.005  20.237
43813W        W44678   4.334  20.439  20.469
43814W        W44679   3.693  19.967  20.040
43815W        W44680   4.729  19.939  21.232
43816W        W44681   7.000  19.722  21.486
43817W        W44682   4.616  21.166  19.931
43818W        W44683   5.737  20.855  21.065
43819W        W44684   4.957  19.495  20.290
43820W        W44685   5.249  20.279  19.933
43821W        W44686   6.246  21.052  21.781
43822W        W44687   5.325  20.372  21.791
43823W        W44688   5.306  20.088  21.269
43824W        W44689   3.715  19.479  21.791
43825W        W44690   6.547  21.014  21.390
43826W        W44691   4.128  18.596  19.388
43827W        W44692   4.655  20.854  20.387
43828W        W44693   7.118  20.637  19.677
43829W        W44694   6.531  19.037  20.244
43830W        W44695   6.816  18.990  18.339
43831W        W44696   7.281  19.791  20.645
43832W        W44697   5.248  21.498  20.398
43833W        W44698   7.022  20.964  18.836
43834W        W44699   4.151  21.750  18.590
43835W        W44700   4.544  21.796  19.266
43836W        W44701   4.341  18.550  20.692
43837W        W44702   6.964  19.568  20.967
43838W        W44703   6.369  19.990  19.426
43839W        W44704   6.335  19.678  18.453
43840W        W44705   5.543  20.822  20.593
43841W        W44706   5.349  19.152  19.792
43842W        W44707   5.949  21.239  20.786
43843W        W44708   6.820  20.030  19.208
43844W        W44709   5.722  18.688  19.224
43845W        W44710   4.379  21.382  18.907
43846W        W44711   3.750  18.881  19.506
43847W        W44712   6.536  19.488  19.980
43848W        W44713   3.994  21.105  19.895
43849W        W44714   5.335  21.455  18.765
43850W        W44715   6.727  19.481  18.229
43851W        W44716   3.750  21.239  20.393
43852W        W44717   4.541  20.811  20.873
43853W        W44718   4.914  20.171  19.492
43854W        W44719   4.936  18.576  20.585
43855W        W44720   7.165  18.338  19.882
43856W        W44721   4.384  20.210  18.350
43857W        W44722   4.039  19.243  18.529
43858W        W44723   4.101  21.199  19.323
43859W        W44724   5.232  20.682  19.571
43860W        W44725   6.564  21.541  21.285
43861W        W44726   5.490  19.183  18.969
43862W        W44727   6.873  21.581  19.741
43863W        W44728   6.550  19.434  21.339
43864W        W44729   7.263  21.090  19.473
43865W        W44730   5.890  20.382  20.957
43866W        W44731   3.656  19.933  19.163
43867W        W44732   4.767  20.348  20.736
43868W        W44733   5.971  19.612  19.114
43869W        W44734   5.848  20.102  19.218
43870W        W44735   4.191  19.522  20.692
43871W        W44736   4.176  19.398  21.614
43872W        W44737   4.066  18.315  19.773
43873W        W44738   5.834  18.662  20.334
43874W        W44739   5.482  18.847  21.497
43875W        W44740   5.837  18.996  18.675
43876W        W44741   7.020  21.389  21.429
43877W        W44742   5.987  18.470  21.468
43878W        W44743   7.006  20.771  21.590
43879W        W44744   6.436  18.938  21.186
43880W        W44745   6.236  18.876  19.456
43881W        W44746   6.629  20.010  21.860
43882W        W44747   4.369  21.586  19.846
43883W        W44748   5.027  19.303  18.832
43884W        W44749   4.596  18.587  21.496
43885W        W44750   6.648  19.071  19.177
43886W        W44751   7.015  19.553  19.122
43887W        W44752   4.758  21.770  21.593
43888W        W44753   4.684  18.306  18.828
43889W        W44754   7.005  18.840  19.863
43890W        W44755   7.155  21.089  18.308
43891W        W44756   4.062  20.292  20.010
43892W        W44757   5.979  18.879  18.240
43893W        W44758   7.113  21.211  19.960
43894W        W44759   7.152  18.405  20.710
43895W        W44760   5.597  19.617  21.264
43896W        W44761   5.690  20.956  18.967
43897W        W44762   6.090  20.250  21.707
43898W        W44763   5.764  18.227  20.016
43899W        W44764   4.376  19.130  20.079
43900W        W44765   3.930  20.330  20.853
43901W        W44766   5.789  21.523  19.559
43902W        W44767   6.983  19.120  20.431
43903W        W44768   5.620  21.467  21.198
43904W        W44769   6.963  20.526  18.403
43905W        W44770   5.398  20.009  19.464
43906W        W44771   7.250  18.520  21.205
43907W        W44772   5.399  20.355  20.799
43908W        W44773   5.616  19.241  20.244
43909W        W44774   6.468  19.539  19.082
43910W        W44775   6.755  19.272  18.724
43911W        W44776   6.564  21.312  19.113
43912W        W44777   6.398  20.915  19.909
43913W        W44778   6.294  19.994  18.887
43914W        W44779   5.727  20.204  19.873
43915W        W44780   6.608  19.992  19.940
43916W        W44781   3.983  19.007  20.364
43917W        W44782   6.761  20.059  21.191
43918W        W44783   7.112  21.677  20.337
43919W        W44784   5.042  21.121  19.739
43920W        W44785   6.049  21.654  21.063
43921W        W44786   6.043  18.984  20.827
43922W        W44787   5.250  21.692  20.888
43923W        W44788   6.947  18.646  19.354
43924W        W44789   6.738  19.965  20.655
43925W        W44790   3.721  19.286  20.693
43926W        W44791   6.581  19.081  19.711
43927W        W44792   6.992  19.232  21.488
43928W        W44793   5.877  20.931  19.706
43929W        W44794   5.133  21.522  19.319
43930W        W44795   4.248  18.702  18.577
43931W        W44796   5.352  18.356  20.387
43932W        W44797   4.380  21.476  18.235
43933W        W44798   4.754  19.942  18.986
43934W        W44799   5.408  20.571  21.299
43935W        W44800   5.238  18.929  19.289
43936W        W44801   6.594  18.526  19.717
43937W        W44802   6.314  21.808  20.045
43938W        W44803   5.726  21.456  20.385
43939W        W44804   5.122  20.493  20.346
43940W        W44805   6.892  21.216  20.472
43941W        W44806   4.586  18.719  19.241
43942W        W44807   5.108  21.016  20.201
43943W        W44808   4.591  18.947  18.266
43944W        W44809   5.392  19.556  20.660
43945W        W44810   6.240  18.422  20.530
43946W        W44811   3.660  20.265  20.415
43947W        W44812   5.364  20.083  18.573
43948W        W44813   4.632  18.398  18.343
43949W        W44814   5.370  19.479  19.394
43950W        W44815   6.340  18.455  21.093
43951W        W44816   4.928  20.467  21.202
43952W        W44817   5.732  20.249  21.419
43953W        W44818   6.349  20.279  21.312
43954W        W44819   5.633  18.419  21.817
43955W        W44820   4.855  19.035  20.210
43956W        W44821   4.281  18.991  19.608
43957W        W44822   4.067  21.703  19.284
43958W        W44823   5.399  21.033  21.409
43959W        W44824   4.434  20.518  18.768
43960W        W44825   6.114  19.903  19.989
43961W        W44826   6.394  19.702  20.388
43962W        W44827   5.599  20.376  20.322
43963W        W44828   6.069  20.750  18.454
43964W        W44829   5.741  18.771  19.782
43965W        W44830   7.220  19.049  19.050
43966W        W44831   3.714  21.638  21.081
43967W        W44832   4.131  20.864  20.613
43968W        W44833   3.698  21.710  18.845
43969W        W44834   5.597  18.980  20.651
43970W        W44835   4.960  21.003  18.500
43971W        W44836   6.865  21.385  18.686
43972W        W44837   5.840  20.038  18.700
43973W        W44838   4.683  19.229  19.217
43974W        W44839   5.515  19.139  18.269
43975W        W44840   6.099  20.704  21.447
43976W        W44841   6.452  18.610  19.064
43977W        W44842   3.782  18.458  18.512
43978W        W44843   5.068  20.777  20.802
43979W        W44844   4.867  20.693  19.894
43980W        W44845   4.609  20.645  18.292
43981W        W44846   3.850  20.886  19.060
43982W        W44847   4.354  19.956  21.502
43983W        W44848   5.058  18.516  21.688
43984W        W44849   5.767  18.658  21.044
43985W        W44850   4.962  18.426  19.325
43986W        W44851   6.021  18.503  18.830
43987W        W44852   3.966  18.435  20.407
43988W        W44853   4.014  19.398  19.777
43989W        W44854   6.703  18.506  20.183
43990W        W44855   4.125  19.004  18.997
43991W        W44856   6.696  18.692  20.613
43992W        W44857   7.092  19.895  18.298
43993W        W44858   4.384  18.653  20.117
43994W        W44859   5.498  19.225  21.057
43995W        W44860   3.646  18.915  18.535
43996W        W44861   4.432  20.304  21.096
43997W        W44862   5.790  19.702  20.275
43998W        W44863   5.657  21.781  18.571
43999W        W44864   3.803  20.288  18.268
44000W        W44865   4.538  20.699  21.394
44001W        W44866   4.059  19.866  21.025
44002W        W44867   5.050  19.971  20.819
44003W        W44868   6.818  18.330  21.081
44004W        W44869   7.216  19.940  21.072
44005W        W44870   7.204  20.140  18.758
44006W        W44871   6.067  20.472  18.857
44007W        W44872   6.541  21.772  18.552
44008W        W44873   5.718  19.762  21.694
44009W        W44874   4.048  20.729  21.734
44010W        W44875   7.254  18.651  21.686
44011W        W44876   6.972  19.579  20.307
44012W        W44877   5.280  21.709  21.784
44013W        W44878   5.135  18.338  18.511
44014W        W44879   6.674  20.937  18.454
44015W        W44880   4.443  19.030  21.340
44016W        W44881   4.877  21.024  21.202
44017W        W44882   7.003  19.015  21.000
44018W        W44883   6.214  21.674  18.968
44019W        W44884   6.453  20.293  20.335
44020W        W44885   4.703  18.709  21.002
44021W        W44886   5.172  19.778  21.759
44022W        W44887   4.675  20.957  18.953
44023W        W44888   6.430  20.455  19.217
44024W        W44889   4.198  19.081  20.941
44025W        W44890   5.527  21.143  19.405
44026W        W44891   7.277  19.703  19.586
44027W        W44892   5.499  18.336  21.305
44028W        W44893   6.279  21.041  20.384
44029W        W44894   6.582  21.385  20.092
44030W        W44895   5.801  21.187  18.520
44031W        W44896   3.811  21.079  21.362
44032W        W44897   4.554  19.071  20.600
44033W        W44898   4.524  18.419  19.710
44034W        W44899   6.145  19.261  20.402
44035W        W44900   4.943  20.432  18.602
44036W        W44901   6.941  20.374  20.101
44037W        W44902   4.268  21.132  21.524
44038W        W44903   6.655  21.814  19.321
44039W        W44904   4.754  18.834  19.766
44040W        W44905   4.523  20.327  19.856
44041W        W44906   4.836  21.738  20.606
44042W        W44907   6.903  21.834  21.638
44043W        W44908   6.062  20.022  20.571
44044W        W44909   3.911  19.820  18.486
44045W        W44910   7.045  21.478  19.183
44046W        W44911   6.882  18.802  18.802
44047W        W44912   5.021  18.321  21.205
44048W        W44913   6.727  21.123  19.663
44049W        W44914   6.756  19.679  19.568
44050W        W44915   4.873  19.352  19.784
44051W        W44916   5.118  19.614  21.108
44052W        W44917   6.229  20.767  20.971
44053W        W44918   4.879  19.221  21.083
44054W        W44919   4.858  21.687  19.699
44055W        W44920   4.175  21.646  21.333
44056W        W44921   4.287  21.007  18.463
44057W        W44922   6.804  20.765  19.273
44058W        W44923   4.408  19.557  21.159
44059W        W44924   7.181  19.487  18.640
44060W        W44925   4.926  20.544  19.111
44061W        W44926   6.025  19.926  21.192
44062W        W44927   5.916  19.554  20.736
44063W        W44928   4.476  19.926  20.765
44064W        W44929   6.686  21.814  20.594
44065W        W44930   6.477  18.448  21.588
44066W        W44931   4.141  18.598  21.175
44067W        W44932   4.480  19.621  20.228
44068W        W44933   4.849  19.435  18.350
44069W        W44934   3.652  21.194  20.895
44070W        W44935   5.237  19.903  20.338
44071W        W44936   5.060  18.928  18.443
44072W        W44937   4.195  19.744  19.224
44073W        W44938   3.966  21.596  20.661
44074W        W44939   6.761  19.822  18.769
44075W        W44940   6.856  18.738  21.455
44076W        W44941   6.292  20.947  19.418
44077W        W44942   3.890  19.871  21.595
44078W        W44943   6.856  18.335  18.891
44079W        W44944   6.376  20.810  18.902
44080W        W44945   5.278  19.868  18.987
44081W        W44946   6.465  18.672  18.510
44082W        W44947   6.530  19.279  20.696
44083W        W44948   4.239  19.872  19.903
44084W        W44949   4.533  20.811  19.552
44085W        W44950   6.296  19.431  19.517
44086W        W44951   5.319  18.810  20.213
44087W        W44952   7.281  20.721  20.724
44088W        W44953   7.199  18.708  20.285
44089W        W44954   3.738  21.538  19.661
44090W        W44955   4.247  20.725  19.197
44091W        W44956   4.162  18.342  21.750
44092W        W44957   5.281  21.195  21.852
44093W        W44958   7.036  20.163  19.642
44094W        W44959   6.390  20.340  18.522
44095W        W44960   5.685  21.861  20.734
44096W        W44961   6.542  20.583  21.771
44097W        W44962   5.357  18.293  19.051
44098W        W44963   6.070  19.162  19.910
44099W        W44964   3.756  20.749  20.242
44100W        W44965   5.009  18.711  18.883
44101W        W44966   4.813  20.195  21.732
44102W        W44967   5.807  19.176  19.446
44103W        W44968   6.012  20.586  20.568
44104W        W44969   4.166  21.191  21.003
44105W        W44970   4.757  21.174  21.726
44106W        W44971   4.608  18.971  18.740
44107W        W44972   6.125  19.113  19.065
44108W        W44973   6.083  21.221  21.302
44109W        W44974   4.768  19.813  19.901
44110W        W44975   4.423  21.511  20.766
44111W        W44976   7.168  21.628  18.367
44112W        W44977   4.031  20.300  21.363
44113W        W44978   6.026  20.562  20.051
44114W        W44979   4.462  20.211  19.293
44115W        W44980   4.833  21.218  20.688
44116W        W44981   5.211  18.637  19.729
44117W        W44982   3.822  20.621  18.659
44118W        W44983   5.341  19.572  18.529
44119W        W44984   3.987  20.121  19.548
44120W        W44985   5.277  18.763  21.012
44121W        W44986   6.949  18.472  18.439
44122W        W44987   7.042  20.218  21.538
44123W        W44988   5.696  21.475  21.690
44124W        W44989   7.254  20.569  21.212
44125W        W44990   6.662  21.367  21.823
44126W        W44991   4.401  21.823  20.301
44127W        W44992   7.260  20.445  19.175
44128W        W44993   5.790  19.712  19.688
44129W        W44994   5.557  18.324  19.578
44130W        W44995   4.616  21.308  19.415
44131W        W44996   5.115  19.049  20.640
44132W        W44997   4.815  18.418  20.109
44133W        W44998   3.878  21.240  18.657
44134W        W44999   5.694  20.604  19.375
44135W        W45000   4.569  21.399  21.254
44136W        W45001   4.046  20.222  18.950
44137W        W45002   3.931  18.765  19.949
44138W        W45003   5.479  20.730  20.006
44139W        W45004   3.731  18.584  19.026
44140W        W45005   6.395  19.790  20.953
44141W        W45006   6.272  19.176  18.525
44142W        W45007   6.789  20.848  20.173
44143W        W45008   5.450  21.332  20.004
44144W        W45009   4.862  21.436  18.915
44145W        W45010   6.144  18.339  18.345
44146W        W45011   3.944  21.599  20.086
44147W        W45012   6.141  19.357  21.721
44148W        W45013   4.124  18.887  21.720
44149W        W45014   3.855  19.487  19.053
44150W        W45015   4.546  19.476  18.778
44151W        W45016   6.309  19.803  21.595
44152W        W45017   4.652  20.084  20.304
44153W        W45018   6.126  18.370  19.424
44154W        W45019   5.257  21.801  19.927
44155W        W45020   6.471  21.263  20.864
44156W        W45021   6.055  21.412  19.975
44157W        W45022   6.074  20.392  19.569
44158W        W45023   5.536  18.617  18.640
44159W        W45024   7.217  18.245  19.362
44160W        W45025   4.905  19.880  18.525
44161W        W45026   7.071  19.217  19.515
44162W        W45027   5.763  20.387  18.392
44163W        W45028   6.699  20.587  21.140
44164W        W45029   6.353  21.288  18.607
44165W        W45030   4.968  18.963  21.513
44166W        W45031   4.788  19.547  20.754
44167W        W45032   6.880  21.042  21.031
44168W        W45033   5.980  18.992  21.408
44169W        W45034   3.824  19.463  21.185
44170W        W45035   5.584  19.940  20.911
44171W        W45036   3.941  20.698  19.568
44172W        W45037   4.088  19.995  20.458
44173W        W45038   6.405  20.281  20.808
44174W        W45039   6.177  21.661  21.619
44175W        W45040   6.073  19.400  21.172
44176W        W45041   6.350  21.454  19.577
44177W        W45042   5.352  21.174  20.900
44178W        W45043   4.837  21.529  20.169
44179W        W45044   6.642  20.700  20.588
44180W        W45045   5.692  20.772  21.725
44181W        W45046   4.297  20.725  20.064
44182W        W45047   6.643  20.484  19.709
44183W        W45048   6.284  21.550  20.460
44184W        W45049   4.262  21.279  20.330
44185W        W45050   5.283  19.331  21.540
44186W        W45051   5.734  21.497  19.051
44187W        W45052   5.042  20.752  21.689
44188W        W45053   5.168  20.990  19.066
44189W        W45054   4.389  19.730  18.325
44190W        W45055   3.728  21.816  25.225
44191W        W45056   4.104  20.709  24.748
44192W        W45057   6.809  20.439  22.518
44193W        W45058   6.939  21.524  24.545
44194W        W45059   4.857  21.515  22.071
44195W        W45060   4.940  19.667  23.054
44196W        W45061   4.455  19.515  23.218
44197W        W45062   5.446  20.330  22.652
44198W        W45063   5.121  21.422  25.007
44199W        W45064   3.770  18.983  24.970
44200W        W45065   4.532  18.263  24.772
44201W        W45066   6.226  18.651  23.659
44202W        W45067   5.875  19.522  22.229
44203W        W45068   6.445  18.956  25.320
44204W        W45069   3.811  18.748  24.445
44205W        W45070   3.910  21.367  25.466
44206W        W45071   5.432  20.757  22.198
44207W        W45072   3.864  19.540  23.891
44208W        W45073   4.757  19.431  25.128
44209W        W45074   7.216  19.290  23.627
44210W        W45075   6.980  20.333  24.486
44211W        W45076   5.288  19.666  23.513
44212W        W45077   5.834  21.005  23.882
44213W        W45078   4.334  20.439  24.114
44214W        W45079   3.693  19.967  23.685
44215W        W45080   4.729  19.939  24.877
44216W        W45081   7.000  19.722  25.131
44217W        W45082   4.616  21.166  23.576
44218W        W45083   5.737  20.855  24.710
44219W        W45084   4.957  19.495  23.935
44220W        W45085   5.249  20.279  23.578
44221W        W45086   6.246  21.052  25.426
44222W        W45087   5.325  20.372  25.436
44223W        W45088   5.306  20.088  24.914
44224W        W45089   3.715  19.479  25.436
44225W        W45090   6.547  21.014  25.035
44226W        W45091   4.128  18.596  23.033
44227W        W45092   4.655  20.854  24.032
44228W        W45093   7.118  20.637  23.322
44229W        W45094   6.531  19.037  23.889
44230W        W45095   6.816  18.990  21.984
44231W        W45096   7.281  19.791  24.290
44232W        W45097   5.248  21.498  24.043
44233W        W45098   7.022  20.964  22.481
44234W        W45099   4.151  21.750  22.235
44235W        W45100   4.544  21.796  22.911
44236W        W45101   4.341  18.550  24.337
44237W        W45102   6.964  19.568  24.612
44238W        W45103   6.369  19.990  23.071
44239W        W45104   6.335  19.678  22.098
44240W        W45105   5.543  20.822  24.238
44241W        W45106   5.349  19.152  23.437
44242W        W45107   5.949  21.239  24.431
44243W        W45108   6.820  20.030  22.853
44244W        W45109   5.722  18.688  22.869
44245W        W45110   4.379  21.382  22.552
44246W        W45111   3.750  18.881  23.151
44247W        W45112   6.536  19.488  23.625
44248W        W45113   3.994  21.105  23.540
44249W        W45114   5.335  21.455  22.410
44250W        W45115   6.727  19.481  21.874
44251W        W45116   3.750  21.239  24.038
44252W        W45117   4.541  20.811  24.518
44253W        W45118   4.914  20.171  23.137
44254W        W45119   4.936  18.576  24.230
44255W        W45120   7.165  18.338  23.527
44256W        W45121   4.384  20.210  21.995
44257W        W45122   4.039  19.243  22.174
44258W        W45123   4.101  21.199  22.968
44259W        W45124   5.232  20.682  23.216
44260W        W45125   6.564  21.541  24.930
44261W        W45126   5.490  19.183  22.614
44262W        W45127   6.873  21.581  23.386
44263W        W45128   6.550  19.434  24.984
44264W        W45129   7.263  21.090  23.118
44265W        W45130   5.890  20.382  24.602
44266W        W45131   3.656  19.933  22.808
44267W        W45132   4.767  20.348  24.381
44268W        W45133   5.971  19.612  22.759
44269W        W45134   5.848  20.102  22.863
44270W        W45135   4.176  19.398  25.259
44271W        W45136   4.066  18.315  23.418
44272W        W45137   5.834  18.662  23.979
44273W        W45138   5.482  18.847  25.142
44274W        W45139   5.837  18.996  22.320
44275W        W45140   7.020  21.389  25.074
44276W        W45141   5.987  18.470  25.113
44277W        W45142   7.006  20.771  25.235
44278W        W45143   6.436  18.938  24.831
44279W        W45144   6.236  18.876  23.101
44280W        W45145   6.629  20.010  25.505
44281W        W45146   4.369  21.586  23.491
44282W        W45147   5.027  19.303  22.477
44283W        W45148   4.596  18.587  25.141
44284W        W45149   6.648  19.071  22.822
44285W        W45150   7.015  19.553  22.767
44286W        W45151   4.758  21.770  25.238
44287W        W45152   4.684  18.306  22.473
44288W        W45153   7.005  18.840  23.508
44289W        W45154   7.155  21.089  21.953
44290W        W45155   4.062  20.292  23.655
44291W        W45156   5.979  18.879  21.885
44292W        W45157   7.113  21.211  23.605
44293W        W45158   7.152  18.405  24.355
44294W        W45159   5.597  19.617  24.909
44295W        W45160   5.690  20.956  22.612
44296W        W45161   6.090  20.250  25.352
44297W        W45162   5.764  18.227  23.661
44298W        W45163   4.376  19.130  23.724
44299W        W45164   3.930  20.330  24.498
44300W        W45165   5.789  21.523  23.204
44301W        W45166   6.983  19.120  24.076
44302W        W45167   5.620  21.467  24.843
44303W        W45168   6.963  20.526  22.048
44304W        W45169   5.398  20.009  23.109
44305W        W45170   7.250  18.520  24.850
44306W        W45171   5.399  20.355  24.444
44307W        W45172   5.616  19.241  23.889
44308W        W45173   6.468  19.539  22.727
44309W        W45174   6.755  19.272  22.369
44310W        W45175   6.564  21.312  22.758
44311W        W45176   6.398  20.915  23.554
44312W        W45177   6.294  19.994  22.532
44313W        W45178   5.727  20.204  23.518
44314W        W45179   6.608  19.992  23.585
44315W        W45180   3.983  19.007  24.009
44316W        W45181   6.761  20.059  24.836
44317W        W45182   7.112  21.677  23.982
44318W        W45183   5.042  21.121  23.384
44319W        W45184   6.049  21.654  24.708
44320W        W45185   6.043  18.984  24.472
44321W        W45186   5.250  21.692  24.533
44322W        W45187   6.947  18.646  22.999
44323W        W45188   6.738  19.965  24.300
44324W        W45189   3.721  19.286  24.338
44325W        W45190   6.581  19.081  23.356
44326W        W45191   6.992  19.232  25.133
44327W        W45192   5.877  20.931  23.351
44328W        W45193   5.133  21.522  22.964
44329W        W45194   4.248  18.702  22.222
44330W        W45195   5.352  18.356  24.032
44331W        W45196   4.380  21.476  21.880
44332W        W45197   4.754  19.942  22.631
44333W        W45198   5.408  20.571  24.944
44334W        W45199   5.238  18.929  22.934
44335W        W45200   6.594  18.526  23.362
44336W        W45201   6.314  21.808  23.690
44337W        W45202   5.726  21.456  24.030
44338W        W45203   5.122  20.493  23.991
44339W        W45204   6.892  21.216  24.117
44340W        W45205   4.586  18.719  22.886
44341W        W45206   5.108  21.016  23.846
44342W        W45207   4.591  18.947  21.911
44343W        W45208   5.392  19.556  24.305
44344W        W45209   6.240  18.422  24.175
44345W        W45210   3.660  20.265  24.060
44346W        W45211   5.364  20.083  22.218
44347W        W45212   4.632  18.398  21.988
44348W        W45213   5.370  19.479  23.039
44349W        W45214   6.340  18.455  24.738
44350W        W45215   4.928  20.467  24.847
44351W        W45216   5.732  20.249  25.064
44352W        W45217   6.349  20.279  24.957
44353W        W45218   5.633  18.419  25.462
44354W        W45219   4.855  19.035  23.855
44355W        W45220   4.281  18.991  23.253
44356W        W45221   4.067  21.703  22.929
44357W        W45222   5.399  21.033  25.054
44358W        W45223   4.434  20.518  22.413
44359W        W45224   6.114  19.903  23.634
44360W        W45225   6.394  19.702  24.033
44361W        W45226   5.599  20.376  23.967
44362W        W45227   6.069  20.750  22.099
44363W        W45228   5.741  18.771  23.427
44364W        W45229   7.220  19.049  22.695
44365W        W45230   3.714  21.638  24.726
44366W        W45231   4.131  20.864  24.258
44367W        W45232   3.698  21.710  22.490
44368W        W45233   5.597  18.980  24.296
44369W        W45234   4.960  21.003  22.145
44370W        W45235   6.865  21.385  22.331
44371W        W45236   5.840  20.038  22.345
44372W        W45237   4.683  19.229  22.862
44373W        W45238   5.515  19.139  21.914
44374W        W45239   6.099  20.704  25.092
44375W        W45240   6.452  18.610  22.709
44376W        W45241   3.782  18.458  22.157
44377W        W45242   5.068  20.777  24.447
44378W        W45243   4.867  20.693  23.539
44379W        W45244   4.609  20.645  21.937
44380W        W45245   3.850  20.886  22.705
44381W        W45246   4.354  19.956  25.147
44382W        W45247   5.058  18.516  25.333
44383W        W45248   5.767  18.658  24.689
44384W        W45249   4.962  18.426  22.970
44385W        W45250   6.021  18.503  22.475
44386W        W45251   3.966  18.435  24.052
44387W        W45252   4.014  19.398  23.422
44388W        W45253   6.703  18.506  23.828
44389W        W45254   4.125  19.004  22.642
44390W        W45255   6.696  18.692  24.258
44391W        W45256   7.092  19.895  21.943
44392W        W45257   4.384  18.653  23.762
44393W        W45258   5.498  19.225  24.702
44394W        W45259   3.646  18.915  22.180
44395W        W45260   4.432  20.304  24.741
44396W        W45261   5.790  19.702  23.920
44397W        W45262   5.657  21.781  22.216
44398W        W45263   3.803  20.288  21.913
44399W        W45264   4.538  20.699  25.039
44400W        W45265   4.059  19.866  24.670
44401W        W45266   5.050  19.971  24.464
44402W        W45267   6.818  18.330  24.726
44403W        W45268   7.216  19.940  24.717
44404W        W45269   7.204  20.140  22.403
44405W        W45270   6.067  20.472  22.502
44406W        W45271   6.541  21.772  22.197
44407W        W45272   5.718  19.762  25.339
44408W        W45273   4.048  20.729  25.379
44409W        W45274   7.254  18.651  25.331
44410W        W45275   6.972  19.579  23.952
44411W        W45276   5.280  21.709  25.429
44412W        W45277   5.135  18.338  22.156
44413W        W45278   6.674  20.937  22.099
44414W        W45279   4.443  19.030  24.985
44415W        W45280   4.877  21.024  24.847
44416W        W45281   7.003  19.015  24.645
44417W        W45282   6.214  21.674  22.613
44418W        W45283   6.453  20.293  23.980
44419W        W45284   4.703  18.709  24.647
44420W        W45285   5.172  19.778  25.404
44421W        W45286   4.675  20.957  22.598
44422W        W45287   6.430  20.455  22.862
44423W        W45288   4.198  19.081  24.586
44424W        W45289   5.527  21.143  23.050
44425W        W45290   7.277  19.703  23.231
44426W        W45291   5.499  18.336  24.950
44427W        W45292   6.279  21.041  24.029
44428W        W45293   6.582  21.385  23.737
44429W        W45294   5.801  21.187  22.165
44430W        W45295   3.811  21.079  25.007
44431W        W45296   4.554  19.071  24.245
44432W        W45297   4.524  18.419  23.355
44433W        W45298   6.145  19.261  24.047
44434W        W45299   4.943  20.432  22.247
44435W        W45300   6.941  20.374  23.746
44436W        W45301   4.268  21.132  25.169
44437W        W45302   6.655  21.814  22.966
44438W        W45303   4.754  18.834  23.411
44439W        W45304   4.523  20.327  23.501
44440W        W45305   4.836  21.738  24.251
44441W        W45306   6.903  21.834  25.283
44442W        W45307   6.062  20.022  24.216
44443W        W45308   3.911  19.820  22.131
44444W        W45309   7.045  21.478  22.828
44445W        W45310   6.882  18.802  22.447
44446W        W45311   5.021  18.321  24.850
44447W        W45312   6.727  21.123  23.308
44448W        W45313   6.756  19.679  23.213
44449W        W45314   4.873  19.352  23.429
44450W        W45315   5.118  19.614  24.753
44451W        W45316   6.229  20.767  24.616
44452W        W45317   4.879  19.221  24.728
44453W        W45318   4.858  21.687  23.344
44454W        W45319   4.175  21.646  24.978
44455W        W45320   4.287  21.007  22.108
44456W        W45321   6.804  20.765  22.918
44457W        W45322   4.408  19.557  24.804
44458W        W45323   7.181  19.487  22.285
44459W        W45324   4.926  20.544  22.756
44460W        W45325   6.025  19.926  24.837
44461W        W45326   5.916  19.554  24.381
44462W        W45327   4.476  19.926  24.410
44463W        W45328   6.686  21.814  24.239
44464W        W45329   6.477  18.448  25.233
44465W        W45330   4.141  18.598  24.820
44466W        W45331   4.480  19.621  23.873
44467W        W45332   4.849  19.435  21.995
44468W        W45333   3.652  21.194  24.540
44469W        W45334   5.237  19.903  23.983
44470W        W45335   5.060  18.928  22.088
44471W        W45336   4.195  19.744  22.869
44472W        W45337   3.966  21.596  24.306
44473W        W45338   6.761  19.822  22.414
44474W        W45339   6.856  18.738  25.100
44475W        W45340   6.292  20.947  23.063
44476W        W45341   3.890  19.871  25.240
44477W        W45342   6.856  18.335  22.536
44478W        W45343   6.376  20.810  22.547
44479W        W45344   6.465  18.672  22.155
44480W        W45345   6.530  19.279  24.341
44481W        W45346   4.239  19.872  23.548
44482W        W45347   4.533  20.811  23.197
44483W        W45348   6.296  19.431  23.162
44484W        W45349   5.319  18.810  23.858
44485W        W45350   7.281  20.721  24.369
44486W        W45351   7.199  18.708  23.930
44487W        W45352   3.738  21.538  23.306
44488W        W45353   4.247  20.725  22.842
44489W        W45354   4.162  18.342  25.395
44490W        W45355   5.281  21.195  25.497
44491W        W45356   7.036  20.163  23.287
44492W        W45357   6.390  20.340  22.167
44493W        W45358   5.685  21.861  24.379
44494W        W45359   6.542  20.583  25.416
44495W        W45360   5.357  18.293  22.696
44496W        W45361   6.070  19.162  23.555
44497W        W45362   3.756  20.749  23.887
44498W        W45363   5.009  18.711  22.528
44499W        W45364   4.813  20.195  25.377
44500W        W45365   5.807  19.176  23.091
44501W        W45366   6.012  20.586  24.213
44502W        W45367   4.166  21.191  24.648
44503W        W45368   4.757  21.174  25.371
44504W        W45369   4.608  18.971  22.385
44505W        W45370   6.125  19.113  22.710
44506W        W45371   6.083  21.221  24.947
44507W        W45372   4.768  19.813  23.546
44508W        W45373   4.423  21.511  24.411
44509W        W45374   7.168  21.628  22.012
44510W        W45375   4.031  20.300  25.008
44511W        W45376   6.026  20.562  23.696
44512W        W45377   4.462  20.211  22.938
44513W        W45378   4.833  21.218  24.333
44514W        W45379   5.211  18.637  23.374
44515W        W45380   3.822  20.621  22.304
44516W        W45381   5.341  19.572  22.174
44517W        W45382   3.987  20.121  23.193
44518W        W45383   5.277  18.763  24.657
44519W        W45384   6.949  18.472  22.084
44520W        W45385   7.042  20.218  25.183
44521W        W45386   5.696  21.475  25.335
44522W        W45387   7.254  20.569  24.857
44523W        W45388   6.662  21.367  25.468
44524W        W45389   4.401  21.823  23.946
44525W        W45390   7.260  20.445  22.820
44526W        W45391   5.790  19.712  23.333
44527W        W45392   5.557  18.324  23.223
44528W        W45393   4.616  21.308  23.060
44529W        W45394   5.115  19.049  24.285
44530W        W45395   4.815  18.418  23.754
44531W        W45396   3.878  21.240  22.302
44532W        W45397   5.694  20.604  23.020
44533W        W45398   4.569  21.399  24.899
44534W        W45399   4.046  20.222  22.595
44535W        W45400   3.931  18.765  23.594
44536W        W45401   5.479  20.730  23.651
44537W        W45402   3.731  18.584  22.671
44538W        W45403   6.395  19.790  24.598
44539W        W45404   6.272  19.176  22.170
44540W        W45405   6.789  20.848  23.818
44541W        W45406   5.450  21.332  23.649
44542W        W45407   4.862  21.436  22.560
44543W        W45408   6.144  18.339  21.990
44544W        W45409   3.944  21.599  23.731
44545W        W45410   6.141  19.357  25.366
44546W        W45411   4.124  18.887  25.365
44547W        W45412   3.855  19.487  22.698
44548W        W45413   4.546  19.476  22.423
44549W        W45414   6.309  19.803  25.240
44550W        W45415   4.652  20.084  23.949
44551W        W45416   6.126  18.370  23.069
44552W        W45417   5.257  21.801  23.572
44553W        W45418   6.471  21.263  24.509
44554W        W45419   6.055  21.412  23.620
44555W        W45420   6.074  20.392  23.214
44556W        W45421   5.536  18.617  22.285
44557W        W45422   7.217  18.245  23.007
44558W        W45423   7.071  19.217  23.160
44559W        W45424   5.763  20.387  22.037
44560W        W45425   6.699  20.587  24.785
44561W        W45426   6.353  21.288  22.252
44562W        W45427   4.968  18.963  25.158
44563W        W45428   4.788  19.547  24.399
44564W        W45429   6.880  21.042  24.676
44565W        W45430   5.980  18.992  25.053
44566W        W45431   3.824  19.463  24.830
44567W        W45432   5.584  19.940  24.556
44568W        W45433   3.941  20.698  23.213
44569W        W45434   4.088  19.995  24.103
44570W        W45435   6.405  20.281  24.453
44571W        W45436   6.177  21.661  25.264
44572W        W45437   6.073  19.400  24.817
44573W        W45438   6.350  21.454  23.222
44574W        W45439   5.352  21.174  24.545
44575W        W45440   4.837  21.529  23.814
44576W        W45441   6.642  20.700  24.233
44577W        W45442   5.692  20.772  25.370
44578W        W45443   4.297  20.725  23.709
44579W        W45444   6.643  20.484  23.354
44580W        W45445   6.284  21.550  24.105
44581W        W45446   4.262  21.279  23.975
44582W        W45447   5.283  19.331  25.185
44583W        W45448   5.734  21.497  22.696
44584W        W45449   5.042  20.752  25.334
44585W        W45450   5.168  20.990  22.711
44586W        W45451   4.389  19.730  21.970
44587W        W45452   3.728  21.816  28.869
44588W        W45453   4.104  20.709  28.392
44589W        W45454   6.809  20.439  26.162
44590W        W45455   6.939  21.524  28.189
44591W        W45456   4.857  21.515  25.715
44592W        W45457   4.940  19.667  26.698
44593W        W45458   4.455  19.515  26.862
44594W        W45459   5.446  20.330  26.296
44595W        W45460   5.121  21.422  28.651
44596W        W45461   3.770  18.983  28.614
44597W        W45462   4.532  18.263  28.416
44598W        W45463   6.226  18.651  27.303
44599W        W45464   5.875  19.522  25.873
44600W        W45465   6.445  18.956  28.964
44601W        W45466   3.811  18.748  28.089
44602W        W45467   3.910  21.367  29.110
44603W        W45468   5.432  20.757  25.842
44604W        W45469   3.864  19.540  27.535
44605W        W45470   4.757  19.431  28.772
44606W        W45471   7.216  19.290  27.271
44607W        W45472   6.980  20.333  28.130
44608W        W45473   5.288  19.666  27.157
44609W        W45474   5.834  21.005  27.526
44610W        W45475   4.334  20.439  27.758
44611W        W45476   3.693  19.967  27.329
44612W        W45477   4.729  19.939  28.521
44613W        W45478   7.000  19.722  28.775
44614W        W45479   4.616  21.166  27.220
44615W        W45480   5.737  20.855  28.354
44616W        W45481   4.957  19.495  27.579
44617W        W45482   5.249  20.279  27.222
44618W        W45483   6.246  21.052  29.070
44619W        W45484   5.325  20.372  29.080
44620W        W45485   5.306  20.088  28.558
44621W        W45486   3.715  19.479  29.080
44622W        W45487   6.547  21.014  28.679
44623W        W45488   4.128  18.596  26.677
44624W        W45489   4.655  20.854  27.676
44625W        W45490   7.118  20.637  26.966
44626W        W45491   6.531  19.037  27.533
44627W        W45492   6.816  18.990  25.628
44628W        W45493   7.281  19.791  27.934
44629W        W45494   5.248  21.498  27.687
44630W        W45495   7.022  20.964  26.125
44631W        W45496   4.151  21.750  25.879
44632W        W45497   4.544  21.796  26.555
44633W        W45498   4.341  18.550  27.981
44634W        W45499   6.964  19.568  28.256
44635W        W45500   6.369  19.990  26.715
44636W        W45501   6.335  19.678  25.742
44637W        W45502   5.543  20.822  27.882
44638W        W45503   5.349  19.152  27.081
44639W        W45504   5.949  21.239  28.075
44640W        W45505   6.820  20.030  26.497
44641W        W45506   5.722  18.688  26.513
44642W        W45507   4.379  21.382  26.196
44643W        W45508   3.750  18.881  26.795
44644W        W45509   6.536  19.488  27.269
44645W        W45510   3.994  21.105  27.184
44646W        W45511   5.335  21.455  26.054
44647W        W45512   6.727  19.481  25.518
44648W        W45513   3.750  21.239  27.682
44649W        W45514   4.541  20.811  28.162
44650W        W45515   4.914  20.171  26.781
44651W        W45516   4.936  18.576  27.874
44652W        W45517   7.165  18.338  27.171
44653W        W45518   4.384  20.210  25.639
44654W        W45519   4.039  19.243  25.818
44655W        W45520   4.101  21.199  26.612
44656W        W45521   5.232  20.682  26.860
44657W        W45522   6.564  21.541  28.574
44658W        W45523   5.490  19.183  26.258
44659W        W45524   6.873  21.581  27.030
44660W        W45525   6.550  19.434  28.628
44661W        W45526   7.263  21.090  26.762
44662W        W45527   5.890  20.382  28.246
44663W        W45528   3.656  19.933  26.452
44664W        W45529   4.767  20.348  28.025
44665W        W45530   5.971  19.612  26.403
44666W        W45531   5.848  20.102  26.507
44667W        W45532   4.191  19.522  27.981
44668W        W45533   4.176  19.398  28.903
44669W        W45534   4.066  18.315  27.062
44670W        W45535   5.834  18.662  27.623
44671W        W45536   5.482  18.847  28.786
44672W        W45537   5.837  18.996  25.964
44673W        W45538   7.020  21.389  28.718
44674W        W45539   5.987  18.470  28.757
44675W        W45540   7.006  20.771  28.879
44676W        W45541   6.436  18.938  28.475
44677W        W45542   6.236  18.876  26.745
44678W        W45543   6.629  20.010  29.149
44679W        W45544   4.369  21.586  27.135
44680W        W45545   5.027  19.303  26.121
44681W        W45546   4.596  18.587  28.785
44682W        W45547   6.648  19.071  26.466
44683W        W45548   7.015  19.553  26.411
44684W        W45549   4.758  21.770  28.882
44685W        W45550   4.684  18.306  26.117
44686W        W45551   7.005  18.840  27.152
44687W        W45552   7.155  21.089  25.597
44688W        W45553   4.062  20.292  27.299
44689W        W45554   5.979  18.879  25.529
44690W        W45555   7.113  21.211  27.249
44691W        W45556   7.152  18.405  27.999
44692W        W45557   5.597  19.617  28.553
44693W        W45558   5.690  20.956  26.256
44694W        W45559   6.090  20.250  28.996
44695W        W45560   5.764  18.227  27.305
44696W        W45561   4.376  19.130  27.368
44697W        W45562   3.930  20.330  28.142
44698W        W45563   5.789  21.523  26.848
44699W        W45564   6.983  19.120  27.720
44700W        W45565   5.620  21.467  28.487
44701W        W45566   6.963  20.526  25.692
44702W        W45567   5.398  20.009  26.753
44703W        W45568   7.250  18.520  28.494
44704W        W45569   5.399  20.355  28.088
44705W        W45570   5.616  19.241  27.533
44706W        W45571   6.468  19.539  26.371
44707W        W45572   6.755  19.272  26.013
44708W        W45573   6.564  21.312  26.402
44709W        W45574   6.398  20.915  27.198
44710W        W45575   6.294  19.994  26.176
44711W        W45576   5.727  20.204  27.162
44712W        W45577   6.608  19.992  27.229
44713W        W45578   3.983  19.007  27.653
44714W        W45579   6.761  20.059  28.480
44715W        W45580   7.112  21.677  27.626
44716W        W45581   5.042  21.121  27.028
44717W        W45582   6.049  21.654  28.352
44718W        W45583   6.043  18.984  28.116
44719W        W45584   5.250  21.692  28.177
44720W        W45585   6.947  18.646  26.643
44721W        W45586   6.738  19.965  27.944
44722W        W45587   3.721  19.286  27.982
44723W        W45588   6.581  19.081  27.000
44724W        W45589   6.992  19.232  28.777
44725W        W45590   5.877  20.931  26.995
44726W        W45591   5.133  21.522  26.608
44727W        W45592   4.248  18.702  25.866
44728W        W45593   5.352  18.356  27.676
44729W        W45594   4.380  21.476  25.524
44730W        W45595   4.754  19.942  26.275
44731W        W45596   5.408  20.571  28.588
44732W        W45597   5.238  18.929  26.578
44733W        W45598   6.594  18.526  27.006
44734W        W45599   6.314  21.808  27.334
44735W        W45600   5.726  21.456  27.674
44736W        W45601   5.122  20.493  27.635
44737W        W45602   6.892  21.216  27.761
44738W        W45603   4.586  18.719  26.530
44739W        W45604   5.108  21.016  27.490
44740W        W45605   4.591  18.947  25.555
44741W        W45606   5.392  19.556  27.949
44742W        W45607   6.240  18.422  27.819
44743W        W45608   3.660  20.265  27.704
44744W        W45609   5.364  20.083  25.862
44745W        W45610   4.632  18.398  25.632
44746W        W45611   5.370  19.479  26.683
44747W        W45612   6.340  18.455  28.382
44748W        W45613   4.928  20.467  28.491
44749W        W45614   5.732  20.249  28.708
44750W        W45615   6.349  20.279  28.601
44751W        W45616   5.633  18.419  29.106
44752W        W45617   4.855  19.035  27.499
44753W        W45618   4.281  18.991  26.897
44754W        W45619   4.067  21.703  26.573
44755W        W45620   5.399  21.033  28.698
44756W        W45621   4.434  20.518  26.057
44757W        W45622   6.114  19.903  27.278
44758W        W45623   6.394  19.702  27.677
44759W        W45624   5.599  20.376  27.611
44760W        W45625   6.069  20.750  25.743
44761W        W45626   5.741  18.771  27.071
44762W        W45627   7.220  19.049  26.339
44763W        W45628   3.714  21.638  28.370
44764W        W45629   4.131  20.864  27.902
44765W        W45630   3.698  21.710  26.134
44766W        W45631   5.597  18.980  27.940
44767W        W45632   4.960  21.003  25.789
44768W        W45633   6.865  21.385  25.975
44769W        W45634   5.840  20.038  25.989
44770W        W45635   4.683  19.229  26.506
44771W        W45636   5.515  19.139  25.558
44772W        W45637   6.099  20.704  28.736
44773W        W45638   6.452  18.610  26.353
44774W        W45639   3.782  18.458  25.801
44775W        W45640   5.068  20.777  28.091
44776W        W45641   4.867  20.693  27.183
44777W        W45642   4.609  20.645  25.581
44778W        W45643   3.850  20.886  26.349
44779W        W45644   4.354  19.956  28.791
44780W        W45645   5.058  18.516  28.977
44781W        W45646   5.767  18.658  28.333
44782W        W45647   4.962  18.426  26.614
44783W        W45648   6.021  18.503  26.119
44784W        W45649   3.966  18.435  27.696
44785W        W45650   4.014  19.398  27.066
44786W        W45651   6.703  18.506  27.472
44787W        W45652   4.125  19.004  26.286
44788W        W45653   6.696  18.692  27.902
44789W        W45654   7.092  19.895  25.587
44790W        W45655   4.384  18.653  27.406
44791W        W45656   5.498  19.225  28.346
44792W        W45657   3.646  18.915  25.824
44793W        W45658   4.432  20.304  28.385
44794W        W45659   5.790  19.702  27.564
44795W        W45660   5.657  21.781  25.860
44796W        W45661   3.803  20.288  25.557
44797W        W45662   4.538  20.699  28.683
44798W        W45663   4.059  19.866  28.314
44799W        W45664   5.050  19.971  28.108
44800W        W45665   6.818  18.330  28.370
44801W        W45666   7.216  19.940  28.361
44802W        W45667   7.204  20.140  26.047
44803W        W45668   6.067  20.472  26.146
44804W        W45669   6.541  21.772  25.841
44805W        W45670   5.718  19.762  28.983
44806W        W45671   4.048  20.729  29.023
44807W        W45672   7.254  18.651  28.975
44808W        W45673   6.972  19.579  27.596
44809W        W45674   5.280  21.709  29.073
44810W        W45675   5.135  18.338  25.800
44811W        W45676   6.674  20.937  25.743
44812W        W45677   4.443  19.030  28.629
44813W        W45678   4.877  21.024  28.491
44814W        W45679   7.003  19.015  28.289
44815W        W45680   6.214  21.674  26.257
44816W        W45681   6.453  20.293  27.624
44817W        W45682   4.703  18.709  28.291
44818W        W45683   5.172  19.778  29.048
44819W        W45684   4.675  20.957  26.242
44820W        W45685   6.430  20.455  26.506
44821W        W45686   4.198  19.081  28.230
44822W        W45687   5.527  21.143  26.694
44823W        W45688   7.277  19.703  26.875
44824W        W45689   5.499  18.336  28.594
44825W        W45690   6.279  21.041  27.673
44826W        W45691   6.582  21.385  27.381
44827W        W45692   5.801  21.187  25.809
44828W        W45693   3.811  21.079  28.651
44829W        W45694   4.554  19.071  27.889
44830W        W45695   4.524  18.419  26.999
44831W        W45696   6.145  19.261  27.691
44832W        W45697   4.943  20.432  25.891
44833W        W45698   6.941  20.374  27.390
44834W        W45699   4.268  21.132  28.813
44835W        W45700   6.655  21.814  26.610
44836W        W45701   4.754  18.834  27.055
44837W        W45702   4.523  20.327  27.145
44838W        W45703   4.836  21.738  27.895
44839W        W45704   6.903  21.834  28.927
44840W        W45705   6.062  20.022  27.860
44841W        W45706   3.911  19.820  25.775
44842W        W45707   7.045  21.478  26.472
44843W        W45708   6.882  18.802  26.091
44844W        W45709   5.021  18.321  28.494
44845W        W45710   6.727  21.123  26.952
44846W        W45711   6.756  19.679  26.857
44847W        W45712   4.873  19.352  27.073
44848W        W45713   5.118  19.614  28.397
44849W        W45714   6.229  20.767  28.260
44850W        W45715   4.879  19.221  28.372
44851W        W45716   4.858  21.687  26.988
44852W        W45717   4.175  21.646  28.622
44853W        W45718   4.287  21.007  25.752
44854W        W45719   6.804  20.765  26.562
44855W        W45720   4.408  19.557  28.448
44856W        W45721   7.181  19.487  25.929
44857W        W45722   4.926  20.544  26.400
44858W        W45723   6.025  19.926  28.481
44859W        W45724   5.916  19.554  28.025
44860W        W45725   4.476  19.926  28.054
44861W        W45726   6.686  21.814  27.883
44862W        W45727   6.477  18.448  28.877
44863W        W45728   4.141  18.598  28.464
44864W        W45729   4.480  19.621  27.517
44865W        W45730   4.849  19.435  25.639
44866W        W45731   3.652  21.194  28.184
44867W        W45732   5.237  19.903  27.627
44868W        W45733   5.060  18.928  25.732
44869W        W45734   4.195  19.744  26.513
44870W        W45735   3.966  21.596  27.950
44871W        W45736   6.761  19.822  26.058
44872W        W45737   6.856  18.738  28.744
44873W        W45738   6.292  20.947  26.707
44874W        W45739   3.890  19.871  28.884
44875W        W45740   6.856  18.335  26.180
44876W        W45741   6.376  20.810  26.191
44877W        W45742   5.278  19.868  26.276
44878W        W45743   6.465  18.672  25.799
44879W        W45744   6.530  19.279  27.985
44880W        W45745   4.239  19.872  27.192
44881W        W45746   4.533  20.811  26.841
44882W        W45747   6.296  19.431  26.806
44883W        W45748   5.319  18.810  27.502
44884W        W45749   7.281  20.721  28.013
44885W        W45750   7.199  18.708  27.574
44886W        W45751   3.738  21.538  26.950
44887W        W45752   4.247  20.725  26.486
44888W        W45753   4.162  18.342  29.039
44889W        W45754   5.281  21.195  29.141
44890W        W45755   7.036  20.163  26.931
44891W        W45756   6.390  20.340  25.811
44892W        W45757   5.685  21.861  28.023
44893W        W45758   6.542  20.583  29.060
44894W        W45759   5.357  18.293  26.340
44895W        W45760   6.070  19.162  27.199
44896W        W45761   3.756  20.749  27.531
44897W        W45762   5.009  18.711  26.172
44898W        W45763   4.813  20.195  29.021
44899W        W45764   5.807  19.176  26.735
44900W        W45765   6.012  20.586  27.857
44901W        W45766   4.166  21.191  28.292
44902W        W45767   4.757  21.174  29.015
44903W        W45768   4.608  18.971  26.029
44904W        W45769   6.125  19.113  26.354
44905W        W45770   6.083  21.221  28.591
44906W        W45771   4.768  19.813  27.190
44907W        W45772   4.423  21.511  28.055
44908W        W45773   7.168  21.628  25.656
44909W        W45774   4.031  20.300  28.652
44910W        W45775   6.026  20.562  27.340
44911W        W45776   4.462  20.211  26.582
44912W        W45777   4.833  21.218  27.977
44913W        W45778   5.211  18.637  27.018
44914W        W45779   3.822  20.621  25.948
44915W        W45780   5.341  19.572  25.818
44916W        W45781   3.987  20.121  26.837
44917W        W45782   5.277  18.763  28.301
44918W        W45783   6.949  18.472  25.728
44919W        W45784   7.042  20.218  28.827
44920W        W45785   5.696  21.475  28.979
44921W        W45786   7.254  20.569  28.501
44922W        W45787   6.662  21.367  29.112
44923W        W45788   4.401  21.823  27.590
44924W        W45789   7.260  20.445  26.464
44925W        W45790   5.790  19.712  26.977
44926W        W45791   5.557  18.324  26.867
44927W        W45792   4.616  21.308  26.704
44928W        W45793   5.115  19.049  27.929
44929W        W45794   4.815  18.418  27.398
44930W        W45795   3.878  21.240  25.946
44931W        W45796   5.694  20.604  26.664
44932W        W45797   4.569  21.399  28.543
44933W        W45798   4.046  20.222  26.239
44934W        W45799   3.931  18.765  27.238
44935W        W45800   5.479  20.730  27.295
44936W        W45801   3.731  18.584  26.315
44937W        W45802   6.395  19.790  28.242
44938W        W45803   6.272  19.176  25.814
44939W        W45804   6.789  20.848  27.462
44940W        W45805   5.450  21.332  27.293
44941W        W45806   4.862  21.436  26.204
44942W        W45807   6.144  18.339  25.634
44943W        W45808   3.944  21.599  27.375
44944W        W45809   6.141  19.357  29.010
44945W        W45810   4.124  18.887  29.009
44946W        W45811   3.855  19.487  26.342
44947W        W45812   4.546  19.476  26.067
44948W        W45813   6.309  19.803  28.884
44949W        W45814   4.652  20.084  27.593
44950W        W45815   6.126  18.370  26.713
44951W        W45816   5.257  21.801  27.216
44952W        W45817   6.471  21.263  28.153
44953W        W45818   6.055  21.412  27.264
44954W        W45819   6.074  20.392  26.858
44955W        W45820   5.536  18.617  25.929
44956W        W45821   7.217  18.245  26.651
44957W        W45822   4.905  19.880  25.814
44958W        W45823   7.071  19.217  26.804
44959W        W45824   5.763  20.387  25.681
44960W        W45825   6.699  20.587  28.429
44961W        W45826   6.353  21.288  25.896
44962W        W45827   4.968  18.963  28.802
44963W        W45828   4.788  19.547  28.043
44964W        W45829   6.880  21.042  28.320
44965W        W45830   5.980  18.992  28.697
44966W        W45831   3.824  19.463  28.474
44967W        W45832   5.584  19.940  28.200
44968W        W45833   3.941  20.698  26.857
44969W        W45834   4.088  19.995  27.747
44970W        W45835   6.405  20.281  28.097
44971W        W45836   6.177  21.661  28.908
44972W        W45837   6.073  19.400  28.461
44973W        W45838   6.350  21.454  26.866
44974W        W45839   5.352  21.174  28.189
44975W        W45840   4.837  21.529  27.458
44976W        W45841   6.642  20.700  27.877
44977W        W45842   5.692  20.772  29.014
44978W        W45843   4.297  20.725  27.353
44979W        W45844   6.643  20.484  26.998
44980W        W45845   6.284  21.550  27.749
44981W        W45846   4.262  21.279  27.619
44982W        W45847   5.283  19.331  28.829
44983W        W45848   5.734  21.497  26.340
44984W        W45849   5.042  20.752  28.978
44985W        W45850   5.168  20.990  26.355
44986W        W45851   4.389  19.730  25.614
44987W        W45852   3.728  25.461   3.359
44988W        W45853   4.104  24.354   2.882
44989W        W45854   6.809  24.084   0.652
44990W        W45855   6.939  25.169   2.679
44991W        W45856   4.857  25.160   0.205
44992W        W45857   4.940  23.312   1.188
44993W        W45858   4.455  23.160   1.352
44994W        W45859   5.446  23.975   0.786
44995W        W45860   5.121  25.067   3.141
44996W        W45861   3.770  22.628   3.104
44997W        W45862   4.532  21.908   2.906
44998W        W45863   6.226  22.296   1.793
44999W        W45864   5.875  23.167   0.363
45000W        W45865   6.445  22.601   3.454
45001W        W45866   3.811  22.393   2.579
45002W        W45867   3.910  25.012   3.600
45003W        W45868   5.432  24.402   0.332
45004W        W45869   3.864  23.185   2.025
45005W        W45870   4.757  23.076   3.262
45006W        W45871   7.216  22.935   1.761
45007W        W45872   6.980  23.978   2.620
45008W        W45873   5.288  23.311   1.647
45009W        W45874   5.834  24.650   2.016
45010W        W45875   4.334  24.084   2.248
45011W        W45876   3.693  23.612   1.819
45012W        W45877   4.729  23.584   3.011
45013W        W45878   7.000  23.367   3.265
45014W        W45879   4.616  24.811   1.710
45015W        W45880   5.737  24.500   2.844
45016W        W45881   4.957  23.140   2.069
45017W        W45882   5.249  23.924   1.712
45018W        W45883   6.246  24.697   3.560
45019W        W45884   5.325  24.017   3.570
45020W        W45885   5.306  23.733   3.048
45021W        W45886   3.715  23.124   3.570
45022W        W45887   6.547  24.659   3.169
45023W        W45888   4.128  22.241   1.167
45024W        W45889   4.655  24.499   2.166
45025W        W45890   7.118  24.282   1.456
45026W        W45891   6.531  22.682   2.023
45027W        W45892   6.816  22.635   0.118
45028W        W45893   7.281  23.436   2.424
45029W        W45894   5.248  25.143   2.177
45030W        W45895   7.022  24.609   0.615
45031W        W45896   4.151  25.395   0.369
45032W        W45897   4.544  25.441   1.045
45033W        W45898   4.341  22.195   2.471
45034W        W45899   6.964  23.213   2.746
45035W        W45900   6.369  23.635   1.205
45036W        W45901   6.335  23.323   0.232
45037W        W45902   5.543  24.467   2.372
45038W        W45903   5.349  22.797   1.571
45039W        W45904   5.949  24.884   2.565
45040W        W45905   6.820  23.675   0.987
45041W        W45906   5.722  22.333   1.003
45042W        W45907   4.379  25.027   0.686
45043W        W45908   3.750  22.526   1.285
45044W        W45909   6.536  23.133   1.759
45045W        W45910   3.994  24.750   1.674
45046W        W45911   5.335  25.100   0.544
45047W        W45912   6.727  23.126   0.008
45048W        W45913   3.750  24.884   2.172
45049W        W45914   4.541  24.456   2.652
45050W        W45915   4.914  23.816   1.271
45051W        W45916   4.936  22.221   2.364
45052W        W45917   7.165  21.983   1.661
45053W        W45918   4.384  23.855   0.129
45054W        W45919   4.039  22.888   0.308
45055W        W45920   4.101  24.844   1.102
45056W        W45921   5.232  24.327   1.350
45057W        W45922   6.564  25.186   3.064
45058W        W45923   5.490  22.828   0.748
45059W        W45924   6.873  25.226   1.520
45060W        W45925   6.550  23.079   3.118
45061W        W45926   7.263  24.735   1.252
45062W        W45927   5.890  24.027   2.736
45063W        W45928   3.656  23.578   0.942
45064W        W45929   4.767  23.993   2.515
45065W        W45930   5.971  23.257   0.893
45066W        W45931   5.848  23.747   0.997
45067W        W45932   4.191  23.167   2.471
45068W        W45933   4.176  23.043   3.393
45069W        W45934   4.066  21.960   1.552
45070W        W45935   5.834  22.307   2.113
45071W        W45936   5.482  22.492   3.276
45072W        W45937   5.837  22.641   0.454
45073W        W45938   7.020  25.034   3.208
45074W        W45939   5.987  22.115   3.247
45075W        W45940   7.006  24.416   3.369
45076W        W45941   6.436  22.583   2.965
45077W        W45942   6.236  22.521   1.235
45078W        W45943   6.629  23.655   3.639
45079W        W45944   4.369  25.231   1.625
45080W        W45945   5.027  22.948   0.611
45081W        W45946   4.596  22.232   3.275
45082W        W45947   6.648  22.716   0.956
45083W        W45948   7.015  23.198   0.901
45084W        W45949   4.758  25.415   3.372
45085W        W45950   4.684  21.951   0.607
45086W        W45951   7.005  22.485   1.642
45087W        W45952   7.155  24.734   0.087
45088W        W45953   4.062  23.937   1.789
45089W        W45954   5.979  22.524   0.019
45090W        W45955   7.113  24.856   1.739
45091W        W45956   7.152  22.050   2.489
45092W        W45957   5.597  23.262   3.043
45093W        W45958   5.690  24.601   0.746
45094W        W45959   6.090  23.895   3.486
45095W        W45960   5.764  21.872   1.795
45096W        W45961   4.376  22.775   1.858
45097W        W45962   3.930  23.975   2.632
45098W        W45963   5.789  25.168   1.338
45099W        W45964   6.983  22.765   2.210
45100W        W45965   5.620  25.112   2.977
45101W        W45966   6.963  24.171   0.182
45102W        W45967   5.398  23.654   1.243
45103W        W45968   7.250  22.165   2.984
45104W        W45969   5.399  24.000   2.578
45105W        W45970   5.616  22.886   2.023
45106W        W45971   6.468  23.184   0.861
45107W        W45972   6.755  22.917   0.503
45108W        W45973   6.564  24.957   0.892
45109W        W45974   6.398  24.560   1.688
45110W        W45975   6.294  23.639   0.666
45111W        W45976   5.727  23.849   1.652
45112W        W45977   6.608  23.637   1.719
45113W        W45978   3.983  22.652   2.143
45114W        W45979   6.761  23.704   2.970
45115W        W45980   7.112  25.322   2.116
45116W        W45981   5.042  24.766   1.518
45117W        W45982   6.049  25.299   2.842
45118W        W45983   6.043  22.629   2.606
45119W        W45984   5.250  25.337   2.667
45120W        W45985   6.947  22.291   1.133
45121W        W45986   6.738  23.610   2.434
45122W        W45987   3.721  22.931   2.472
45123W        W45988   6.581  22.726   1.490
45124W        W45989   6.992  22.877   3.267
45125W        W45990   5.877  24.576   1.485
45126W        W45991   5.133  25.167   1.098
45127W        W45992   4.248  22.347   0.356
45128W        W45993   5.352  22.001   2.166
45129W        W45994   4.380  25.121   0.014
45130W        W45995   4.754  23.587   0.765
45131W        W45996   5.408  24.216   3.078
45132W        W45997   5.238  22.574   1.068
45133W        W45998   6.594  22.171   1.496
45134W        W45999   6.314  25.453   1.824
45135W        W46000   5.726  25.101   2.164
45136W        W46001   5.122  24.138   2.125
45137W        W46002   6.892  24.861   2.251
45138W        W46003   4.586  22.364   1.020
45139W        W46004   5.108  24.661   1.980
45140W        W46005   4.591  22.592   0.045
45141W        W46006   5.392  23.201   2.439
45142W        W46007   6.240  22.067   2.309
45143W        W46008   3.660  23.910   2.194
45144W        W46009   5.364  23.728   0.352
45145W        W46010   4.632  22.043   0.122
45146W        W46011   5.370  23.124   1.173
45147W        W46012   6.340  22.100   2.872
45148W        W46013   4.928  24.112   2.981
45149W        W46014   5.732  23.894   3.198
45150W        W46015   6.349  23.924   3.091
45151W        W46016   5.633  22.064   3.596
45152W        W46017   4.855  22.680   1.989
45153W        W46018   4.281  22.636   1.387
45154W        W46019   4.067  25.348   1.063
45155W        W46020   5.399  24.678   3.188
45156W        W46021   4.434  24.163   0.547
45157W        W46022   6.114  23.548   1.768
45158W        W46023   6.394  23.347   2.167
45159W        W46024   5.599  24.021   2.101
45160W        W46025   6.069  24.395   0.233
45161W        W46026   5.741  22.416   1.561
45162W        W46027   7.220  22.694   0.829
45163W        W46028   3.714  25.283   2.860
45164W        W46029   4.131  24.509   2.392
45165W        W46030   3.698  25.355   0.624
45166W        W46031   5.597  22.625   2.430
45167W        W46032   4.960  24.648   0.279
45168W        W46033   6.865  25.030   0.465
45169W        W46034   5.840  23.683   0.479
45170W        W46035   4.683  22.874   0.996
45171W        W46036   5.515  22.784   0.048
45172W        W46037   6.099  24.349   3.226
45173W        W46038   6.452  22.255   0.843
45174W        W46039   3.782  22.103   0.291
45175W        W46040   5.068  24.422   2.581
45176W        W46041   4.867  24.338   1.673
45177W        W46042   4.609  24.290   0.071
45178W        W46043   3.850  24.531   0.839
45179W        W46044   4.354  23.601   3.281
45180W        W46045   5.058  22.161   3.467
45181W        W46046   5.767  22.303   2.823
45182W        W46047   4.962  22.071   1.104
45183W        W46048   6.021  22.148   0.609
45184W        W46049   3.966  22.080   2.186
45185W        W46050   4.014  23.043   1.556
45186W        W46051   6.703  22.151   1.962
45187W        W46052   4.125  22.649   0.776
45188W        W46053   6.696  22.337   2.392
45189W        W46054   7.092  23.540   0.077
45190W        W46055   4.384  22.298   1.896
45191W        W46056   5.498  22.870   2.836
45192W        W46057   3.646  22.560   0.314
45193W        W46058   4.432  23.949   2.875
45194W        W46059   5.790  23.347   2.054
45195W        W46060   5.657  25.426   0.350
45196W        W46061   3.803  23.933   0.047
45197W        W46062   4.538  24.344   3.173
45198W        W46063   4.059  23.511   2.804
45199W        W46064   5.050  23.616   2.598
45200W        W46065   6.818  21.975   2.860
45201W        W46066   7.216  23.585   2.851
45202W        W46067   7.204  23.785   0.537
45203W        W46068   6.067  24.117   0.636
45204W        W46069   6.541  25.417   0.331
45205W        W46070   5.718  23.407   3.473
45206W        W46071   4.048  24.374   3.513
45207W        W46072   7.254  22.296   3.465
45208W        W46073   6.972  23.224   2.086
45209W        W46074   5.280  25.354   3.563
45210W        W46075   5.135  21.983   0.290
45211W        W46076   6.674  24.582   0.233
45212W        W46077   4.443  22.675   3.119
45213W        W46078   4.877  24.669   2.981
45214W        W46079   7.003  22.660   2.779
45215W        W46080   6.214  25.319   0.747
45216W        W46081   6.453  23.938   2.114
45217W        W46082   4.703  22.354   2.781
45218W        W46083   5.172  23.423   3.538
45219W        W46084   4.675  24.602   0.732
45220W        W46085   6.430  24.100   0.996
45221W        W46086   4.198  22.726   2.720
45222W        W46087   5.527  24.788   1.184
45223W        W46088   7.277  23.348   1.365
45224W        W46089   5.499  21.981   3.084
45225W        W46090   6.279  24.686   2.163
45226W        W46091   6.582  25.030   1.871
45227W        W46092   5.801  24.832   0.299
45228W        W46093   3.811  24.724   3.141
45229W        W46094   4.554  22.716   2.379
45230W        W46095   4.524  22.064   1.489
45231W        W46096   6.145  22.906   2.181
45232W        W46097   4.943  24.077   0.381
45233W        W46098   6.941  24.019   1.880
45234W        W46099   4.268  24.777   3.303
45235W        W46100   6.655  25.459   1.100
45236W        W46101   4.754  22.479   1.545
45237W        W46102   4.523  23.972   1.635
45238W        W46103   4.836  25.383   2.385
45239W        W46104   6.903  25.479   3.417
45240W        W46105   6.062  23.667   2.350
45241W        W46106   3.911  23.465   0.265
45242W        W46107   7.045  25.123   0.962
45243W        W46108   6.882  22.447   0.581
45244W        W46109   5.021  21.966   2.984
45245W        W46110   6.727  24.768   1.442
45246W        W46111   6.756  23.324   1.347
45247W        W46112   4.873  22.997   1.563
45248W        W46113   5.118  23.259   2.887
45249W        W46114   6.229  24.412   2.750
45250W        W46115   4.879  22.866   2.862
45251W        W46116   4.858  25.332   1.478
45252W        W46117   4.175  25.291   3.112
45253W        W46118   4.287  24.652   0.242
45254W        W46119   6.804  24.410   1.052
45255W        W46120   4.408  23.202   2.938
45256W        W46121   7.181  23.132   0.419
45257W        W46122   4.926  24.189   0.890
45258W        W46123   6.025  23.571   2.971
45259W        W46124   5.916  23.199   2.515
45260W        W46125   4.476  23.571   2.544
45261W        W46126   6.686  25.459   2.373
45262W        W46127   6.477  22.093   3.367
45263W        W46128   4.141  22.243   2.954
45264W        W46129   4.480  23.266   2.007
45265W        W46130   4.849  23.080   0.129
45266W        W46131   3.652  24.839   2.674
45267W        W46132   5.237  23.548   2.117
45268W        W46133   5.060  22.573   0.222
45269W        W46134   4.195  23.389   1.003
45270W        W46135   3.966  25.241   2.440
45271W        W46136   6.761  23.467   0.548
45272W        W46137   6.856  22.383   3.234
45273W        W46138   6.292  24.592   1.197
45274W        W46139   3.890  23.516   3.374
45275W        W46140   6.856  21.980   0.670
45276W        W46141   6.376  24.455   0.681
45277W        W46142   5.278  23.513   0.766
45278W        W46143   6.465  22.317   0.289
45279W        W46144   6.530  22.924   2.475
45280W        W46145   4.239  23.517   1.682
45281W        W46146   4.533  24.456   1.331
45282W        W46147   6.296  23.076   1.296
45283W        W46148   5.319  22.455   1.992
45284W        W46149   7.281  24.366   2.503
45285W        W46150   7.199  22.353   2.064
45286W        W46151   3.738  25.183   1.440
45287W        W46152   4.247  24.370   0.976
45288W        W46153   4.162  21.987   3.529
45289W        W46154   5.281  24.840   3.631
45290W        W46155   7.036  23.808   1.421
45291W        W46156   6.390  23.985   0.301
45292W        W46157   5.685  25.506   2.513
45293W        W46158   6.542  24.228   3.550
45294W        W46159   5.357  21.938   0.830
45295W        W46160   6.070  22.807   1.689
45296W        W46161   3.756  24.394   2.021
45297W        W46162   5.009  22.356   0.662
45298W        W46163   4.813  23.840   3.511
45299W        W46164   5.807  22.821   1.225
45300W        W46165   6.012  24.231   2.347
45301W        W46166   4.166  24.836   2.782
45302W        W46167   4.757  24.819   3.505
45303W        W46168   4.608  22.616   0.519
45304W        W46169   6.125  22.758   0.844
45305W        W46170   6.083  24.866   3.081
45306W        W46171   4.768  23.458   1.680
45307W        W46172   4.423  25.156   2.545
45308W        W46173   7.168  25.273   0.146
45309W        W46174   4.031  23.945   3.142
45310W        W46175   6.026  24.207   1.830
45311W        W46176   4.462  23.856   1.072
45312W        W46177   4.833  24.863   2.467
45313W        W46178   5.211  22.282   1.508
45314W        W46179   3.822  24.266   0.438
45315W        W46180   5.341  23.217   0.308
45316W        W46181   3.987  23.766   1.327
45317W        W46182   5.277  22.408   2.791
45318W        W46183   6.949  22.117   0.218
45319W        W46184   7.042  23.863   3.317
45320W        W46185   5.696  25.120   3.469
45321W        W46186   7.254  24.214   2.991
45322W        W46187   6.662  25.012   3.602
45323W        W46188   4.401  25.468   2.080
45324W        W46189   7.260  24.090   0.954
45325W        W46190   5.790  23.357   1.467
45326W        W46191   5.557  21.969   1.357
45327W        W46192   4.616  24.953   1.194
45328W        W46193   5.115  22.694   2.419
45329W        W46194   4.815  22.063   1.888
45330W        W46195   3.878  24.885   0.436
45331W        W46196   5.694  24.249   1.154
45332W        W46197   4.569  25.044   3.033
45333W        W46198   4.046  23.867   0.729
45334W        W46199   3.931  22.410   1.728
45335W        W46200   5.479  24.375   1.785
45336W        W46201   3.731  22.229   0.805
45337W        W46202   6.395  23.435   2.732
45338W        W46203   6.272  22.821   0.304
45339W        W46204   6.789  24.493   1.952
45340W        W46205   5.450  24.977   1.783
45341W        W46206   4.862  25.081   0.694
45342W        W46207   6.144  21.984   0.124
45343W        W46208   3.944  25.244   1.865
45344W        W46209   6.141  23.002   3.500
45345W        W46210   4.124  22.532   3.499
45346W        W46211   3.855  23.132   0.832
45347W        W46212   4.546  23.121   0.557
45348W        W46213   6.309  23.448   3.374
45349W        W46214   4.652  23.729   2.083
45350W        W46215   6.126  22.015   1.203
45351W        W46216   5.257  25.446   1.706
45352W        W46217   6.471  24.908   2.643
45353W        W46218   6.055  25.057   1.754
45354W        W46219   6.074  24.037   1.348
45355W        W46220   5.536  22.262   0.419
45356W        W46221   7.217  21.890   1.141
45357W        W46222   4.905  23.525   0.304
45358W        W46223   7.071  22.862   1.294
45359W        W46224   5.763  24.032   0.171
45360W        W46225   6.699  24.232   2.919
45361W        W46226   6.353  24.933   0.386
45362W        W46227   4.968  22.608   3.292
45363W        W46228   4.788  23.192   2.533
45364W        W46229   6.880  24.687   2.810
45365W        W46230   5.980  22.637   3.187
45366W        W46231   3.824  23.108   2.964
45367W        W46232   5.584  23.585   2.690
45368W        W46233   3.941  24.343   1.347
45369W        W46234   4.088  23.640   2.237
45370W        W46235   6.405  23.926   2.587
45371W        W46236   6.177  25.306   3.398
45372W        W46237   6.073  23.045   2.951
45373W        W46238   6.350  25.099   1.356
45374W        W46239   5.352  24.819   2.679
45375W        W46240   4.837  25.174   1.948
45376W        W46241   6.642  24.345   2.367
45377W        W46242   5.692  24.417   3.504
45378W        W46243   4.297  24.370   1.843
45379W        W46244   6.643  24.129   1.488
45380W        W46245   6.284  25.195   2.239
45381W        W46246   4.262  24.924   2.109
45382W        W46247   5.283  22.976   3.319
45383W        W46248   5.734  25.142   0.830
45384W        W46249   5.042  24.397   3.468
45385W        W46250   5.168  24.635   0.845
45386W        W46251   4.389  23.375   0.104
45387W        W46252   3.728  25.461   7.003
45388W        W46253   4.104  24.354   6.526
45389W        W46254   6.809  24.084   4.296
45390W        W46255   6.939  25.169   6.323
45391W        W46256   4.857  25.160   3.849
45392W        W46257   4.940  23.312   4.832
45393W        W46258   4.455  23.160   4.996
45394W        W46259   5.446  23.975   4.430
45395W        W46260   5.121  25.067   6.785
45396W        W46261   3.770  22.628   6.748
45397W        W46262   4.532  21.908   6.550
45398W        W46263   6.226  22.296   5.437
45399W        W46264   5.875  23.167   4.007
45400W        W46265   6.445  22.601   7.098
45401W        W46266   3.811  22.393   6.223
45402W        W46267   3.910  25.012   7.244
45403W        W46268   5.432  24.402   3.976
45404W        W46269   3.864  23.185   5.669
45405W        W46270   4.757  23.076   6.906
45406W        W46271   7.216  22.935   5.405
45407W        W46272   6.980  23.978   6.264
45408W        W46273   5.288  23.311   5.291
45409W        W46274   5.834  24.650   5.660
45410W        W46275   4.334  24.084   5.892
45411W        W46276   3.693  23.612   5.463
45412W        W46277   4.729  23.584   6.655
45413W        W46278   7.000  23.367   6.909
45414W        W46279   4.616  24.811   5.354
45415W        W46280   5.737  24.500   6.488
45416W        W46281   4.957  23.140   5.713
45417W        W46282   5.249  23.924   5.356
45418W        W46283   6.246  24.697   7.204
45419W        W46284   5.325  24.017   7.214
45420W        W46285   5.306  23.733   6.692
45421W        W46286   3.715  23.124   7.214
45422W        W46287   6.547  24.659   6.813
45423W        W46288   4.128  22.241   4.811
45424W        W46289   4.655  24.499   5.810
45425W        W46290   7.118  24.282   5.100
45426W        W46291   6.531  22.682   5.667
45427W        W46292   6.816  22.635   3.762
45428W        W46293   7.281  23.436   6.068
45429W        W46294   5.248  25.143   5.821
45430W        W46295   7.022  24.609   4.259
45431W        W46296   4.151  25.395   4.013
45432W        W46297   4.544  25.441   4.689
45433W        W46298   4.341  22.195   6.115
45434W        W46299   6.964  23.213   6.390
45435W        W46300   6.369  23.635   4.849
45436W        W46301   6.335  23.323   3.876
45437W        W46302   5.543  24.467   6.016
45438W        W46303   5.349  22.797   5.215
45439W        W46304   5.949  24.884   6.209
45440W        W46305   6.820  23.675   4.631
45441W        W46306   5.722  22.333   4.647
45442W        W46307   4.379  25.027   4.330
45443W        W46308   3.750  22.526   4.929
45444W        W46309   6.536  23.133   5.403
45445W        W46310   3.994  24.750   5.318
45446W        W46311   5.335  25.100   4.188
45447W        W46312   6.727  23.126   3.652
45448W        W46313   3.750  24.884   5.816
45449W        W46314   4.541  24.456   6.296
45450W        W46315   4.914  23.816   4.915
45451W        W46316   4.936  22.221   6.008
45452W        W46317   7.165  21.983   5.305
45453W        W46318   4.384  23.855   3.773
45454W        W46319   4.039  22.888   3.952
45455W        W46320   4.101  24.844   4.746
45456W        W46321   5.232  24.327   4.994
45457W        W46322   6.564  25.186   6.708
45458W        W46323   5.490  22.828   4.392
45459W        W46324   6.873  25.226   5.164
45460W        W46325   6.550  23.079   6.762
45461W        W46326   7.263  24.735   4.896
45462W        W46327   5.890  24.027   6.380
45463W        W46328   3.656  23.578   4.586
45464W        W46329   4.767  23.993   6.159
45465W        W46330   5.971  23.257   4.537
45466W        W46331   5.848  23.747   4.641
45467W        W46332   4.191  23.167   6.115
45468W        W46333   4.176  23.043   7.037
45469W        W46334   4.066  21.960   5.196
45470W        W46335   5.834  22.307   5.757
45471W        W46336   5.482  22.492   6.920
45472W        W46337   5.837  22.641   4.098
45473W        W46338   7.020  25.034   6.852
45474W        W46339   5.987  22.115   6.891
45475W        W46340   7.006  24.416   7.013
45476W        W46341   6.436  22.583   6.609
45477W        W46342   6.236  22.521   4.879
45478W        W46343   6.629  23.655   7.283
45479W        W46344   4.369  25.231   5.269
45480W        W46345   5.027  22.948   4.255
45481W        W46346   4.596  22.232   6.919
45482W        W46347   6.648  22.716   4.600
45483W        W46348   7.015  23.198   4.545
45484W        W46349   4.758  25.415   7.016
45485W        W46350   4.684  21.951   4.251
45486W        W46351   7.005  22.485   5.286
45487W        W46352   7.155  24.734   3.731
45488W        W46353   4.062  23.937   5.433
45489W        W46354   5.979  22.524   3.663
45490W        W46355   7.113  24.856   5.383
45491W        W46356   7.152  22.050   6.133
45492W        W46357   5.597  23.262   6.687
45493W        W46358   5.690  24.601   4.390
45494W        W46359   6.090  23.895   7.130
45495W        W46360   5.764  21.872   5.439
45496W        W46361   4.376  22.775   5.502
45497W        W46362   3.930  23.975   6.276
45498W        W46363   5.789  25.168   4.982
45499W        W46364   6.983  22.765   5.854
45500W        W46365   5.620  25.112   6.621
45501W        W46366   6.963  24.171   3.826
45502W        W46367   5.398  23.654   4.887
45503W        W46368   7.250  22.165   6.628
45504W        W46369   5.399  24.000   6.222
45505W        W46370   5.616  22.886   5.667
45506W        W46371   6.468  23.184   4.505
45507W        W46372   6.755  22.917   4.147
45508W        W46373   6.564  24.957   4.536
45509W        W46374   6.398  24.560   5.332
45510W        W46375   6.294  23.639   4.310
45511W        W46376   5.727  23.849   5.296
45512W        W46377   6.608  23.637   5.363
45513W        W46378   3.983  22.652   5.787
45514W        W46379   6.761  23.704   6.614
45515W        W46380   7.112  25.322   5.760
45516W        W46381   5.042  24.766   5.162
45517W        W46382   6.049  25.299   6.486
45518W        W46383   6.043  22.629   6.250
45519W        W46384   5.250  25.337   6.311
45520W        W46385   6.947  22.291   4.777
45521W        W46386   6.738  23.610   6.078
45522W        W46387   3.721  22.931   6.116
45523W        W46388   6.581  22.726   5.134
45524W        W46389   6.992  22.877   6.911
45525W        W46390   5.877  24.576   5.129
45526W        W46391   5.133  25.167   4.742
45527W        W46392   4.248  22.347   4.000
45528W        W46393   5.352  22.001   5.810
45529W        W46394   4.380  25.121   3.658
45530W        W46395   4.754  23.587   4.409
45531W        W46396   5.408  24.216   6.722
45532W        W46397   5.238  22.574   4.712
45533W        W46398   6.594  22.171   5.140
45534W        W46399   6.314  25.453   5.468
45535W        W46400   5.726  25.101   5.808
45536W        W46401   5.122  24.138   5.769
45537W        W46402   6.892  24.861   5.895
45538W        W46403   4.586  22.364   4.664
45539W        W46404   5.108  24.661   5.624
45540W        W46405   4.591  22.592   3.689
45541W        W46406   5.392  23.201   6.083
45542W        W46407   6.240  22.067   5.953
45543W        W46408   3.660  23.910   5.838
45544W        W46409   5.364  23.728   3.996
45545W        W46410   4.632  22.043   3.766
45546W        W46411   5.370  23.124   4.817
45547W        W46412   6.340  22.100   6.516
45548W        W46413   4.928  24.112   6.625
45549W        W46414   5.732  23.894   6.842
45550W        W46415   6.349  23.924   6.735
45551W        W46416   5.633  22.064   7.240
45552W        W46417   4.855  22.680   5.633
45553W        W46418   4.281  22.636   5.031
45554W        W46419   4.067  25.348   4.707
45555W        W46420   5.399  24.678   6.832
45556W        W46421   4.434  24.163   4.191
45557W        W46422   6.114  23.548   5.412
45558W        W46423   6.394  23.347   5.811
45559W        W46424   5.599  24.021   5.745
45560W        W46425   6.069  24.395   3.877
45561W        W46426   5.741  22.416   5.205
45562W        W46427   7.220  22.694   4.473
45563W        W46428   3.714  25.283   6.504
45564W        W46429   4.131  24.509   6.036
45565W        W46430   3.698  25.355   4.268
45566W        W46431   5.597  22.625   6.074
45567W        W46432   4.960  24.648   3.923
45568W        W46433   6.865  25.030   4.109
45569W        W46434   5.840  23.683   4.123
45570W        W46435   4.683  22.874   4.640
45571W        W46436   5.515  22.784   3.692
45572W        W46437   6.099  24.349   6.870
45573W        W46438   6.452  22.255   4.487
45574W        W46439   3.782  22.103   3.935
45575W        W46440   5.068  24.422   6.225
45576W        W46441   4.867  24.338   5.317
45577W        W46442   4.609  24.290   3.715
45578W        W46443   3.850  24.531   4.483
45579W        W46444   4.354  23.601   6.925
45580W        W46445   5.058  22.161   7.111
45581W        W46446   5.767  22.303   6.467
45582W        W46447   4.962  22.071   4.748
45583W        W46448   6.021  22.148   4.253
45584W        W46449   3.966  22.080   5.830
45585W        W46450   4.014  23.043   5.200
45586W        W46451   6.703  22.151   5.606
45587W        W46452   4.125  22.649   4.420
45588W        W46453   6.696  22.337   6.036
45589W        W46454   7.092  23.540   3.721
45590W        W46455   4.384  22.298   5.540
45591W        W46456   5.498  22.870   6.480
45592W        W46457   3.646  22.560   3.958
45593W        W46458   4.432  23.949   6.519
45594W        W46459   5.790  23.347   5.698
45595W        W46460   5.657  25.426   3.994
45596W        W46461   3.803  23.933   3.691
45597W        W46462   4.538  24.344   6.817
45598W        W46463   4.059  23.511   6.448
45599W        W46464   5.050  23.616   6.242
45600W        W46465   6.818  21.975   6.504
45601W        W46466   7.216  23.585   6.495
45602W        W46467   7.204  23.785   4.181
45603W        W46468   6.067  24.117   4.280
45604W        W46469   6.541  25.417   3.975
45605W        W46470   5.718  23.407   7.117
45606W        W46471   4.048  24.374   7.157
45607W        W46472   7.254  22.296   7.109
45608W        W46473   6.972  23.224   5.730
45609W        W46474   5.280  25.354   7.207
45610W        W46475   5.135  21.983   3.934
45611W        W46476   6.674  24.582   3.877
45612W        W46477   4.443  22.675   6.763
45613W        W46478   4.877  24.669   6.625
45614W        W46479   7.003  22.660   6.423
45615W        W46480   6.214  25.319   4.391
45616W        W46481   6.453  23.938   5.758
45617W        W46482   4.703  22.354   6.425
45618W        W46483   5.172  23.423   7.182
45619W        W46484   4.675  24.602   4.376
45620W        W46485   6.430  24.100   4.640
45621W        W46486   4.198  22.726   6.364
45622W        W46487   5.527  24.788   4.828
45623W        W46488   7.277  23.348   5.009
45624W        W46489   5.499  21.981   6.728
45625W        W46490   6.279  24.686   5.807
45626W        W46491   6.582  25.030   5.515
45627W        W46492   5.801  24.832   3.943
45628W        W46493   3.811  24.724   6.785
45629W        W46494   4.554  22.716   6.023
45630W        W46495   4.524  22.064   5.133
45631W        W46496   6.145  22.906   5.825
45632W        W46497   4.943  24.077   4.025
45633W        W46498   6.941  24.019   5.524
45634W        W46499   4.268  24.777   6.947
45635W        W46500   6.655  25.459   4.744
45636W        W46501   4.754  22.479   5.189
45637W        W46502   4.523  23.972   5.279
45638W        W46503   4.836  25.383   6.029
45639W        W46504   6.903  25.479   7.061
45640W        W46505   6.062  23.667   5.994
45641W        W46506   3.911  23.465   3.909
45642W        W46507   7.045  25.123   4.606
45643W        W46508   6.882  22.447   4.225
45644W        W46509   5.021  21.966   6.628
45645W        W46510   6.727  24.768   5.086
45646W        W46511   6.756  23.324   4.991
45647W        W46512   4.873  22.997   5.207
45648W        W46513   5.118  23.259   6.531
45649W        W46514   6.229  24.412   6.394
45650W        W46515   4.879  22.866   6.506
45651W        W46516   4.858  25.332   5.122
45652W        W46517   4.175  25.291   6.756
45653W        W46518   4.287  24.652   3.886
45654W        W46519   6.804  24.410   4.696
45655W        W46520   4.408  23.202   6.582
45656W        W46521   7.181  23.132   4.063
45657W        W46522   4.926  24.189   4.534
45658W        W46523   6.025  23.571   6.615
45659W        W46524   5.916  23.199   6.159
45660W        W46525   4.476  23.571   6.188
45661W        W46526   6.686  25.459   6.017
45662W        W46527   6.477  22.093   7.011
45663W        W46528   4.141  22.243   6.598
45664W        W46529   4.480  23.266   5.651
45665W        W46530   4.849  23.080   3.773
45666W        W46531   3.652  24.839   6.318
45667W        W46532   5.237  23.548   5.761
45668W        W46533   5.060  22.573   3.866
45669W        W46534   4.195  23.389   4.647
45670W        W46535   3.966  25.241   6.084
45671W        W46536   6.761  23.467   4.192
45672W        W46537   6.856  22.383   6.878
45673W        W46538   6.292  24.592   4.841
45674W        W46539   3.890  23.516   7.018
45675W        W46540   6.856  21.980   4.314
45676W        W46541   6.376  24.455   4.325
45677W        W46542   5.278  23.513   4.410
45678W        W46543   6.465  22.317   3.933
45679W        W46544   6.530  22.924   6.119
45680W        W46545   4.239  23.517   5.326
45681W        W46546   4.533  24.456   4.975
45682W        W46547   6.296  23.076   4.940
45683W        W46548   5.319  22.455   5.636
45684W        W46549   7.281  24.366   6.147
45685W        W46550   7.199  22.353   5.708
45686W        W46551   3.738  25.183   5.084
45687W        W46552   4.247  24.370   4.620
45688W        W46553   4.162  21.987   7.173
45689W        W46554   5.281  24.840   7.275
45690W        W46555   7.036  23.808   5.065
45691W        W46556   6.390  23.985   3.945
45692W        W46557   5.685  25.506   6.157
45693W        W46558   6.542  24.228   7.194
45694W        W46559   5.357  21.938   4.474
45695W        W46560   6.070  22.807   5.333
45696W        W46561   3.756  24.394   5.665
45697W        W46562   5.009  22.356   4.306
45698W        W46563   4.813  23.840   7.155
45699W        W46564   5.807  22.821   4.869
45700W        W46565   6.012  24.231   5.991
45701W        W46566   4.166  24.836   6.426
45702W        W46567   4.757  24.819   7.149
45703W        W46568   4.608  22.616   4.163
45704W        W46569   6.125  22.758   4.488
45705W        W46570   6.083  24.866   6.725
45706W        W46571   4.768  23.458   5.324
45707W        W46572   4.423  25.156   6.189
45708W        W46573   7.168  25.273   3.790
45709W        W46574   4.031  23.945   6.786
45710W        W46575   6.026  24.207   5.474
45711W        W46576   4.462  23.856   4.716
45712W        W46577   4.833  24.863   6.111
45713W        W46578   5.211  22.282   5.152
45714W        W46579   3.822  24.266   4.082
45715W        W46580   5.341  23.217   3.952
45716W        W46581   3.987  23.766   4.971
45717W        W46582   5.277  22.408   6.435
45718W        W46583   6.949  22.117   3.862
45719W        W46584   7.042  23.863   6.961
45720W        W46585   5.696  25.120   7.113
45721W        W46586   7.254  24.214   6.635
45722W        W46587   6.662  25.012   7.246
45723W        W46588   4.401  25.468   5.724
45724W        W46589   7.260  24.090   4.598
45725W        W46590   5.790  23.357   5.111
45726W        W46591   5.557  21.969   5.001
45727W        W46592   4.616  24.953   4.838
45728W        W46593   5.115  22.694   6.063
45729W        W46594   4.815  22.063   5.532
45730W        W46595   3.878  24.885   4.080
45731W        W46596   5.694  24.249   4.798
45732W        W46597   4.569  25.044   6.677
45733W        W46598   4.046  23.867   4.373
45734W        W46599   3.931  22.410   5.372
45735W        W46600   5.479  24.375   5.429
45736W        W46601   3.731  22.229   4.449
45737W        W46602   6.395  23.435   6.376
45738W        W46603   6.272  22.821   3.948
45739W        W46604   6.789  24.493   5.596
45740W        W46605   5.450  24.977   5.427
45741W        W46606   4.862  25.081   4.338
45742W        W46607   6.144  21.984   3.768
45743W        W46608   3.944  25.244   5.509
45744W        W46609   6.141  23.002   7.144
45745W        W46610   4.124  22.532   7.143
45746W        W46611   3.855  23.132   4.476
45747W        W46612   4.546  23.121   4.201
45748W        W46613   6.309  23.448   7.018
45749W        W46614   4.652  23.729   5.727
45750W        W46615   6.126  22.015   4.847
45751W        W46616   5.257  25.446   5.350
45752W        W46617   6.471  24.908   6.287
45753W        W46618   6.055  25.057   5.398
45754W        W46619   6.074  24.037   4.992
45755W        W46620   5.536  22.262   4.063
45756W        W46621   7.217  21.890   4.785
45757W        W46622   4.905  23.525   3.948
45758W        W46623   7.071  22.862   4.938
45759W        W46624   5.763  24.032   3.815
45760W        W46625   6.699  24.232   6.563
45761W        W46626   6.353  24.933   4.030
45762W        W46627   4.968  22.608   6.936
45763W        W46628   4.788  23.192   6.177
45764W        W46629   6.880  24.687   6.454
45765W        W46630   5.980  22.637   6.831
45766W        W46631   3.824  23.108   6.608
45767W        W46632   5.584  23.585   6.334
45768W        W46633   3.941  24.343   4.991
45769W        W46634   4.088  23.640   5.881
45770W        W46635   6.405  23.926   6.231
45771W        W46636   6.177  25.306   7.042
45772W        W46637   6.073  23.045   6.595
45773W        W46638   6.350  25.099   5.000
45774W        W46639   5.352  24.819   6.323
45775W        W46640   4.837  25.174   5.592
45776W        W46641   6.642  24.345   6.011
45777W        W46642   5.692  24.417   7.148
45778W        W46643   4.297  24.370   5.487
45779W        W46644   6.643  24.129   5.132
45780W        W46645   6.284  25.195   5.883
45781W        W46646   4.262  24.924   5.753
45782W        W46647   5.283  22.976   6.963
45783W        W46648   5.734  25.142   4.474
45784W        W46649   5.042  24.397   7.112
45785W        W46650   5.168  24.635   4.489
45786W        W46651   4.389  23.375   3.748
45787W        W46652   3.728  25.461  10.648
45788W        W46653   4.104  24.354  10.171
45789W        W46654   6.809  24.084   7.941
45790W        W46655   6.939  25.169   9.968
45791W        W46656   4.857  25.160   7.494
45792W        W46657   4.940  23.312   8.477
45793W        W46658   4.455  23.160   8.641
45794W        W46659   5.446  23.975   8.075
45795W        W46660   5.121  25.067  10.430
45796W        W46661   3.770  22.628  10.393
45797W        W46662   4.532  21.908  10.195
45798W        W46663   6.226  22.296   9.082
45799W        W46664   5.875  23.167   7.652
45800W        W46665   6.445  22.601  10.743
45801W        W46666   3.811  22.393   9.868
45802W        W46667   3.910  25.012  10.889
45803W        W46668   5.432  24.402   7.621
45804W        W46669   3.864  23.185   9.314
45805W        W46670   4.757  23.076  10.551
45806W        W46671   7.216  22.935   9.050
45807W        W46672   6.980  23.978   9.909
45808W        W46673   5.288  23.311   8.936
45809W        W46674   5.834  24.650   9.305
45810W        W46675   4.334  24.084   9.537
45811W        W46676   3.693  23.612   9.108
45812W        W46677   4.729  23.584  10.300
45813W        W46678   7.000  23.367  10.554
45814W        W46679   4.616  24.811   8.999
45815W        W46680   5.737  24.500  10.133
45816W        W46681   4.957  23.140   9.358
45817W        W46682   5.249  23.924   9.001
45818W        W46683   6.246  24.697  10.849
45819W        W46684   5.325  24.017  10.859
45820W        W46685   5.306  23.733  10.337
45821W        W46686   3.715  23.124  10.859
45822W        W46687   6.547  24.659  10.458
45823W        W46688   4.128  22.241   8.456
45824W        W46689   4.655  24.499   9.455
45825W        W46690   7.118  24.282   8.745
45826W        W46691   6.531  22.682   9.312
45827W        W46692   6.816  22.635   7.407
45828W        W46693   7.281  23.436   9.713
45829W        W46694   5.248  25.143   9.466
45830W        W46695   7.022  24.609   7.904
45831W        W46696   4.151  25.395   7.658
45832W        W46697   4.544  25.441   8.334
45833W        W46698   4.341  22.195   9.760
45834W        W46699   6.964  23.213  10.035
45835W        W46700   6.369  23.635   8.494
45836W        W46701   6.335  23.323   7.521
45837W        W46702   5.543  24.467   9.661
45838W        W46703   5.349  22.797   8.860
45839W        W46704   5.949  24.884   9.854
45840W        W46705   6.820  23.675   8.276
45841W        W46706   5.722  22.333   8.292
45842W        W46707   4.379  25.027   7.975
45843W        W46708   3.750  22.526   8.574
45844W        W46709   6.536  23.133   9.048
45845W        W46710   3.994  24.750   8.963
45846W        W46711   5.335  25.100   7.833
45847W        W46712   6.727  23.126   7.297
45848W        W46713   3.750  24.884   9.461
45849W        W46714   4.541  24.456   9.941
45850W        W46715   4.914  23.816   8.560
45851W        W46716   4.936  22.221   9.653
45852W        W46717   7.165  21.983   8.950
45853W        W46718   4.384  23.855   7.418
45854W        W46719   4.039  22.888   7.597
45855W        W46720   4.101  24.844   8.391
45856W        W46721   5.232  24.327   8.639
45857W        W46722   6.564  25.186  10.353
45858W        W46723   5.490  22.828   8.037
45859W        W46724   6.873  25.226   8.809
45860W        W46725   6.550  23.079  10.407
45861W        W46726   7.263  24.735   8.541
45862W        W46727   5.890  24.027  10.025
45863W        W46728   3.656  23.578   8.231
45864W        W46729   4.767  23.993   9.804
45865W        W46730   5.971  23.257   8.182
45866W        W46731   5.848  23.747   8.286
45867W        W46732   4.191  23.167   9.760
45868W        W46733   4.176  23.043  10.682
45869W        W46734   4.066  21.960   8.841
45870W        W46735   5.834  22.307   9.402
45871W        W46736   5.482  22.492  10.565
45872W        W46737   5.837  22.641   7.743
45873W        W46738   7.020  25.034  10.497
45874W        W46739   5.987  22.115  10.536
45875W        W46740   7.006  24.416  10.658
45876W        W46741   6.436  22.583  10.254
45877W        W46742   6.236  22.521   8.524
45878W        W46743   6.629  23.655  10.928
45879W        W46744   4.369  25.231   8.914
45880W        W46745   5.027  22.948   7.900
45881W        W46746   4.596  22.232  10.564
45882W        W46747   6.648  22.716   8.245
45883W        W46748   7.015  23.198   8.190
45884W        W46749   4.758  25.415  10.661
45885W        W46750   4.684  21.951   7.896
45886W        W46751   7.005  22.485   8.931
45887W        W46752   7.155  24.734   7.376
45888W        W46753   4.062  23.937   9.078
45889W        W46754   5.979  22.524   7.308
45890W        W46755   7.113  24.856   9.028
45891W        W46756   7.152  22.050   9.778
45892W        W46757   5.597  23.262  10.332
45893W        W46758   5.690  24.601   8.035
45894W        W46759   5.764  21.872   9.084
45895W        W46760   4.376  22.775   9.147
45896W        W46761   3.930  23.975   9.921
45897W        W46762   5.789  25.168   8.627
45898W        W46763   6.983  22.765   9.499
45899W        W46764   5.620  25.112  10.266
45900W        W46765   6.963  24.171   7.471
45901W        W46766   5.398  23.654   8.532
45902W        W46767   7.250  22.165  10.273
45903W        W46768   5.399  24.000   9.867
45904W        W46769   5.616  22.886   9.312
45905W        W46770   6.468  23.184   8.150
45906W        W46771   6.755  22.917   7.792
45907W        W46772   6.564  24.957   8.181
45908W        W46773   6.398  24.560   8.977
45909W        W46774   6.294  23.639   7.955
45910W        W46775   5.727  23.849   8.941
45911W        W46776   6.608  23.637   9.008
45912W        W46777   3.983  22.652   9.432
45913W        W46778   6.761  23.704  10.259
45914W        W46779   7.112  25.322   9.405
45915W        W46780   5.042  24.766   8.807
45916W        W46781   6.049  25.299  10.131
45917W        W46782   6.043  22.629   9.895
45918W        W46783   5.250  25.337   9.956
45919W        W46784   6.947  22.291   8.422
45920W        W46785   6.738  23.610   9.723
45921W        W46786   3.721  22.931   9.761
45922W        W46787   6.581  22.726   8.779
45923W        W46788   6.992  22.877  10.556
45924W        W46789   5.877  24.576   8.774
45925W        W46790   5.133  25.167   8.387
45926W        W46791   4.248  22.347   7.645
45927W        W46792   5.352  22.001   9.455
45928W        W46793   4.380  25.121   7.303
45929W        W46794   4.754  23.587   8.054
45930W        W46795   5.408  24.216  10.367
45931W        W46796   5.238  22.574   8.357
45932W        W46797   6.594  22.171   8.785
45933W        W46798   6.314  25.453   9.113
45934W        W46799   5.726  25.101   9.453
45935W        W46800   5.122  24.138   9.414
45936W        W46801   6.892  24.861   9.540
45937W        W46802   4.586  22.364   8.309
45938W        W46803   5.108  24.661   9.269
45939W        W46804   4.591  22.592   7.334
45940W        W46805   5.392  23.201   9.728
45941W        W46806   6.240  22.067   9.598
45942W        W46807   3.660  23.910   9.483
45943W        W46808   5.364  23.728   7.641
45944W        W46809   4.632  22.043   7.411
45945W        W46810   5.370  23.124   8.462
45946W        W46811   6.340  22.100  10.161
45947W        W46812   4.928  24.112  10.270
45948W        W46813   5.732  23.894  10.487
45949W        W46814   6.349  23.924  10.380
45950W        W46815   5.633  22.064  10.885
45951W        W46816   4.855  22.680   9.278
45952W        W46817   4.281  22.636   8.676
45953W        W46818   4.067  25.348   8.352
45954W        W46819   5.399  24.678  10.477
45955W        W46820   4.434  24.163   7.836
45956W        W46821   6.114  23.548   9.057
45957W        W46822   6.394  23.347   9.456
45958W        W46823   5.599  24.021   9.390
45959W        W46824   6.069  24.395   7.522
45960W        W46825   5.741  22.416   8.850
45961W        W46826   7.220  22.694   8.118
45962W        W46827   3.714  25.283  10.149
45963W        W46828   4.131  24.509   9.681
45964W        W46829   3.698  25.355   7.913
45965W        W46830   5.597  22.625   9.719
45966W        W46831   4.960  24.648   7.568
45967W        W46832   6.865  25.030   7.754
45968W        W46833   5.840  23.683   7.768
45969W        W46834   4.683  22.874   8.285
45970W        W46835   5.515  22.784   7.337
45971W        W46836   6.099  24.349  10.515
45972W        W46837   6.452  22.255   8.132
45973W        W46838   3.782  22.103   7.580
45974W        W46839   5.068  24.422   9.870
45975W        W46840   4.867  24.338   8.962
45976W        W46841   4.609  24.290   7.360
45977W        W46842   3.850  24.531   8.128
45978W        W46843   4.354  23.601  10.570
45979W        W46844   5.058  22.161  10.756
45980W        W46845   5.767  22.303  10.112
45981W        W46846   4.962  22.071   8.393
45982W        W46847   6.021  22.148   7.898
45983W        W46848   3.966  22.080   9.475
45984W        W46849   4.014  23.043   8.845
45985W        W46850   6.703  22.151   9.251
45986W        W46851   4.125  22.649   8.065
45987W        W46852   6.696  22.337   9.681
45988W        W46853   7.092  23.540   7.366
45989W        W46854   4.384  22.298   9.185
45990W        W46855   5.498  22.870  10.125
45991W        W46856   3.646  22.560   7.603
45992W        W46857   4.432  23.949  10.164
45993W        W46858   5.790  23.347   9.343
45994W        W46859   5.657  25.426   7.639
45995W        W46860   3.803  23.933   7.336
45996W        W46861   4.538  24.344  10.462
45997W        W46862   4.059  23.511  10.093
45998W        W46863   5.050  23.616   9.887
45999W        W46864   6.818  21.975  10.149
46000W        W46865   7.216  23.585  10.140
46001W        W46866   7.204  23.785   7.826
46002W        W46867   6.067  24.117   7.925
46003W        W46868   6.541  25.417   7.620
46004W        W46869   5.718  23.407  10.762
46005W        W46870   4.048  24.374  10.802
46006W        W46871   7.254  22.296  10.754
46007W        W46872   6.972  23.224   9.375
46008W        W46873   5.280  25.354  10.852
46009W        W46874   5.135  21.983   7.579
46010W        W46875   6.674  24.582   7.522
46011W        W46876   4.443  22.675  10.408
46012W        W46877   4.877  24.669  10.270
46013W        W46878   7.003  22.660  10.068
46014W        W46879   6.214  25.319   8.036
46015W        W46880   6.453  23.938   9.403
46016W        W46881   4.703  22.354  10.070
46017W        W46882   5.172  23.423  10.827
46018W        W46883   4.675  24.602   8.021
46019W        W46884   6.430  24.100   8.285
46020W        W46885   4.198  22.726  10.009
46021W        W46886   5.527  24.788   8.473
46022W        W46887   7.277  23.348   8.654
46023W        W46888   5.499  21.981  10.373
46024W        W46889   6.279  24.686   9.452
46025W        W46890   6.582  25.030   9.160
46026W        W46891   5.801  24.832   7.588
46027W        W46892   3.811  24.724  10.430
46028W        W46893   4.554  22.716   9.668
46029W        W46894   4.524  22.064   8.778
46030W        W46895   6.145  22.906   9.470
46031W        W46896   4.943  24.077   7.670
46032W        W46897   6.941  24.019   9.169
46033W        W46898   4.268  24.777  10.592
46034W        W46899   6.655  25.459   8.389
46035W        W46900   4.754  22.479   8.834
46036W        W46901   4.523  23.972   8.924
46037W        W46902   4.836  25.383   9.674
46038W        W46903   6.903  25.479  10.706
46039W        W46904   6.062  23.667   9.639
46040W        W46905   3.911  23.465   7.554
46041W        W46906   7.045  25.123   8.251
46042W        W46907   6.882  22.447   7.870
46043W        W46908   5.021  21.966  10.273
46044W        W46909   6.727  24.768   8.731
46045W        W46910   6.756  23.324   8.636
46046W        W46911   4.873  22.997   8.852
46047W        W46912   5.118  23.259  10.176
46048W        W46913   6.229  24.412  10.039
46049W        W46914   4.879  22.866  10.151
46050W        W46915   4.858  25.332   8.767
46051W        W46916   4.175  25.291  10.401
46052W        W46917   4.287  24.652   7.531
46053W        W46918   6.804  24.410   8.341
46054W        W46919   4.408  23.202  10.227
46055W        W46920   7.181  23.132   7.708
46056W        W46921   4.926  24.189   8.179
46057W        W46922   6.025  23.571  10.260
46058W        W46923   5.916  23.199   9.804
46059W        W46924   4.476  23.571   9.833
46060W        W46925   6.686  25.459   9.662
46061W        W46926   6.477  22.093  10.656
46062W        W46927   4.141  22.243  10.243
46063W        W46928   4.480  23.266   9.296
46064W        W46929   4.849  23.080   7.418
46065W        W46930   3.652  24.839   9.963
46066W        W46931   5.237  23.548   9.406
46067W        W46932   5.060  22.573   7.511
46068W        W46933   4.195  23.389   8.292
46069W        W46934   3.966  25.241   9.729
46070W        W46935   6.761  23.467   7.837
46071W        W46936   6.856  22.383  10.523
46072W        W46937   6.292  24.592   8.486
46073W        W46938   3.890  23.516  10.663
46074W        W46939   6.856  21.980   7.959
46075W        W46940   6.376  24.455   7.970
46076W        W46941   5.278  23.513   8.055
46077W        W46942   6.465  22.317   7.578
46078W        W46943   6.530  22.924   9.764
46079W        W46944   4.239  23.517   8.971
46080W        W46945   4.533  24.456   8.620
46081W        W46946   6.296  23.076   8.585
46082W        W46947   5.319  22.455   9.281
46083W        W46948   7.281  24.366   9.792
46084W        W46949   7.199  22.353   9.353
46085W        W46950   3.738  25.183   8.729
46086W        W46951   4.247  24.370   8.265
46087W        W46952   4.162  21.987  10.818
46088W        W46953   5.281  24.840  10.920
46089W        W46954   7.036  23.808   8.710
46090W        W46955   6.390  23.985   7.590
46091W        W46956   5.685  25.506   9.802
46092W        W46957   5.357  21.938   8.119
46093W        W46958   6.070  22.807   8.978
46094W        W46959   3.756  24.394   9.310
46095W        W46960   5.009  22.356   7.951
46096W        W46961   4.813  23.840  10.800
46097W        W46962   5.807  22.821   8.514
46098W        W46963   6.012  24.231   9.636
46099W        W46964   4.166  24.836  10.071
46100W        W46965   4.757  24.819  10.794
46101W        W46966   4.608  22.616   7.808
46102W        W46967   6.125  22.758   8.133
46103W        W46968   6.083  24.866  10.370
46104W        W46969   4.768  23.458   8.969
46105W        W46970   4.423  25.156   9.834
46106W        W46971   7.168  25.273   7.435
46107W        W46972   4.031  23.945  10.431
46108W        W46973   6.026  24.207   9.119
46109W        W46974   4.462  23.856   8.361
46110W        W46975   4.833  24.863   9.756
46111W        W46976   5.211  22.282   8.797
46112W        W46977   3.822  24.266   7.727
46113W        W46978   5.341  23.217   7.597
46114W        W46979   3.987  23.766   8.616
46115W        W46980   5.277  22.408  10.080
46116W        W46981   6.949  22.117   7.507
46117W        W46982   7.042  23.863  10.606
46118W        W46983   5.696  25.120  10.758
46119W        W46984   7.254  24.214  10.280
46120W        W46985   6.662  25.012  10.891
46121W        W46986   4.401  25.468   9.369
46122W        W46987   7.260  24.090   8.243
46123W        W46988   5.790  23.357   8.756
46124W        W46989   5.557  21.969   8.646
46125W        W46990   4.616  24.953   8.483
46126W        W46991   5.115  22.694   9.708
46127W        W46992   4.815  22.063   9.177
46128W        W46993   3.878  24.885   7.725
46129W        W46994   5.694  24.249   8.443
46130W        W46995   4.569  25.044  10.322
46131W        W46996   4.046  23.867   8.018
46132W        W46997   3.931  22.410   9.017
46133W        W46998   5.479  24.375   9.074
46134W        W46999   3.731  22.229   8.094
46135W        W47000   6.395  23.435  10.021
46136W        W47001   6.272  22.821   7.593
46137W        W47002   6.789  24.493   9.241
46138W        W47003   5.450  24.977   9.072
46139W        W47004   4.862  25.081   7.983
46140W        W47005   6.144  21.984   7.413
46141W        W47006   3.944  25.244   9.154
46142W        W47007   6.141  23.002  10.789
46143W        W47008   4.124  22.532  10.788
46144W        W47009   3.855  23.132   8.121
46145W        W47010   4.546  23.121   7.846
46146W        W47011   6.309  23.448  10.663
46147W        W47012   4.652  23.729   9.372
46148W        W47013   6.126  22.015   8.492
46149W        W47014   5.257  25.446   8.995
46150W        W47015   6.471  24.908   9.932
46151W        W47016   6.055  25.057   9.043
46152W        W47017   6.074  24.037   8.637
46153W        W47018   5.536  22.262   7.708
46154W        W47019   7.217  21.890   8.430
46155W        W47020   4.905  23.525   7.593
46156W        W47021   7.071  22.862   8.583
46157W        W47022   5.763  24.032   7.460
46158W        W47023   6.699  24.232  10.208
46159W        W47024   6.353  24.933   7.675
46160W        W47025   4.968  22.608  10.581
46161W        W47026   4.788  23.192   9.822
46162W        W47027   6.880  24.687  10.099
46163W        W47028   5.980  22.637  10.476
46164W        W47029   3.824  23.108  10.253
46165W        W47030   5.584  23.585   9.979
46166W        W47031   3.941  24.343   8.636
46167W        W47032   4.088  23.640   9.526
46168W        W47033   6.405  23.926   9.876
46169W        W47034   6.177  25.306  10.687
46170W        W47035   6.073  23.045  10.240
46171W        W47036   6.350  25.099   8.645
46172W        W47037   5.352  24.819   9.968
46173W        W47038   4.837  25.174   9.237
46174W        W47039   6.642  24.345   9.656
46175W        W47040   5.692  24.417  10.793
46176W        W47041   4.297  24.370   9.132
46177W        W47042   6.643  24.129   8.777
46178W        W47043   6.284  25.195   9.528
46179W        W47044   4.262  24.924   9.398
46180W        W47045   5.283  22.976  10.608
46181W        W47046   5.734  25.142   8.119
46182W        W47047   5.042  24.397  10.757
46183W        W47048   5.168  24.635   8.134
46184W        W47049   4.389  23.375   7.393
46185W        W47050   3.728  25.461  14.292
46186W        W47051   4.104  24.354  13.815
46187W        W47052   6.809  24.084  11.585
46188W        W47053   6.939  25.169  13.612
46189W        W47054   4.857  25.160  11.138
46190W        W47055   4.940  23.312  12.121
46191W        W47056   4.455  23.160  12.285
46192W        W47057   5.446  23.975  11.719
46193W        W47058   5.121  25.067  14.074
46194W        W47059   3.770  22.628  14.037
46195W        W47060   4.532  21.908  13.839
46196W        W47061   6.226  22.296  12.726
46197W        W47062   5.875  23.167  11.296
46198W        W47063   6.445  22.601  14.387
46199W        W47064   3.811  22.393  13.512
46200W        W47065   3.910  25.012  14.533
46201W        W47066   5.432  24.402  11.265
46202W        W47067   3.864  23.185  12.958
46203W        W47068   4.757  23.076  14.195
46204W        W47069   7.216  22.935  12.694
46205W        W47070   6.980  23.978  13.553
46206W        W47071   5.288  23.311  12.580
46207W        W47072   5.834  24.650  12.949
46208W        W47073   4.334  24.084  13.181
46209W        W47074   3.693  23.612  12.752
46210W        W47075   4.729  23.584  13.944
46211W        W47076   7.000  23.367  14.198
46212W        W47077   4.616  24.811  12.643
46213W        W47078   5.737  24.500  13.777
46214W        W47079   4.957  23.140  13.002
46215W        W47080   5.249  23.924  12.645
46216W        W47081   6.246  24.697  14.493
46217W        W47082   5.325  24.017  14.503
46218W        W47083   5.306  23.733  13.981
46219W        W47084   3.715  23.124  14.503
46220W        W47085   6.547  24.659  14.102
46221W        W47086   4.128  22.241  12.100
46222W        W47087   4.655  24.499  13.099
46223W        W47088   7.118  24.282  12.389
46224W        W47089   6.531  22.682  12.956
46225W        W47090   6.816  22.635  11.051
46226W        W47091   7.281  23.436  13.357
46227W        W47092   5.248  25.143  13.110
46228W        W47093   7.022  24.609  11.548
46229W        W47094   4.151  25.395  11.302
46230W        W47095   4.544  25.441  11.978
46231W        W47096   4.341  22.195  13.404
46232W        W47097   6.964  23.213  13.679
46233W        W47098   6.369  23.635  12.138
46234W        W47099   6.335  23.323  11.165
46235W        W47100   5.543  24.467  13.305
46236W        W47101   5.349  22.797  12.504
46237W        W47102   5.949  24.884  13.498
46238W        W47103   6.820  23.675  11.920
46239W        W47104   5.722  22.333  11.936
46240W        W47105   4.379  25.027  11.619
46241W        W47106   3.750  22.526  12.218
46242W        W47107   6.536  23.133  12.692
46243W        W47108   3.994  24.750  12.607
46244W        W47109   5.335  25.100  11.477
46245W        W47110   6.727  23.126  10.941
46246W        W47111   3.750  24.884  13.105
46247W        W47112   4.541  24.456  13.585
46248W        W47113   4.914  23.816  12.204
46249W        W47114   4.936  22.221  13.297
46250W        W47115   7.165  21.983  12.594
46251W        W47116   4.384  23.855  11.062
46252W        W47117   4.039  22.888  11.241
46253W        W47118   4.101  24.844  12.035
46254W        W47119   5.232  24.327  12.283
46255W        W47120   6.564  25.186  13.997
46256W        W47121   5.490  22.828  11.681
46257W        W47122   6.873  25.226  12.453
46258W        W47123   6.550  23.079  14.051
46259W        W47124   7.263  24.735  12.185
46260W        W47125   5.890  24.027  13.669
46261W        W47126   3.656  23.578  11.875
46262W        W47127   4.767  23.993  13.448
46263W        W47128   5.971  23.257  11.826
46264W        W47129   5.848  23.747  11.930
46265W        W47130   4.191  23.167  13.404
46266W        W47131   4.176  23.043  14.326
46267W        W47132   4.066  21.960  12.485
46268W        W47133   5.834  22.307  13.046
46269W        W47134   5.482  22.492  14.209
46270W        W47135   5.837  22.641  11.387
46271W        W47136   7.020  25.034  14.141
46272W        W47137   5.987  22.115  14.180
46273W        W47138   7.006  24.416  14.302
46274W        W47139   6.436  22.583  13.898
46275W        W47140   6.236  22.521  12.168
46276W        W47141   6.629  23.655  14.572
46277W        W47142   4.369  25.231  12.558
46278W        W47143   5.027  22.948  11.544
46279W        W47144   4.596  22.232  14.208
46280W        W47145   6.648  22.716  11.889
46281W        W47146   7.015  23.198  11.834
46282W        W47147   4.758  25.415  14.305
46283W        W47148   4.684  21.951  11.540
46284W        W47149   7.005  22.485  12.575
46285W        W47150   7.155  24.734  11.020
46286W        W47151   4.062  23.937  12.722
46287W        W47152   5.979  22.524  10.952
46288W        W47153   7.113  24.856  12.672
46289W        W47154   7.152  22.050  13.422
46290W        W47155   5.597  23.262  13.976
46291W        W47156   5.690  24.601  11.679
46292W        W47157   6.090  23.895  14.419
46293W        W47158   5.764  21.872  12.728
46294W        W47159   4.376  22.775  12.791
46295W        W47160   3.930  23.975  13.565
46296W        W47161   5.789  25.168  12.271
46297W        W47162   6.983  22.765  13.143
46298W        W47163   5.620  25.112  13.910
46299W        W47164   6.963  24.171  11.115
46300W        W47165   5.398  23.654  12.176
46301W        W47166   7.250  22.165  13.917
46302W        W47167   5.399  24.000  13.511
46303W        W47168   5.616  22.886  12.956
46304W        W47169   6.468  23.184  11.794
46305W        W47170   6.755  22.917  11.436
46306W        W47171   6.564  24.957  11.825
46307W        W47172   6.398  24.560  12.621
46308W        W47173   6.294  23.639  11.599
46309W        W47174   5.727  23.849  12.585
46310W        W47175   6.608  23.637  12.652
46311W        W47176   3.983  22.652  13.076
46312W        W47177   6.761  23.704  13.903
46313W        W47178   7.112  25.322  13.049
46314W        W47179   5.042  24.766  12.451
46315W        W47180   6.049  25.299  13.775
46316W        W47181   6.043  22.629  13.539
46317W        W47182   5.250  25.337  13.600
46318W        W47183   6.947  22.291  12.066
46319W        W47184   6.738  23.610  13.367
46320W        W47185   3.721  22.931  13.405
46321W        W47186   6.581  22.726  12.423
46322W        W47187   6.992  22.877  14.200
46323W        W47188   5.877  24.576  12.418
46324W        W47189   5.133  25.167  12.031
46325W        W47190   4.248  22.347  11.289
46326W        W47191   5.352  22.001  13.099
46327W        W47192   4.380  25.121  10.947
46328W        W47193   4.754  23.587  11.698
46329W        W47194   5.408  24.216  14.011
46330W        W47195   5.238  22.574  12.001
46331W        W47196   6.594  22.171  12.429
46332W        W47197   6.314  25.453  12.757
46333W        W47198   5.726  25.101  13.097
46334W        W47199   5.122  24.138  13.058
46335W        W47200   6.892  24.861  13.184
46336W        W47201   4.586  22.364  11.953
46337W        W47202   5.108  24.661  12.913
46338W        W47203   4.591  22.592  10.978
46339W        W47204   5.392  23.201  13.372
46340W        W47205   6.240  22.067  13.242
46341W        W47206   3.660  23.910  13.127
46342W        W47207   5.364  23.728  11.285
46343W        W47208   4.632  22.043  11.055
46344W        W47209   5.370  23.124  12.106
46345W        W47210   6.340  22.100  13.805
46346W        W47211   4.928  24.112  13.914
46347W        W47212   5.732  23.894  14.131
46348W        W47213   6.349  23.924  14.024
46349W        W47214   5.633  22.064  14.529
46350W        W47215   4.855  22.680  12.922
46351W        W47216   4.281  22.636  12.320
46352W        W47217   4.067  25.348  11.996
46353W        W47218   5.399  24.678  14.121
46354W        W47219   4.434  24.163  11.480
46355W        W47220   6.114  23.548  12.701
46356W        W47221   6.394  23.347  13.100
46357W        W47222   5.599  24.021  13.034
46358W        W47223   6.069  24.395  11.166
46359W        W47224   5.741  22.416  12.494
46360W        W47225   7.220  22.694  11.762
46361W        W47226   3.714  25.283  13.793
46362W        W47227   4.131  24.509  13.325
46363W        W47228   3.698  25.355  11.557
46364W        W47229   5.597  22.625  13.363
46365W        W47230   4.960  24.648  11.212
46366W        W47231   6.865  25.030  11.398
46367W        W47232   5.840  23.683  11.412
46368W        W47233   4.683  22.874  11.929
46369W        W47234   5.515  22.784  10.981
46370W        W47235   6.099  24.349  14.159
46371W        W47236   6.452  22.255  11.776
46372W        W47237   3.782  22.103  11.224
46373W        W47238   5.068  24.422  13.514
46374W        W47239   4.867  24.338  12.606
46375W        W47240   4.609  24.290  11.004
46376W        W47241   3.850  24.531  11.772
46377W        W47242   4.354  23.601  14.214
46378W        W47243   5.058  22.161  14.400
46379W        W47244   5.767  22.303  13.756
46380W        W47245   4.962  22.071  12.037
46381W        W47246   6.021  22.148  11.542
46382W        W47247   3.966  22.080  13.119
46383W        W47248   4.014  23.043  12.489
46384W        W47249   6.703  22.151  12.895
46385W        W47250   4.125  22.649  11.709
46386W        W47251   6.696  22.337  13.325
46387W        W47252   7.092  23.540  11.010
46388W        W47253   4.384  22.298  12.829
46389W        W47254   5.498  22.870  13.769
46390W        W47255   3.646  22.560  11.247
46391W        W47256   4.432  23.949  13.808
46392W        W47257   5.790  23.347  12.987
46393W        W47258   5.657  25.426  11.283
46394W        W47259   3.803  23.933  10.980
46395W        W47260   4.538  24.344  14.106
46396W        W47261   4.059  23.511  13.737
46397W        W47262   5.050  23.616  13.531
46398W        W47263   6.818  21.975  13.793
46399W        W47264   7.216  23.585  13.784
46400W        W47265   7.204  23.785  11.470
46401W        W47266   6.067  24.117  11.569
46402W        W47267   6.541  25.417  11.264
46403W        W47268   5.718  23.407  14.406
46404W        W47269   4.048  24.374  14.446
46405W        W47270   7.254  22.296  14.398
46406W        W47271   6.972  23.224  13.019
46407W        W47272   5.280  25.354  14.496
46408W        W47273   5.135  21.983  11.223
46409W        W47274   6.674  24.582  11.166
46410W        W47275   4.443  22.675  14.052
46411W        W47276   4.877  24.669  13.914
46412W        W47277   7.003  22.660  13.712
46413W        W47278   6.214  25.319  11.680
46414W        W47279   6.453  23.938  13.047
46415W        W47280   4.703  22.354  13.714
46416W        W47281   5.172  23.423  14.471
46417W        W47282   4.675  24.602  11.665
46418W        W47283   6.430  24.100  11.929
46419W        W47284   4.198  22.726  13.653
46420W        W47285   5.527  24.788  12.117
46421W        W47286   7.277  23.348  12.298
46422W        W47287   5.499  21.981  14.017
46423W        W47288   6.279  24.686  13.096
46424W        W47289   6.582  25.030  12.804
46425W        W47290   5.801  24.832  11.232
46426W        W47291   3.811  24.724  14.074
46427W        W47292   4.554  22.716  13.312
46428W        W47293   4.524  22.064  12.422
46429W        W47294   6.145  22.906  13.114
46430W        W47295   4.943  24.077  11.314
46431W        W47296   6.941  24.019  12.813
46432W        W47297   4.268  24.777  14.236
46433W        W47298   6.655  25.459  12.033
46434W        W47299   4.754  22.479  12.478
46435W        W47300   4.523  23.972  12.568
46436W        W47301   4.836  25.383  13.318
46437W        W47302   6.903  25.479  14.350
46438W        W47303   6.062  23.667  13.283
46439W        W47304   3.911  23.465  11.198
46440W        W47305   7.045  25.123  11.895
46441W        W47306   6.882  22.447  11.514
46442W        W47307   5.021  21.966  13.917
46443W        W47308   6.727  24.768  12.375
46444W        W47309   6.756  23.324  12.280
46445W        W47310   4.873  22.997  12.496
46446W        W47311   5.118  23.259  13.820
46447W        W47312   6.229  24.412  13.683
46448W        W47313   4.879  22.866  13.795
46449W        W47314   4.858  25.332  12.411
46450W        W47315   4.175  25.291  14.045
46451W        W47316   4.287  24.652  11.175
46452W        W47317   6.804  24.410  11.985
46453W        W47318   4.408  23.202  13.871
46454W        W47319   7.181  23.132  11.352
46455W        W47320   4.926  24.189  11.823
46456W        W47321   6.025  23.571  13.904
46457W        W47322   5.916  23.199  13.448
46458W        W47323   4.476  23.571  13.477
46459W        W47324   6.686  25.459  13.306
46460W        W47325   6.477  22.093  14.300
46461W        W47326   4.141  22.243  13.887
46462W        W47327   4.480  23.266  12.940
46463W        W47328   4.849  23.080  11.062
46464W        W47329   3.652  24.839  13.607
46465W        W47330   5.237  23.548  13.050
46466W        W47331   5.060  22.573  11.155
46467W        W47332   4.195  23.389  11.936
46468W        W47333   3.966  25.241  13.373
46469W        W47334   6.761  23.467  11.481
46470W        W47335   6.856  22.383  14.167
46471W        W47336   6.292  24.592  12.130
46472W        W47337   3.890  23.516  14.307
46473W        W47338   6.856  21.980  11.603
46474W        W47339   6.376  24.455  11.614
46475W        W47340   5.278  23.513  11.699
46476W        W47341   6.465  22.317  11.222
46477W        W47342   6.530  22.924  13.408
46478W        W47343   4.239  23.517  12.615
46479W        W47344   4.533  24.456  12.264
46480W        W47345   6.296  23.076  12.229
46481W        W47346   5.319  22.455  12.925
46482W        W47347   7.281  24.366  13.436
46483W        W47348   7.199  22.353  12.997
46484W        W47349   3.738  25.183  12.373
46485W        W47350   4.247  24.370  11.909
46486W        W47351   4.162  21.987  14.462
46487W        W47352   5.281  24.840  14.564
46488W        W47353   7.036  23.808  12.354
46489W        W47354   6.390  23.985  11.234
46490W        W47355   5.685  25.506  13.446
46491W        W47356   6.542  24.228  14.483
46492W        W47357   5.357  21.938  11.763
46493W        W47358   6.070  22.807  12.622
46494W        W47359   3.756  24.394  12.954
46495W        W47360   5.009  22.356  11.595
46496W        W47361   4.813  23.840  14.444
46497W        W47362   5.807  22.821  12.158
46498W        W47363   6.012  24.231  13.280
46499W        W47364   4.166  24.836  13.715
46500W        W47365   4.757  24.819  14.438
46501W        W47366   4.608  22.616  11.452
46502W        W47367   6.125  22.758  11.777
46503W        W47368   6.083  24.866  14.014
46504W        W47369   4.768  23.458  12.613
46505W        W47370   4.423  25.156  13.478
46506W        W47371   7.168  25.273  11.079
46507W        W47372   4.031  23.945  14.075
46508W        W47373   6.026  24.207  12.763
46509W        W47374   4.462  23.856  12.005
46510W        W47375   4.833  24.863  13.400
46511W        W47376   5.211  22.282  12.441
46512W        W47377   3.822  24.266  11.371
46513W        W47378   5.341  23.217  11.241
46514W        W47379   3.987  23.766  12.260
46515W        W47380   5.277  22.408  13.724
46516W        W47381   6.949  22.117  11.151
46517W        W47382   7.042  23.863  14.250
46518W        W47383   5.696  25.120  14.402
46519W        W47384   7.254  24.214  13.924
46520W        W47385   6.662  25.012  14.535
46521W        W47386   4.401  25.468  13.013
46522W        W47387   7.260  24.090  11.887
46523W        W47388   5.790  23.357  12.400
46524W        W47389   5.557  21.969  12.290
46525W        W47390   4.616  24.953  12.127
46526W        W47391   5.115  22.694  13.352
46527W        W47392   4.815  22.063  12.821
46528W        W47393   3.878  24.885  11.369
46529W        W47394   5.694  24.249  12.087
46530W        W47395   4.569  25.044  13.966
46531W        W47396   4.046  23.867  11.662
46532W        W47397   3.931  22.410  12.661
46533W        W47398   5.479  24.375  12.718
46534W        W47399   3.731  22.229  11.738
46535W        W47400   6.395  23.435  13.665
46536W        W47401   6.272  22.821  11.237
46537W        W47402   6.789  24.493  12.885
46538W        W47403   5.450  24.977  12.716
46539W        W47404   4.862  25.081  11.627
46540W        W47405   6.144  21.984  11.057
46541W        W47406   3.944  25.244  12.798
46542W        W47407   6.141  23.002  14.433
46543W        W47408   4.124  22.532  14.432
46544W        W47409   3.855  23.132  11.765
46545W        W47410   4.546  23.121  11.490
46546W        W47411   6.309  23.448  14.307
46547W        W47412   4.652  23.729  13.016
46548W        W47413   6.126  22.015  12.136
46549W        W47414   5.257  25.446  12.639
46550W        W47415   6.471  24.908  13.576
46551W        W47416   6.055  25.057  12.687
46552W        W47417   6.074  24.037  12.281
46553W        W47418   5.536  22.262  11.352
46554W        W47419   7.217  21.890  12.074
46555W        W47420   4.905  23.525  11.237
46556W        W47421   7.071  22.862  12.227
46557W        W47422   5.763  24.032  11.104
46558W        W47423   6.699  24.232  13.852
46559W        W47424   6.353  24.933  11.319
46560W        W47425   4.968  22.608  14.225
46561W        W47426   4.788  23.192  13.466
46562W        W47427   6.880  24.687  13.743
46563W        W47428   5.980  22.637  14.120
46564W        W47429   3.824  23.108  13.897
46565W        W47430   5.584  23.585  13.623
46566W        W47431   3.941  24.343  12.280
46567W        W47432   4.088  23.640  13.170
46568W        W47433   6.405  23.926  13.520
46569W        W47434   6.177  25.306  14.331
46570W        W47435   6.073  23.045  13.884
46571W        W47436   6.350  25.099  12.289
46572W        W47437   5.352  24.819  13.612
46573W        W47438   4.837  25.174  12.881
46574W        W47439   6.642  24.345  13.300
46575W        W47440   5.692  24.417  14.437
46576W        W47441   4.297  24.370  12.776
46577W        W47442   6.643  24.129  12.421
46578W        W47443   6.284  25.195  13.172
46579W        W47444   4.262  24.924  13.042
46580W        W47445   5.283  22.976  14.252
46581W        W47446   5.734  25.142  11.763
46582W        W47447   5.042  24.397  14.401
46583W        W47448   5.168  24.635  11.778
46584W        W47449   4.389  23.375  11.037
46585W        W47450   3.728  25.461  17.936
46586W        W47451   4.104  24.354  17.459
46587W        W47452   6.809  24.084  15.229
46588W        W47453   6.939  25.169  17.256
46589W        W47454   4.857  25.160  14.782
46590W        W47455   4.940  23.312  15.765
46591W        W47456   4.455  23.160  15.929
46592W        W47457   5.446  23.975  15.363
46593W        W47458   5.121  25.067  17.718
46594W        W47459   3.770  22.628  17.681
46595W        W47460   4.532  21.908  17.483
46596W        W47461   6.226  22.296  16.370
46597W        W47462   5.875  23.167  14.940
46598W        W47463   6.445  22.601  18.031
46599W        W47464   3.811  22.393  17.156
46600W        W47465   3.910  25.012  18.177
46601W        W47466   5.432  24.402  14.909
46602W        W47467   3.864  23.185  16.602
46603W        W47468   4.757  23.076  17.839
46604W        W47469   7.216  22.935  16.338
46605W        W47470   6.980  23.978  17.197
46606W        W47471   5.288  23.311  16.224
46607W        W47472   5.834  24.650  16.593
46608W        W47473   4.334  24.084  16.825
46609W        W47474   3.693  23.612  16.396
46610W        W47475   4.729  23.584  17.588
46611W        W47476   7.000  23.367  17.842
46612W        W47477   4.616  24.811  16.287
46613W        W47478   5.737  24.500  17.421
46614W        W47479   4.957  23.140  16.646
46615W        W47480   5.249  23.924  16.289
46616W        W47481   6.246  24.697  18.137
46617W        W47482   5.325  24.017  18.147
46618W        W47483   5.306  23.733  17.625
46619W        W47484   3.715  23.124  18.147
46620W        W47485   6.547  24.659  17.746
46621W        W47486   4.128  22.241  15.744
46622W        W47487   4.655  24.499  16.743
46623W        W47488   7.118  24.282  16.033
46624W        W47489   6.531  22.682  16.600
46625W        W47490   6.816  22.635  14.695
46626W        W47491   7.281  23.436  17.001
46627W        W47492   5.248  25.143  16.754
46628W        W47493   7.022  24.609  15.192
46629W        W47494   4.151  25.395  14.946
46630W        W47495   4.544  25.441  15.622
46631W        W47496   4.341  22.195  17.048
46632W        W47497   6.964  23.213  17.323
46633W        W47498   6.369  23.635  15.782
46634W        W47499   6.335  23.323  14.809
46635W        W47500   5.543  24.467  16.949
46636W        W47501   5.349  22.797  16.148
46637W        W47502   5.949  24.884  17.142
46638W        W47503   6.820  23.675  15.564
46639W        W47504   5.722  22.333  15.580
46640W        W47505   4.379  25.027  15.263
46641W        W47506   3.750  22.526  15.862
46642W        W47507   6.536  23.133  16.336
46643W        W47508   3.994  24.750  16.251
46644W        W47509   5.335  25.100  15.121
46645W        W47510   6.727  23.126  14.585
46646W        W47511   3.750  24.884  16.749
46647W        W47512   4.541  24.456  17.229
46648W        W47513   4.914  23.816  15.848
46649W        W47514   4.936  22.221  16.941
46650W        W47515   7.165  21.983  16.238
46651W        W47516   4.384  23.855  14.706
46652W        W47517   4.039  22.888  14.885
46653W        W47518   4.101  24.844  15.679
46654W        W47519   5.232  24.327  15.927
46655W        W47520   6.564  25.186  17.641
46656W        W47521   5.490  22.828  15.325
46657W        W47522   6.873  25.226  16.097
46658W        W47523   6.550  23.079  17.695
46659W        W47524   7.263  24.735  15.829
46660W        W47525   5.890  24.027  17.313
46661W        W47526   3.656  23.578  15.519
46662W        W47527   4.767  23.993  17.092
46663W        W47528   5.971  23.257  15.470
46664W        W47529   5.848  23.747  15.574
46665W        W47530   4.191  23.167  17.048
46666W        W47531   4.176  23.043  17.970
46667W        W47532   4.066  21.960  16.129
46668W        W47533   5.834  22.307  16.690
46669W        W47534   5.482  22.492  17.853
46670W        W47535   5.837  22.641  15.031
46671W        W47536   7.020  25.034  17.785
46672W        W47537   5.987  22.115  17.824
46673W        W47538   7.006  24.416  17.946
46674W        W47539   6.436  22.583  17.542
46675W        W47540   6.236  22.521  15.812
46676W        W47541   6.629  23.655  18.216
46677W        W47542   4.369  25.231  16.202
46678W        W47543   5.027  22.948  15.188
46679W        W47544   4.596  22.232  17.852
46680W        W47545   6.648  22.716  15.533
46681W        W47546   7.015  23.198  15.478
46682W        W47547   4.758  25.415  17.949
46683W        W47548   4.684  21.951  15.184
46684W        W47549   7.005  22.485  16.219
46685W        W47550   7.155  24.734  14.664
46686W        W47551   4.062  23.937  16.366
46687W        W47552   5.979  22.524  14.596
46688W        W47553   7.113  24.856  16.316
46689W        W47554   7.152  22.050  17.066
46690W        W47555   5.597  23.262  17.620
46691W        W47556   5.690  24.601  15.323
46692W        W47557   6.090  23.895  18.063
46693W        W47558   5.764  21.872  16.372
46694W        W47559   4.376  22.775  16.435
46695W        W47560   3.930  23.975  17.209
46696W        W47561   5.789  25.168  15.915
46697W        W47562   6.983  22.765  16.787
46698W        W47563   5.620  25.112  17.554
46699W        W47564   6.963  24.171  14.759
46700W        W47565   5.398  23.654  15.820
46701W        W47566   7.250  22.165  17.561
46702W        W47567   5.399  24.000  17.155
46703W        W47568   5.616  22.886  16.600
46704W        W47569   6.468  23.184  15.438
46705W        W47570   6.755  22.917  15.080
46706W        W47571   6.564  24.957  15.469
46707W        W47572   6.398  24.560  16.265
46708W        W47573   6.294  23.639  15.243
46709W        W47574   5.727  23.849  16.229
46710W        W47575   6.608  23.637  16.296
46711W        W47576   3.983  22.652  16.720
46712W        W47577   6.761  23.704  17.547
46713W        W47578   7.112  25.322  16.693
46714W        W47579   5.042  24.766  16.095
46715W        W47580   6.049  25.299  17.419
46716W        W47581   6.043  22.629  17.183
46717W        W47582   5.250  25.337  17.244
46718W        W47583   6.947  22.291  15.710
46719W        W47584   6.738  23.610  17.011
46720W        W47585   3.721  22.931  17.049
46721W        W47586   6.581  22.726  16.067
46722W        W47587   6.992  22.877  17.844
46723W        W47588   5.877  24.576  16.062
46724W        W47589   5.133  25.167  15.675
46725W        W47590   4.248  22.347  14.933
46726W        W47591   5.352  22.001  16.743
46727W        W47592   4.380  25.121  14.591
46728W        W47593   4.754  23.587  15.342
46729W        W47594   5.408  24.216  17.655
46730W        W47595   5.238  22.574  15.645
46731W        W47596   6.594  22.171  16.073
46732W        W47597   6.314  25.453  16.401
46733W        W47598   5.726  25.101  16.741
46734W        W47599   5.122  24.138  16.702
46735W        W47600   6.892  24.861  16.828
46736W        W47601   4.586  22.364  15.597
46737W        W47602   5.108  24.661  16.557
46738W        W47603   4.591  22.592  14.622
46739W        W47604   5.392  23.201  17.016
46740W        W47605   6.240  22.067  16.886
46741W        W47606   3.660  23.910  16.771
46742W        W47607   5.364  23.728  14.929
46743W        W47608   4.632  22.043  14.699
46744W        W47609   5.370  23.124  15.750
46745W        W47610   6.340  22.100  17.449
46746W        W47611   4.928  24.112  17.558
46747W        W47612   5.732  23.894  17.775
46748W        W47613   6.349  23.924  17.668
46749W        W47614   5.633  22.064  18.173
46750W        W47615   4.855  22.680  16.566
46751W        W47616   4.281  22.636  15.964
46752W        W47617   4.067  25.348  15.640
46753W        W47618   5.399  24.678  17.765
46754W        W47619   4.434  24.163  15.124
46755W        W47620   6.114  23.548  16.345
46756W        W47621   6.394  23.347  16.744
46757W        W47622   5.599  24.021  16.678
46758W        W47623   6.069  24.395  14.810
46759W        W47624   5.741  22.416  16.138
46760W        W47625   7.220  22.694  15.406
46761W        W47626   3.714  25.283  17.437
46762W        W47627   4.131  24.509  16.969
46763W        W47628   3.698  25.355  15.201
46764W        W47629   5.597  22.625  17.007
46765W        W47630   4.960  24.648  14.856
46766W        W47631   6.865  25.030  15.042
46767W        W47632   5.840  23.683  15.056
46768W        W47633   4.683  22.874  15.573
46769W        W47634   5.515  22.784  14.625
46770W        W47635   6.099  24.349  17.803
46771W        W47636   6.452  22.255  15.420
46772W        W47637   3.782  22.103  14.868
46773W        W47638   5.068  24.422  17.158
46774W        W47639   4.867  24.338  16.250
46775W        W47640   4.609  24.290  14.648
46776W        W47641   3.850  24.531  15.416
46777W        W47642   4.354  23.601  17.858
46778W        W47643   5.058  22.161  18.044
46779W        W47644   5.767  22.303  17.400
46780W        W47645   4.962  22.071  15.681
46781W        W47646   6.021  22.148  15.186
46782W        W47647   3.966  22.080  16.763
46783W        W47648   4.014  23.043  16.133
46784W        W47649   6.703  22.151  16.539
46785W        W47650   4.125  22.649  15.353
46786W        W47651   6.696  22.337  16.969
46787W        W47652   7.092  23.540  14.654
46788W        W47653   4.384  22.298  16.473
46789W        W47654   5.498  22.870  17.413
46790W        W47655   3.646  22.560  14.891
46791W        W47656   4.432  23.949  17.452
46792W        W47657   5.790  23.347  16.631
46793W        W47658   5.657  25.426  14.927
46794W        W47659   3.803  23.933  14.624
46795W        W47660   4.538  24.344  17.750
46796W        W47661   4.059  23.511  17.381
46797W        W47662   5.050  23.616  17.175
46798W        W47663   6.818  21.975  17.437
46799W        W47664   7.216  23.585  17.428
46800W        W47665   7.204  23.785  15.114
46801W        W47666   6.067  24.117  15.213
46802W        W47667   6.541  25.417  14.908
46803W        W47668   5.718  23.407  18.050
46804W        W47669   4.048  24.374  18.090
46805W        W47670   7.254  22.296  18.042
46806W        W47671   6.972  23.224  16.663
46807W        W47672   5.280  25.354  18.140
46808W        W47673   5.135  21.983  14.867
46809W        W47674   6.674  24.582  14.810
46810W        W47675   4.443  22.675  17.696
46811W        W47676   4.877  24.669  17.558
46812W        W47677   7.003  22.660  17.356
46813W        W47678   6.214  25.319  15.324
46814W        W47679   6.453  23.938  16.691
46815W        W47680   4.703  22.354  17.358
46816W        W47681   5.172  23.423  18.115
46817W        W47682   4.675  24.602  15.309
46818W        W47683   6.430  24.100  15.573
46819W        W47684   4.198  22.726  17.297
46820W        W47685   5.527  24.788  15.761
46821W        W47686   7.277  23.348  15.942
46822W        W47687   5.499  21.981  17.661
46823W        W47688   6.279  24.686  16.740
46824W        W47689   6.582  25.030  16.448
46825W        W47690   5.801  24.832  14.876
46826W        W47691   3.811  24.724  17.718
46827W        W47692   4.554  22.716  16.956
46828W        W47693   4.524  22.064  16.066
46829W        W47694   6.145  22.906  16.758
46830W        W47695   4.943  24.077  14.958
46831W        W47696   6.941  24.019  16.457
46832W        W47697   4.268  24.777  17.880
46833W        W47698   6.655  25.459  15.677
46834W        W47699   4.754  22.479  16.122
46835W        W47700   4.523  23.972  16.212
46836W        W47701   4.836  25.383  16.962
46837W        W47702   6.903  25.479  17.994
46838W        W47703   6.062  23.667  16.927
46839W        W47704   3.911  23.465  14.842
46840W        W47705   7.045  25.123  15.539
46841W        W47706   6.882  22.447  15.158
46842W        W47707   5.021  21.966  17.561
46843W        W47708   6.727  24.768  16.019
46844W        W47709   6.756  23.324  15.924
46845W        W47710   4.873  22.997  16.140
46846W        W47711   5.118  23.259  17.464
46847W        W47712   6.229  24.412  17.327
46848W        W47713   4.879  22.866  17.439
46849W        W47714   4.858  25.332  16.055
46850W        W47715   4.175  25.291  17.689
46851W        W47716   4.287  24.652  14.819
46852W        W47717   6.804  24.410  15.629
46853W        W47718   4.408  23.202  17.515
46854W        W47719   7.181  23.132  14.996
46855W        W47720   4.926  24.189  15.467
46856W        W47721   6.025  23.571  17.548
46857W        W47722   5.916  23.199  17.092
46858W        W47723   4.476  23.571  17.121
46859W        W47724   6.686  25.459  16.950
46860W        W47725   6.477  22.093  17.944
46861W        W47726   4.141  22.243  17.531
46862W        W47727   4.480  23.266  16.584
46863W        W47728   4.849  23.080  14.706
46864W        W47729   3.652  24.839  17.251
46865W        W47730   5.237  23.548  16.694
46866W        W47731   5.060  22.573  14.799
46867W        W47732   4.195  23.389  15.580
46868W        W47733   3.966  25.241  17.017
46869W        W47734   6.761  23.467  15.125
46870W        W47735   6.856  22.383  17.811
46871W        W47736   6.292  24.592  15.774
46872W        W47737   3.890  23.516  17.951
46873W        W47738   6.856  21.980  15.247
46874W        W47739   6.376  24.455  15.258
46875W        W47740   5.278  23.513  15.343
46876W        W47741   6.465  22.317  14.866
46877W        W47742   6.530  22.924  17.052
46878W        W47743   4.239  23.517  16.259
46879W        W47744   4.533  24.456  15.908
46880W        W47745   6.296  23.076  15.873
46881W        W47746   5.319  22.455  16.569
46882W        W47747   7.281  24.366  17.080
46883W        W47748   7.199  22.353  16.641
46884W        W47749   3.738  25.183  16.017
46885W        W47750   4.247  24.370  15.553
46886W        W47751   4.162  21.987  18.106
46887W        W47752   5.281  24.840  18.208
46888W        W47753   7.036  23.808  15.998
46889W        W47754   6.390  23.985  14.878
46890W        W47755   5.685  25.506  17.090
46891W        W47756   6.542  24.228  18.127
46892W        W47757   5.357  21.938  15.407
46893W        W47758   3.756  24.394  16.598
46894W        W47759   5.009  22.356  15.239
46895W        W47760   4.813  23.840  18.088
46896W        W47761   5.807  22.821  15.802
46897W        W47762   6.012  24.231  16.924
46898W        W47763   4.166  24.836  17.359
46899W        W47764   4.757  24.819  18.082
46900W        W47765   4.608  22.616  15.096
46901W        W47766   6.125  22.758  15.421
46902W        W47767   6.083  24.866  17.658
46903W        W47768   4.768  23.458  16.257
46904W        W47769   4.423  25.156  17.122
46905W        W47770   7.168  25.273  14.723
46906W        W47771   4.031  23.945  17.719
46907W        W47772   6.026  24.207  16.407
46908W        W47773   4.462  23.856  15.649
46909W        W47774   4.833  24.863  17.044
46910W        W47775   5.211  22.282  16.085
46911W        W47776   3.822  24.266  15.015
46912W        W47777   5.341  23.217  14.885
46913W        W47778   3.987  23.766  15.904
46914W        W47779   5.277  22.408  17.368
46915W        W47780   6.949  22.117  14.795
46916W        W47781   7.042  23.863  17.894
46917W        W47782   5.696  25.120  18.046
46918W        W47783   7.254  24.214  17.568
46919W        W47784   4.401  25.468  16.657
46920W        W47785   7.260  24.090  15.531
46921W        W47786   5.790  23.357  16.044
46922W        W47787   5.557  21.969  15.934
46923W        W47788   4.616  24.953  15.771
46924W        W47789   5.115  22.694  16.996
46925W        W47790   4.815  22.063  16.465
46926W        W47791   3.878  24.885  15.013
46927W        W47792   5.694  24.249  15.731
46928W        W47793   4.569  25.044  17.610
46929W        W47794   4.046  23.867  15.306
46930W        W47795   3.931  22.410  16.305
46931W        W47796   5.479  24.375  16.362
46932W        W47797   3.731  22.229  15.382
46933W        W47798   6.395  23.435  17.309
46934W        W47799   6.272  22.821  14.881
46935W        W47800   6.789  24.493  16.529
46936W        W47801   5.450  24.977  16.360
46937W        W47802   4.862  25.081  15.271
46938W        W47803   6.144  21.984  14.701
46939W        W47804   3.944  25.244  16.442
46940W        W47805   6.141  23.002  18.077
46941W        W47806   4.124  22.532  18.076
46942W        W47807   3.855  23.132  15.409
46943W        W47808   4.546  23.121  15.134
46944W        W47809   6.309  23.448  17.951
46945W        W47810   4.652  23.729  16.660
46946W        W47811   6.126  22.015  15.780
46947W        W47812   5.257  25.446  16.283
46948W        W47813   6.471  24.908  17.220
46949W        W47814   6.055  25.057  16.331
46950W        W47815   6.074  24.037  15.925
46951W        W47816   5.536  22.262  14.996
46952W        W47817   7.217  21.890  15.718
46953W        W47818   4.905  23.525  14.881
46954W        W47819   7.071  22.862  15.871
46955W        W47820   5.763  24.032  14.748
46956W        W47821   6.699  24.232  17.496
46957W        W47822   6.353  24.933  14.963
46958W        W47823   4.968  22.608  17.869
46959W        W47824   4.788  23.192  17.110
46960W        W47825   6.880  24.687  17.387
46961W        W47826   5.980  22.637  17.764
46962W        W47827   3.824  23.108  17.541
46963W        W47828   5.584  23.585  17.267
46964W        W47829   3.941  24.343  15.924
46965W        W47830   4.088  23.640  16.814
46966W        W47831   6.405  23.926  17.164
46967W        W47832   6.073  23.045  17.528
46968W        W47833   6.350  25.099  15.933
46969W        W47834   5.352  24.819  17.256
46970W        W47835   4.837  25.174  16.525
46971W        W47836   6.642  24.345  16.944
46972W        W47837   5.692  24.417  18.081
46973W        W47838   4.297  24.370  16.420
46974W        W47839   6.643  24.129  16.065
46975W        W47840   6.284  25.195  16.816
46976W        W47841   4.262  24.924  16.686
46977W        W47842   5.283  22.976  17.896
46978W        W47843   5.734  25.142  15.407
46979W        W47844   5.042  24.397  18.045
46980W        W47845   5.168  24.635  15.422
46981W        W47846   4.389  23.375  14.681
46982W        W47847   3.728  25.461  21.580
46983W        W47848   4.104  24.354  21.103
46984W        W47849   6.809  24.084  18.873
46985W        W47850   6.939  25.169  20.900
46986W        W47851   4.857  25.160  18.426
46987W        W47852   4.940  23.312  19.409
46988W        W47853   4.455  23.160  19.573
46989W        W47854   5.446  23.975  19.007
46990W        W47855   5.121  25.067  21.362
46991W        W47856   3.770  22.628  21.325
46992W        W47857   4.532  21.908  21.127
46993W        W47858   6.226  22.296  20.014
46994W        W47859   5.875  23.167  18.584
46995W        W47860   6.445  22.601  21.675
46996W        W47861   3.811  22.393  20.800
46997W        W47862   3.910  25.012  21.821
46998W        W47863   5.432  24.402  18.553
46999W        W47864   3.864  23.185  20.246
47000W        W47865   4.757  23.076  21.483
47001W        W47866   7.216  22.935  19.982
47002W        W47867   6.980  23.978  20.841
47003W        W47868   5.288  23.311  19.868
47004W        W47869   5.834  24.650  20.237
47005W        W47870   4.334  24.084  20.469
47006W        W47871   3.693  23.612  20.040
47007W        W47872   4.729  23.584  21.232
47008W        W47873   7.000  23.367  21.486
47009W        W47874   4.616  24.811  19.931
47010W        W47875   5.737  24.500  21.065
47011W        W47876   4.957  23.140  20.290
47012W        W47877   5.249  23.924  19.933
47013W        W47878   6.246  24.697  21.781
47014W        W47879   5.325  24.017  21.791
47015W        W47880   5.306  23.733  21.269
47016W        W47881   3.715  23.124  21.791
47017W        W47882   6.547  24.659  21.390
47018W        W47883   4.128  22.241  19.388
47019W        W47884   4.655  24.499  20.387
47020W        W47885   7.118  24.282  19.677
47021W        W47886   6.531  22.682  20.244
47022W        W47887   6.816  22.635  18.339
47023W        W47888   7.281  23.436  20.645
47024W        W47889   5.248  25.143  20.398
47025W        W47890   7.022  24.609  18.836
47026W        W47891   4.151  25.395  18.590
47027W        W47892   4.544  25.441  19.266
47028W        W47893   4.341  22.195  20.692
47029W        W47894   6.964  23.213  20.967
47030W        W47895   6.369  23.635  19.426
47031W        W47896   6.335  23.323  18.453
47032W        W47897   5.543  24.467  20.593
47033W        W47898   5.349  22.797  19.792
47034W        W47899   5.949  24.884  20.786
47035W        W47900   6.820  23.675  19.208
47036W        W47901   5.722  22.333  19.224
47037W        W47902   4.379  25.027  18.907
47038W        W47903   3.750  22.526  19.506
47039W        W47904   6.536  23.133  19.980
47040W        W47905   3.994  24.750  19.895
47041W        W47906   5.335  25.100  18.765
47042W        W47907   6.727  23.126  18.229
47043W        W47908   3.750  24.884  20.393
47044W        W47909   4.541  24.456  20.873
47045W        W47910   4.914  23.816  19.492
47046W        W47911   4.936  22.221  20.585
47047W        W47912   7.165  21.983  19.882
47048W        W47913   4.384  23.855  18.350
47049W        W47914   4.039  22.888  18.529
47050W        W47915   4.101  24.844  19.323
47051W        W47916   5.232  24.327  19.571
47052W        W47917   6.564  25.186  21.285
47053W        W47918   5.490  22.828  18.969
47054W        W47919   6.873  25.226  19.741
47055W        W47920   6.550  23.079  21.339
47056W        W47921   7.263  24.735  19.473
47057W        W47922   5.890  24.027  20.957
47058W        W47923   3.656  23.578  19.163
47059W        W47924   4.767  23.993  20.736
47060W        W47925   5.971  23.257  19.114
47061W        W47926   5.848  23.747  19.218
47062W        W47927   4.191  23.167  20.692
47063W        W47928   4.176  23.043  21.614
47064W        W47929   4.066  21.960  19.773
47065W        W47930   5.834  22.307  20.334
47066W        W47931   5.482  22.492  21.497
47067W        W47932   5.837  22.641  18.675
47068W        W47933   7.020  25.034  21.429
47069W        W47934   5.987  22.115  21.468
47070W        W47935   7.006  24.416  21.590
47071W        W47936   6.436  22.583  21.186
47072W        W47937   6.236  22.521  19.456
47073W        W47938   6.629  23.655  21.860
47074W        W47939   4.369  25.231  19.846
47075W        W47940   5.027  22.948  18.832
47076W        W47941   4.596  22.232  21.496
47077W        W47942   6.648  22.716  19.177
47078W        W47943   7.015  23.198  19.122
47079W        W47944   4.758  25.415  21.593
47080W        W47945   4.684  21.951  18.828
47081W        W47946   7.005  22.485  19.863
47082W        W47947   7.155  24.734  18.308
47083W        W47948   4.062  23.937  20.010
47084W        W47949   5.979  22.524  18.240
47085W        W47950   7.113  24.856  19.960
47086W        W47951   7.152  22.050  20.710
47087W        W47952   5.597  23.262  21.264
47088W        W47953   5.690  24.601  18.967
47089W        W47954   6.090  23.895  21.707
47090W        W47955   5.764  21.872  20.016
47091W        W47956   4.376  22.775  20.079
47092W        W47957   3.930  23.975  20.853
47093W        W47958   5.789  25.168  19.559
47094W        W47959   6.983  22.765  20.431
47095W        W47960   5.620  25.112  21.198
47096W        W47961   6.963  24.171  18.403
47097W        W47962   5.398  23.654  19.464
47098W        W47963   7.250  22.165  21.205
47099W        W47964   5.399  24.000  20.799
47100W        W47965   5.616  22.886  20.244
47101W        W47966   6.468  23.184  19.082
47102W        W47967   6.755  22.917  18.724
47103W        W47968   6.564  24.957  19.113
47104W        W47969   6.398  24.560  19.909
47105W        W47970   6.294  23.639  18.887
47106W        W47971   5.727  23.849  19.873
47107W        W47972   6.608  23.637  19.940
47108W        W47973   3.983  22.652  20.364
47109W        W47974   6.761  23.704  21.191
47110W        W47975   7.112  25.322  20.337
47111W        W47976   5.042  24.766  19.739
47112W        W47977   6.049  25.299  21.063
47113W        W47978   6.043  22.629  20.827
47114W        W47979   5.250  25.337  20.888
47115W        W47980   6.947  22.291  19.354
47116W        W47981   6.738  23.610  20.655
47117W        W47982   3.721  22.931  20.693
47118W        W47983   6.581  22.726  19.711
47119W        W47984   6.992  22.877  21.488
47120W        W47985   5.877  24.576  19.706
47121W        W47986   5.133  25.167  19.319
47122W        W47987   4.248  22.347  18.577
47123W        W47988   5.352  22.001  20.387
47124W        W47989   4.380  25.121  18.235
47125W        W47990   4.754  23.587  18.986
47126W        W47991   5.408  24.216  21.299
47127W        W47992   5.238  22.574  19.289
47128W        W47993   6.594  22.171  19.717
47129W        W47994   6.314  25.453  20.045
47130W        W47995   5.726  25.101  20.385
47131W        W47996   5.122  24.138  20.346
47132W        W47997   6.892  24.861  20.472
47133W        W47998   4.586  22.364  19.241
47134W        W47999   5.108  24.661  20.201
47135W        W48000   4.591  22.592  18.266
47136W        W48001   5.392  23.201  20.660
47137W        W48002   6.240  22.067  20.530
47138W        W48003   3.660  23.910  20.415
47139W        W48004   5.364  23.728  18.573
47140W        W48005   4.632  22.043  18.343
47141W        W48006   5.370  23.124  19.394
47142W        W48007   6.340  22.100  21.093
47143W        W48008   4.928  24.112  21.202
47144W        W48009   5.732  23.894  21.419
47145W        W48010   6.349  23.924  21.312
47146W        W48011   5.633  22.064  21.817
47147W        W48012   4.855  22.680  20.210
47148W        W48013   4.281  22.636  19.608
47149W        W48014   4.067  25.348  19.284
47150W        W48015   5.399  24.678  21.409
47151W        W48016   4.434  24.163  18.768
47152W        W48017   6.114  23.548  19.989
47153W        W48018   6.394  23.347  20.388
47154W        W48019   5.599  24.021  20.322
47155W        W48020   6.069  24.395  18.454
47156W        W48021   5.741  22.416  19.782
47157W        W48022   7.220  22.694  19.050
47158W        W48023   3.714  25.283  21.081
47159W        W48024   4.131  24.509  20.613
47160W        W48025   3.698  25.355  18.845
47161W        W48026   5.597  22.625  20.651
47162W        W48027   4.960  24.648  18.500
47163W        W48028   6.865  25.030  18.686
47164W        W48029   5.840  23.683  18.700
47165W        W48030   4.683  22.874  19.217
47166W        W48031   5.515  22.784  18.269
47167W        W48032   6.099  24.349  21.447
47168W        W48033   6.452  22.255  19.064
47169W        W48034   3.782  22.103  18.512
47170W        W48035   5.068  24.422  20.802
47171W        W48036   4.867  24.338  19.894
47172W        W48037   4.609  24.290  18.292
47173W        W48038   3.850  24.531  19.060
47174W        W48039   4.354  23.601  21.502
47175W        W48040   5.058  22.161  21.688
47176W        W48041   5.767  22.303  21.044
47177W        W48042   4.962  22.071  19.325
47178W        W48043   6.021  22.148  18.830
47179W        W48044   3.966  22.080  20.407
47180W        W48045   4.014  23.043  19.777
47181W        W48046   6.703  22.151  20.183
47182W        W48047   4.125  22.649  18.997
47183W        W48048   6.696  22.337  20.613
47184W        W48049   7.092  23.540  18.298
47185W        W48050   4.384  22.298  20.117
47186W        W48051   5.498  22.870  21.057
47187W        W48052   3.646  22.560  18.535
47188W        W48053   4.432  23.949  21.096
47189W        W48054   5.790  23.347  20.275
47190W        W48055   5.657  25.426  18.571
47191W        W48056   3.803  23.933  18.268
47192W        W48057   4.538  24.344  21.394
47193W        W48058   4.059  23.511  21.025
47194W        W48059   5.050  23.616  20.819
47195W        W48060   6.818  21.975  21.081
47196W        W48061   7.216  23.585  21.072
47197W        W48062   7.204  23.785  18.758
47198W        W48063   6.067  24.117  18.857
47199W        W48064   6.541  25.417  18.552
47200W        W48065   5.718  23.407  21.694
47201W        W48066   4.048  24.374  21.734
47202W        W48067   7.254  22.296  21.686
47203W        W48068   6.972  23.224  20.307
47204W        W48069   5.280  25.354  21.784
47205W        W48070   5.135  21.983  18.511
47206W        W48071   6.674  24.582  18.454
47207W        W48072   4.443  22.675  21.340
47208W        W48073   4.877  24.669  21.202
47209W        W48074   7.003  22.660  21.000
47210W        W48075   6.214  25.319  18.968
47211W        W48076   6.453  23.938  20.335
47212W        W48077   4.703  22.354  21.002
47213W        W48078   5.172  23.423  21.759
47214W        W48079   4.675  24.602  18.953
47215W        W48080   6.430  24.100  19.217
47216W        W48081   4.198  22.726  20.941
47217W        W48082   5.527  24.788  19.405
47218W        W48083   7.277  23.348  19.586
47219W        W48084   5.499  21.981  21.305
47220W        W48085   6.279  24.686  20.384
47221W        W48086   6.582  25.030  20.092
47222W        W48087   5.801  24.832  18.520
47223W        W48088   3.811  24.724  21.362
47224W        W48089   4.554  22.716  20.600
47225W        W48090   4.524  22.064  19.710
47226W        W48091   6.145  22.906  20.402
47227W        W48092   4.943  24.077  18.602
47228W        W48093   6.941  24.019  20.101
47229W        W48094   4.268  24.777  21.524
47230W        W48095   6.655  25.459  19.321
47231W        W48096   4.754  22.479  19.766
47232W        W48097   4.523  23.972  19.856
47233W        W48098   4.836  25.383  20.606
47234W        W48099   6.903  25.479  21.638
47235W        W48100   6.062  23.667  20.571
47236W        W48101   3.911  23.465  18.486
47237W        W48102   7.045  25.123  19.183
47238W        W48103   6.882  22.447  18.802
47239W        W48104   5.021  21.966  21.205
47240W        W48105   6.727  24.768  19.663
47241W        W48106   6.756  23.324  19.568
47242W        W48107   4.873  22.997  19.784
47243W        W48108   5.118  23.259  21.108
47244W        W48109   6.229  24.412  20.971
47245W        W48110   4.879  22.866  21.083
47246W        W48111   4.858  25.332  19.699
47247W        W48112   4.175  25.291  21.333
47248W        W48113   4.287  24.652  18.463
47249W        W48114   6.804  24.410  19.273
47250W        W48115   4.408  23.202  21.159
47251W        W48116   7.181  23.132  18.640
47252W        W48117   4.926  24.189  19.111
47253W        W48118   6.025  23.571  21.192
47254W        W48119   5.916  23.199  20.736
47255W        W48120   4.476  23.571  20.765
47256W        W48121   6.686  25.459  20.594
47257W        W48122   6.477  22.093  21.588
47258W        W48123   4.141  22.243  21.175
47259W        W48124   4.480  23.266  20.228
47260W        W48125   4.849  23.080  18.350
47261W        W48126   3.652  24.839  20.895
47262W        W48127   5.237  23.548  20.338
47263W        W48128   5.060  22.573  18.443
47264W        W48129   4.195  23.389  19.224
47265W        W48130   3.966  25.241  20.661
47266W        W48131   6.761  23.467  18.769
47267W        W48132   6.856  22.383  21.455
47268W        W48133   6.292  24.592  19.418
47269W        W48134   3.890  23.516  21.595
47270W        W48135   6.856  21.980  18.891
47271W        W48136   6.376  24.455  18.902
47272W        W48137   5.278  23.513  18.987
47273W        W48138   6.465  22.317  18.510
47274W        W48139   6.530  22.924  20.696
47275W        W48140   4.239  23.517  19.903
47276W        W48141   4.533  24.456  19.552
47277W        W48142   6.296  23.076  19.517
47278W        W48143   5.319  22.455  20.213
47279W        W48144   7.281  24.366  20.724
47280W        W48145   7.199  22.353  20.285
47281W        W48146   3.738  25.183  19.661
47282W        W48147   4.247  24.370  19.197
47283W        W48148   4.162  21.987  21.750
47284W        W48149   5.281  24.840  21.852
47285W        W48150   7.036  23.808  19.642
47286W        W48151   6.390  23.985  18.522
47287W        W48152   5.685  25.506  20.734
47288W        W48153   6.542  24.228  21.771
47289W        W48154   5.357  21.938  19.051
47290W        W48155   6.070  22.807  19.910
47291W        W48156   3.756  24.394  20.242
47292W        W48157   5.009  22.356  18.883
47293W        W48158   4.813  23.840  21.732
47294W        W48159   5.807  22.821  19.446
47295W        W48160   6.012  24.231  20.568
47296W        W48161   4.166  24.836  21.003
47297W        W48162   4.757  24.819  21.726
47298W        W48163   4.608  22.616  18.740
47299W        W48164   6.125  22.758  19.065
47300W        W48165   6.083  24.866  21.302
47301W        W48166   4.768  23.458  19.901
47302W        W48167   4.423  25.156  20.766
47303W        W48168   7.168  25.273  18.367
47304W        W48169   4.031  23.945  21.363
47305W        W48170   6.026  24.207  20.051
47306W        W48171   4.462  23.856  19.293
47307W        W48172   4.833  24.863  20.688
47308W        W48173   5.211  22.282  19.729
47309W        W48174   3.822  24.266  18.659
47310W        W48175   5.341  23.217  18.529
47311W        W48176   3.987  23.766  19.548
47312W        W48177   5.277  22.408  21.012
47313W        W48178   6.949  22.117  18.439
47314W        W48179   7.042  23.863  21.538
47315W        W48180   5.696  25.120  21.690
47316W        W48181   7.254  24.214  21.212
47317W        W48182   6.662  25.012  21.823
47318W        W48183   4.401  25.468  20.301
47319W        W48184   7.260  24.090  19.175
47320W        W48185   5.790  23.357  19.688
47321W        W48186   5.557  21.969  19.578
47322W        W48187   4.616  24.953  19.415
47323W        W48188   5.115  22.694  20.640
47324W        W48189   4.815  22.063  20.109
47325W        W48190   3.878  24.885  18.657
47326W        W48191   5.694  24.249  19.375
47327W        W48192   4.569  25.044  21.254
47328W        W48193   4.046  23.867  18.950
47329W        W48194   3.931  22.410  19.949
47330W        W48195   5.479  24.375  20.006
47331W        W48196   3.731  22.229  19.026
47332W        W48197   6.395  23.435  20.953
47333W        W48198   6.272  22.821  18.525
47334W        W48199   6.789  24.493  20.173
47335W        W48200   5.450  24.977  20.004
47336W        W48201   4.862  25.081  18.915
47337W        W48202   6.144  21.984  18.345
47338W        W48203   3.944  25.244  20.086
47339W        W48204   6.141  23.002  21.721
47340W        W48205   4.124  22.532  21.720
47341W        W48206   3.855  23.132  19.053
47342W        W48207   4.546  23.121  18.778
47343W        W48208   6.309  23.448  21.595
47344W        W48209   4.652  23.729  20.304
47345W        W48210   6.126  22.015  19.424
47346W        W48211   5.257  25.446  19.927
47347W        W48212   6.471  24.908  20.864
47348W        W48213   6.055  25.057  19.975
47349W        W48214   6.074  24.037  19.569
47350W        W48215   5.536  22.262  18.640
47351W        W48216   7.217  21.890  19.362
47352W        W48217   4.905  23.525  18.525
47353W        W48218   7.071  22.862  19.515
47354W        W48219   5.763  24.032  18.392
47355W        W48220   6.699  24.232  21.140
47356W        W48221   6.353  24.933  18.607
47357W        W48222   4.968  22.608  21.513
47358W        W48223   4.788  23.192  20.754
47359W        W48224   6.880  24.687  21.031
47360W        W48225   5.980  22.637  21.408
47361W        W48226   3.824  23.108  21.185
47362W        W48227   5.584  23.585  20.911
47363W        W48228   3.941  24.343  19.568
47364W        W48229   4.088  23.640  20.458
47365W        W48230   6.405  23.926  20.808
47366W        W48231   6.177  25.306  21.619
47367W        W48232   6.073  23.045  21.172
47368W        W48233   6.350  25.099  19.577
47369W        W48234   5.352  24.819  20.900
47370W        W48235   4.837  25.174  20.169
47371W        W48236   6.642  24.345  20.588
47372W        W48237   5.692  24.417  21.725
47373W        W48238   4.297  24.370  20.064
47374W        W48239   6.643  24.129  19.709
47375W        W48240   6.284  25.195  20.460
47376W        W48241   4.262  24.924  20.330
47377W        W48242   5.283  22.976  21.540
47378W        W48243   5.734  25.142  19.051
47379W        W48244   5.042  24.397  21.689
47380W        W48245   5.168  24.635  19.066
47381W        W48246   4.389  23.375  18.325
47382W        W48247   3.728  25.461  25.225
47383W        W48248   4.104  24.354  24.748
47384W        W48249   6.809  24.084  22.518
47385W        W48250   6.939  25.169  24.545
47386W        W48251   4.857  25.160  22.071
47387W        W48252   4.940  23.312  23.054
47388W        W48253   4.455  23.160  23.218
47389W        W48254   5.446  23.975  22.652
47390W        W48255   5.121  25.067  25.007
47391W        W48256   3.770  22.628  24.970
47392W        W48257   4.532  21.908  24.772
47393W        W48258   6.226  22.296  23.659
47394W        W48259   5.875  23.167  22.229
47395W        W48260   6.445  22.601  25.320
47396W        W48261   3.811  22.393  24.445
47397W        W48262   3.910  25.012  25.466
47398W        W48263   5.432  24.402  22.198
47399W        W48264   3.864  23.185  23.891
47400W        W48265   4.757  23.076  25.128
47401W        W48266   7.216  22.935  23.627
47402W        W48267   6.980  23.978  24.486
47403W        W48268   5.288  23.311  23.513
47404W        W48269   5.834  24.650  23.882
47405W        W48270   4.334  24.084  24.114
47406W        W48271   3.693  23.612  23.685
47407W        W48272   4.729  23.584  24.877
47408W        W48273   7.000  23.367  25.131
47409W        W48274   4.616  24.811  23.576
47410W        W48275   5.737  24.500  24.710
47411W        W48276   4.957  23.140  23.935
47412W        W48277   5.249  23.924  23.578
47413W        W48278   6.246  24.697  25.426
47414W        W48279   5.325  24.017  25.436
47415W        W48280   5.306  23.733  24.914
47416W        W48281   3.715  23.124  25.436
47417W        W48282   6.547  24.659  25.035
47418W        W48283   4.128  22.241  23.033
47419W        W48284   4.655  24.499  24.032
47420W        W48285   7.118  24.282  23.322
47421W        W48286   6.531  22.682  23.889
47422W        W48287   6.816  22.635  21.984
47423W        W48288   7.281  23.436  24.290
47424W        W48289   5.248  25.143  24.043
47425W        W48290   7.022  24.609  22.481
47426W        W48291   4.151  25.395  22.235
47427W        W48292   4.544  25.441  22.911
47428W        W48293   4.341  22.195  24.337
47429W        W48294   6.964  23.213  24.612
47430W        W48295   6.369  23.635  23.071
47431W        W48296   6.335  23.323  22.098
47432W        W48297   5.543  24.467  24.238
47433W        W48298   5.349  22.797  23.437
47434W        W48299   5.949  24.884  24.431
47435W        W48300   6.820  23.675  22.853
47436W        W48301   5.722  22.333  22.869
47437W        W48302   4.379  25.027  22.552
47438W        W48303   3.750  22.526  23.151
47439W        W48304   6.536  23.133  23.625
47440W        W48305   3.994  24.750  23.540
47441W        W48306   5.335  25.100  22.410
47442W        W48307   6.727  23.126  21.874
47443W        W48308   3.750  24.884  24.038
47444W        W48309   4.541  24.456  24.518
47445W        W48310   4.914  23.816  23.137
47446W        W48311   4.936  22.221  24.230
47447W        W48312   7.165  21.983  23.527
47448W        W48313   4.384  23.855  21.995
47449W        W48314   4.039  22.888  22.174
47450W        W48315   4.101  24.844  22.968
47451W        W48316   5.232  24.327  23.216
47452W        W48317   6.564  25.186  24.930
47453W        W48318   5.490  22.828  22.614
47454W        W48319   6.873  25.226  23.386
47455W        W48320   6.550  23.079  24.984
47456W        W48321   7.263  24.735  23.118
47457W        W48322   5.890  24.027  24.602
47458W        W48323   3.656  23.578  22.808
47459W        W48324   4.767  23.993  24.381
47460W        W48325   5.971  23.257  22.759
47461W        W48326   5.848  23.747  22.863
47462W        W48327   4.191  23.167  24.337
47463W        W48328   4.176  23.043  25.259
47464W        W48329   4.066  21.960  23.418
47465W        W48330   5.834  22.307  23.979
47466W        W48331   5.482  22.492  25.142
47467W        W48332   5.837  22.641  22.320
47468W        W48333   7.020  25.034  25.074
47469W        W48334   5.987  22.115  25.113
47470W        W48335   7.006  24.416  25.235
47471W        W48336   6.436  22.583  24.831
47472W        W48337   6.236  22.521  23.101
47473W        W48338   6.629  23.655  25.505
47474W        W48339   4.369  25.231  23.491
47475W        W48340   5.027  22.948  22.477
47476W        W48341   4.596  22.232  25.141
47477W        W48342   6.648  22.716  22.822
47478W        W48343   7.015  23.198  22.767
47479W        W48344   4.758  25.415  25.238
47480W        W48345   4.684  21.951  22.473
47481W        W48346   7.005  22.485  23.508
47482W        W48347   7.155  24.734  21.953
47483W        W48348   4.062  23.937  23.655
47484W        W48349   5.979  22.524  21.885
47485W        W48350   7.113  24.856  23.605
47486W        W48351   7.152  22.050  24.355
47487W        W48352   5.597  23.262  24.909
47488W        W48353   5.690  24.601  22.612
47489W        W48354   6.090  23.895  25.352
47490W        W48355   5.764  21.872  23.661
47491W        W48356   4.376  22.775  23.724
47492W        W48357   3.930  23.975  24.498
47493W        W48358   5.789  25.168  23.204
47494W        W48359   6.983  22.765  24.076
47495W        W48360   5.620  25.112  24.843
47496W        W48361   6.963  24.171  22.048
47497W        W48362   5.398  23.654  23.109
47498W        W48363   7.250  22.165  24.850
47499W        W48364   5.399  24.000  24.444
47500W        W48365   5.616  22.886  23.889
47501W        W48366   6.468  23.184  22.727
47502W        W48367   6.755  22.917  22.369
47503W        W48368   6.564  24.957  22.758
47504W        W48369   6.398  24.560  23.554
47505W        W48370   6.294  23.639  22.532
47506W        W48371   5.727  23.849  23.518
47507W        W48372   6.608  23.637  23.585
47508W        W48373   3.983  22.652  24.009
47509W        W48374   6.761  23.704  24.836
47510W        W48375   7.112  25.322  23.982
47511W        W48376   5.042  24.766  23.384
47512W        W48377   6.049  25.299  24.708
47513W        W48378   6.043  22.629  24.472
47514W        W48379   5.250  25.337  24.533
47515W        W48380   6.947  22.291  22.999
47516W        W48381   6.738  23.610  24.300
47517W        W48382   3.721  22.931  24.338
47518W        W48383   6.581  22.726  23.356
47519W        W48384   6.992  22.877  25.133
47520W        W48385   5.877  24.576  23.351
47521W        W48386   5.133  25.167  22.964
47522W        W48387   4.248  22.347  22.222
47523W        W48388   5.352  22.001  24.032
47524W        W48389   4.380  25.121  21.880
47525W        W48390   4.754  23.587  22.631
47526W        W48391   5.408  24.216  24.944
47527W        W48392   5.238  22.574  22.934
47528W        W48393   6.594  22.171  23.362
47529W        W48394   6.314  25.453  23.690
47530W        W48395   5.726  25.101  24.030
47531W        W48396   5.122  24.138  23.991
47532W        W48397   6.892  24.861  24.117
47533W        W48398   4.586  22.364  22.886
47534W        W48399   5.108  24.661  23.846
47535W        W48400   4.591  22.592  21.911
47536W        W48401   5.392  23.201  24.305
47537W        W48402   6.240  22.067  24.175
47538W        W48403   3.660  23.910  24.060
47539W        W48404   5.364  23.728  22.218
47540W        W48405   4.632  22.043  21.988
47541W        W48406   5.370  23.124  23.039
47542W        W48407   6.340  22.100  24.738
47543W        W48408   4.928  24.112  24.847
47544W        W48409   5.732  23.894  25.064
47545W        W48410   6.349  23.924  24.957
47546W        W48411   5.633  22.064  25.462
47547W        W48412   4.855  22.680  23.855
47548W        W48413   4.281  22.636  23.253
47549W        W48414   4.067  25.348  22.929
47550W        W48415   5.399  24.678  25.054
47551W        W48416   4.434  24.163  22.413
47552W        W48417   6.114  23.548  23.634
47553W        W48418   6.394  23.347  24.033
47554W        W48419   5.599  24.021  23.967
47555W        W48420   6.069  24.395  22.099
47556W        W48421   5.741  22.416  23.427
47557W        W48422   7.220  22.694  22.695
47558W        W48423   3.714  25.283  24.726
47559W        W48424   4.131  24.509  24.258
47560W        W48425   3.698  25.355  22.490
47561W        W48426   5.597  22.625  24.296
47562W        W48427   4.960  24.648  22.145
47563W        W48428   6.865  25.030  22.331
47564W        W48429   5.840  23.683  22.345
47565W        W48430   4.683  22.874  22.862
47566W        W48431   5.515  22.784  21.914
47567W        W48432   6.099  24.349  25.092
47568W        W48433   6.452  22.255  22.709
47569W        W48434   3.782  22.103  22.157
47570W        W48435   5.068  24.422  24.447
47571W        W48436   4.867  24.338  23.539
47572W        W48437   4.609  24.290  21.937
47573W        W48438   3.850  24.531  22.705
47574W        W48439   4.354  23.601  25.147
47575W        W48440   5.058  22.161  25.333
47576W        W48441   5.767  22.303  24.689
47577W        W48442   4.962  22.071  22.970
47578W        W48443   6.021  22.148  22.475
47579W        W48444   3.966  22.080  24.052
47580W        W48445   4.014  23.043  23.422
47581W        W48446   4.125  22.649  22.642
47582W        W48447   6.696  22.337  24.258
47583W        W48448   7.092  23.540  21.943
47584W        W48449   4.384  22.298  23.762
47585W        W48450   5.498  22.870  24.702
47586W        W48451   3.646  22.560  22.180
47587W        W48452   4.432  23.949  24.741
47588W        W48453   5.790  23.347  23.920
47589W        W48454   5.657  25.426  22.216
47590W        W48455   3.803  23.933  21.913
47591W        W48456   4.538  24.344  25.039
47592W        W48457   4.059  23.511  24.670
47593W        W48458   5.050  23.616  24.464
47594W        W48459   6.818  21.975  24.726
47595W        W48460   7.216  23.585  24.717
47596W        W48461   7.204  23.785  22.403
47597W        W48462   6.067  24.117  22.502
47598W        W48463   6.541  25.417  22.197
47599W        W48464   5.718  23.407  25.339
47600W        W48465   4.048  24.374  25.379
47601W        W48466   7.254  22.296  25.331
47602W        W48467   6.972  23.224  23.952
47603W        W48468   5.280  25.354  25.429
47604W        W48469   5.135  21.983  22.156
47605W        W48470   6.674  24.582  22.099
47606W        W48471   4.443  22.675  24.985
47607W        W48472   4.877  24.669  24.847
47608W        W48473   7.003  22.660  24.645
47609W        W48474   6.214  25.319  22.613
47610W        W48475   6.453  23.938  23.980
47611W        W48476   4.703  22.354  24.647
47612W        W48477   5.172  23.423  25.404
47613W        W48478   4.675  24.602  22.598
47614W        W48479   6.430  24.100  22.862
47615W        W48480   4.198  22.726  24.586
47616W        W48481   5.527  24.788  23.050
47617W        W48482   7.277  23.348  23.231
47618W        W48483   5.499  21.981  24.950
47619W        W48484   6.279  24.686  24.029
47620W        W48485   6.582  25.030  23.737
47621W        W48486   5.801  24.832  22.165
47622W        W48487   3.811  24.724  25.007
47623W        W48488   4.554  22.716  24.245
47624W        W48489   4.524  22.064  23.355
47625W        W48490   6.145  22.906  24.047
47626W        W48491   4.943  24.077  22.247
47627W        W48492   6.941  24.019  23.746
47628W        W48493   4.268  24.777  25.169
47629W        W48494   6.655  25.459  22.966
47630W        W48495   4.754  22.479  23.411
47631W        W48496   4.523  23.972  23.501
47632W        W48497   4.836  25.383  24.251
47633W        W48498   6.903  25.479  25.283
47634W        W48499   6.062  23.667  24.216
47635W        W48500   3.911  23.465  22.131
47636W        W48501   7.045  25.123  22.828
47637W        W48502   6.882  22.447  22.447
47638W        W48503   5.021  21.966  24.850
47639W        W48504   6.727  24.768  23.308
47640W        W48505   6.756  23.324  23.213
47641W        W48506   4.873  22.997  23.429
47642W        W48507   5.118  23.259  24.753
47643W        W48508   6.229  24.412  24.616
47644W        W48509   4.879  22.866  24.728
47645W        W48510   4.858  25.332  23.344
47646W        W48511   4.175  25.291  24.978
47647W        W48512   4.287  24.652  22.108
47648W        W48513   6.804  24.410  22.918
47649W        W48514   4.408  23.202  24.804
47650W        W48515   7.181  23.132  22.285
47651W        W48516   4.926  24.189  22.756
47652W        W48517   6.025  23.571  24.837
47653W        W48518   5.916  23.199  24.381
47654W        W48519   4.476  23.571  24.410
47655W        W48520   6.686  25.459  24.239
47656W        W48521   6.477  22.093  25.233
47657W        W48522   4.141  22.243  24.820
47658W        W48523   4.480  23.266  23.873
47659W        W48524   4.849  23.080  21.995
47660W        W48525   3.652  24.839  24.540
47661W        W48526   5.237  23.548  23.983
47662W        W48527   5.060  22.573  22.088
47663W        W48528   4.195  23.389  22.869
47664W        W48529   3.966  25.241  24.306
47665W        W48530   6.761  23.467  22.414
47666W        W48531   6.856  22.383  25.100
47667W        W48532   6.292  24.592  23.063
47668W        W48533   3.890  23.516  25.240
47669W        W48534   6.856  21.980  22.536
47670W        W48535   6.376  24.455  22.547
47671W        W48536   5.278  23.513  22.632
47672W        W48537   6.465  22.317  22.155
47673W        W48538   6.530  22.924  24.341
47674W        W48539   4.239  23.517  23.548
47675W        W48540   4.533  24.456  23.197
47676W        W48541   6.296  23.076  23.162
47677W        W48542   5.319  22.455  23.858
47678W        W48543   7.281  24.366  24.369
47679W        W48544   7.199  22.353  23.930
47680W        W48545   3.738  25.183  23.306
47681W        W48546   4.247  24.370  22.842
47682W        W48547   4.162  21.987  25.395
47683W        W48548   5.281  24.840  25.497
47684W        W48549   7.036  23.808  23.287
47685W        W48550   6.390  23.985  22.167
47686W        W48551   5.685  25.506  24.379
47687W        W48552   6.542  24.228  25.416
47688W        W48553   5.357  21.938  22.696
47689W        W48554   6.070  22.807  23.555
47690W        W48555   3.756  24.394  23.887
47691W        W48556   5.009  22.356  22.528
47692W        W48557   4.813  23.840  25.377
47693W        W48558   5.807  22.821  23.091
47694W        W48559   6.012  24.231  24.213
47695W        W48560   4.166  24.836  24.648
47696W        W48561   4.757  24.819  25.371
47697W        W48562   4.608  22.616  22.385
47698W        W48563   6.125  22.758  22.710
47699W        W48564   6.083  24.866  24.947
47700W        W48565   4.768  23.458  23.546
47701W        W48566   4.423  25.156  24.411
47702W        W48567   7.168  25.273  22.012
47703W        W48568   4.031  23.945  25.008
47704W        W48569   6.026  24.207  23.696
47705W        W48570   4.462  23.856  22.938
47706W        W48571   4.833  24.863  24.333
47707W        W48572   5.211  22.282  23.374
47708W        W48573   3.822  24.266  22.304
47709W        W48574   5.341  23.217  22.174
47710W        W48575   3.987  23.766  23.193
47711W        W48576   5.277  22.408  24.657
47712W        W48577   6.949  22.117  22.084
47713W        W48578   7.042  23.863  25.183
47714W        W48579   5.696  25.120  25.335
47715W        W48580   7.254  24.214  24.857
47716W        W48581   6.662  25.012  25.468
47717W        W48582   4.401  25.468  23.946
47718W        W48583   7.260  24.090  22.820
47719W        W48584   5.790  23.357  23.333
47720W        W48585   5.557  21.969  23.223
47721W        W48586   4.616  24.953  23.060
47722W        W48587   5.115  22.694  24.285
47723W        W48588   4.815  22.063  23.754
47724W        W48589   3.878  24.885  22.302
47725W        W48590   5.694  24.249  23.020
47726W        W48591   4.569  25.044  24.899
47727W        W48592   4.046  23.867  22.595
47728W        W48593   3.931  22.410  23.594
47729W        W48594   5.479  24.375  23.651
47730W        W48595   3.731  22.229  22.671
47731W        W48596   6.395  23.435  24.598
47732W        W48597   6.272  22.821  22.170
47733W        W48598   6.789  24.493  23.818
47734W        W48599   5.450  24.977  23.649
47735W        W48600   4.862  25.081  22.560
47736W        W48601   6.144  21.984  21.990
47737W        W48602   3.944  25.244  23.731
47738W        W48603   6.141  23.002  25.366
47739W        W48604   4.124  22.532  25.365
47740W        W48605   3.855  23.132  22.698
47741W        W48606   4.546  23.121  22.423
47742W        W48607   6.309  23.448  25.240
47743W        W48608   4.652  23.729  23.949
47744W        W48609   6.126  22.015  23.069
47745W        W48610   5.257  25.446  23.572
47746W        W48611   6.471  24.908  24.509
47747W        W48612   6.055  25.057  23.620
47748W        W48613   6.074  24.037  23.214
47749W        W48614   5.536  22.262  22.285
47750W        W48615   7.217  21.890  23.007
47751W        W48616   4.905  23.525  22.170
47752W        W48617   7.071  22.862  23.160
47753W        W48618   5.763  24.032  22.037
47754W        W48619   6.699  24.232  24.785
47755W        W48620   6.353  24.933  22.252
47756W        W48621   4.968  22.608  25.158
47757W        W48622   4.788  23.192  24.399
47758W        W48623   6.880  24.687  24.676
47759W        W48624   5.980  22.637  25.053
47760W        W48625   3.824  23.108  24.830
47761W        W48626   5.584  23.585  24.556
47762W        W48627   3.941  24.343  23.213
47763W        W48628   4.088  23.640  24.103
47764W        W48629   6.405  23.926  24.453
47765W        W48630   6.177  25.306  25.264
47766W        W48631   6.073  23.045  24.817
47767W        W48632   6.350  25.099  23.222
47768W        W48633   5.352  24.819  24.545
47769W        W48634   4.837  25.174  23.814
47770W        W48635   6.642  24.345  24.233
47771W        W48636   5.692  24.417  25.370
47772W        W48637   4.297  24.370  23.709
47773W        W48638   6.643  24.129  23.354
47774W        W48639   6.284  25.195  24.105
47775W        W48640   4.262  24.924  23.975
47776W        W48641   5.283  22.976  25.185
47777W        W48642   5.734  25.142  22.696
47778W        W48643   5.042  24.397  25.334
47779W        W48644   5.168  24.635  22.711
47780W        W48645   4.389  23.375  21.970
47781W        W48646   3.728  25.461  28.869
47782W        W48647   4.104  24.354  28.392
47783W        W48648   6.809  24.084  26.162
47784W        W48649   6.939  25.169  28.189
47785W        W48650   4.857  25.160  25.715
47786W        W48651   4.940  23.312  26.698
47787W        W48652   4.455  23.160  26.862
47788W        W48653   5.446  23.975  26.296
47789W        W48654   5.121  25.067  28.651
47790W        W48655   3.770  22.628  28.614
47791W        W48656   4.532  21.908  28.416
47792W        W48657   6.226  22.296  27.303
47793W        W48658   5.875  23.167  25.873
47794W        W48659   6.445  22.601  28.964
47795W        W48660   3.811  22.393  28.089
47796W        W48661   3.910  25.012  29.110
47797W        W48662   5.432  24.402  25.842
47798W        W48663   3.864  23.185  27.535
47799W        W48664   4.757  23.076  28.772
47800W        W48665   7.216  22.935  27.271
47801W        W48666   6.980  23.978  28.130
47802W        W48667   5.288  23.311  27.157
47803W        W48668   5.834  24.650  27.526
47804W        W48669   4.334  24.084  27.758
47805W        W48670   3.693  23.612  27.329
47806W        W48671   4.729  23.584  28.521
47807W        W48672   7.000  23.367  28.775
47808W        W48673   4.616  24.811  27.220
47809W        W48674   5.737  24.500  28.354
47810W        W48675   4.957  23.140  27.579
47811W        W48676   5.249  23.924  27.222
47812W        W48677   6.246  24.697  29.070
47813W        W48678   5.325  24.017  29.080
47814W        W48679   5.306  23.733  28.558
47815W        W48680   3.715  23.124  29.080
47816W        W48681   6.547  24.659  28.679
47817W        W48682   4.128  22.241  26.677
47818W        W48683   4.655  24.499  27.676
47819W        W48684   7.118  24.282  26.966
47820W        W48685   6.531  22.682  27.533
47821W        W48686   6.816  22.635  25.628
47822W        W48687   7.281  23.436  27.934
47823W        W48688   5.248  25.143  27.687
47824W        W48689   7.022  24.609  26.125
47825W        W48690   4.151  25.395  25.879
47826W        W48691   4.544  25.441  26.555
47827W        W48692   4.341  22.195  27.981
47828W        W48693   6.964  23.213  28.256
47829W        W48694   6.369  23.635  26.715
47830W        W48695   6.335  23.323  25.742
47831W        W48696   5.543  24.467  27.882
47832W        W48697   5.349  22.797  27.081
47833W        W48698   5.949  24.884  28.075
47834W        W48699   6.820  23.675  26.497
47835W        W48700   5.722  22.333  26.513
47836W        W48701   4.379  25.027  26.196
47837W        W48702   3.750  22.526  26.795
47838W        W48703   6.536  23.133  27.269
47839W        W48704   3.994  24.750  27.184
47840W        W48705   5.335  25.100  26.054
47841W        W48706   6.727  23.126  25.518
47842W        W48707   3.750  24.884  27.682
47843W        W48708   4.541  24.456  28.162
47844W        W48709   4.914  23.816  26.781
47845W        W48710   4.936  22.221  27.874
47846W        W48711   7.165  21.983  27.171
47847W        W48712   4.384  23.855  25.639
47848W        W48713   4.039  22.888  25.818
47849W        W48714   4.101  24.844  26.612
47850W        W48715   5.232  24.327  26.860
47851W        W48716   6.564  25.186  28.574
47852W        W48717   5.490  22.828  26.258
47853W        W48718   6.873  25.226  27.030
47854W        W48719   6.550  23.079  28.628
47855W        W48720   7.263  24.735  26.762
47856W        W48721   5.890  24.027  28.246
47857W        W48722   3.656  23.578  26.452
47858W        W48723   4.767  23.993  28.025
47859W        W48724   5.971  23.257  26.403
47860W        W48725   5.848  23.747  26.507
47861W        W48726   4.191  23.167  27.981
47862W        W48727   4.176  23.043  28.903
47863W        W48728   4.066  21.960  27.062
47864W        W48729   5.834  22.307  27.623
47865W        W48730   5.482  22.492  28.786
47866W        W48731   5.837  22.641  25.964
47867W        W48732   7.020  25.034  28.718
47868W        W48733   5.987  22.115  28.757
47869W        W48734   7.006  24.416  28.879
47870W        W48735   6.436  22.583  28.475
47871W        W48736   6.236  22.521  26.745
47872W        W48737   6.629  23.655  29.149
47873W        W48738   4.369  25.231  27.135
47874W        W48739   5.027  22.948  26.121
47875W        W48740   4.596  22.232  28.785
47876W        W48741   6.648  22.716  26.466
47877W        W48742   7.015  23.198  26.411
47878W        W48743   4.758  25.415  28.882
47879W        W48744   4.684  21.951  26.117
47880W        W48745   7.005  22.485  27.152
47881W        W48746   7.155  24.734  25.597
47882W        W48747   4.062  23.937  27.299
47883W        W48748   5.979  22.524  25.529
47884W        W48749   7.113  24.856  27.249
47885W        W48750   7.152  22.050  27.999
47886W        W48751   5.597  23.262  28.553
47887W        W48752   5.690  24.601  26.256
47888W        W48753   6.090  23.895  28.996
47889W        W48754   5.764  21.872  27.305
47890W        W48755   4.376  22.775  27.368
47891W        W48756   3.930  23.975  28.142
47892W        W48757   5.789  25.168  26.848
47893W        W48758   6.983  22.765  27.720
47894W        W48759   5.620  25.112  28.487
47895W        W48760   6.963  24.171  25.692
47896W        W48761   5.398  23.654  26.753
47897W        W48762   7.250  22.165  28.494
47898W        W48763   5.399  24.000  28.088
47899W        W48764   5.616  22.886  27.533
47900W        W48765   6.468  23.184  26.371
47901W        W48766   6.755  22.917  26.013
47902W        W48767   6.564  24.957  26.402
47903W        W48768   6.398  24.560  27.198
47904W        W48769   6.294  23.639  26.176
47905W        W48770   5.727  23.849  27.162
47906W        W48771   6.608  23.637  27.229
47907W        W48772   3.983  22.652  27.653
47908W        W48773   6.761  23.704  28.480
47909W        W48774   7.112  25.322  27.626
47910W        W48775   5.042  24.766  27.028
47911W        W48776   6.049  25.299  28.352
47912W        W48777   6.043  22.629  28.116
47913W        W48778   5.250  25.337  28.177
47914W        W48779   6.947  22.291  26.643
47915W        W48780   6.738  23.610  27.944
47916W        W48781   3.721  22.931  27.982
47917W        W48782   6.581  22.726  27.000
47918W        W48783   6.992  22.877  28.777
47919W        W48784   5.877  24.576  26.995
47920W        W48785   5.133  25.167  26.608
47921W        W48786   4.248  22.347  25.866
47922W        W48787   5.352  22.001  27.676
47923W        W48788   4.380  25.121  25.524
47924W        W48789   4.754  23.587  26.275
47925W        W48790   5.408  24.216  28.588
47926W        W48791   5.238  22.574  26.578
47927W        W48792   6.594  22.171  27.006
47928W        W48793   6.314  25.453  27.334
47929W        W48794   5.726  25.101  27.674
47930W        W48795   5.122  24.138  27.635
47931W        W48796   6.892  24.861  27.761
47932W        W48797   4.586  22.364  26.530
47933W        W48798   5.108  24.661  27.490
47934W        W48799   4.591  22.592  25.555
47935W        W48800   5.392  23.201  27.949
47936W        W48801   6.240  22.067  27.819
47937W        W48802   3.660  23.910  27.704
47938W        W48803   5.364  23.728  25.862
47939W        W48804   4.632  22.043  25.632
47940W        W48805   5.370  23.124  26.683
47941W        W48806   6.340  22.100  28.382
47942W        W48807   4.928  24.112  28.491
47943W        W48808   5.732  23.894  28.708
47944W        W48809   6.349  23.924  28.601
47945W        W48810   5.633  22.064  29.106
47946W        W48811   4.855  22.680  27.499
47947W        W48812   4.281  22.636  26.897
47948W        W48813   4.067  25.348  26.573
47949W        W48814   5.399  24.678  28.698
47950W        W48815   4.434  24.163  26.057
47951W        W48816   6.114  23.548  27.278
47952W        W48817   6.394  23.347  27.677
47953W        W48818   5.599  24.021  27.611
47954W        W48819   6.069  24.395  25.743
47955W        W48820   5.741  22.416  27.071
47956W        W48821   7.220  22.694  26.339
47957W        W48822   3.714  25.283  28.370
47958W        W48823   4.131  24.509  27.902
47959W        W48824   3.698  25.355  26.134
47960W        W48825   5.597  22.625  27.940
47961W        W48826   4.960  24.648  25.789
47962W        W48827   6.865  25.030  25.975
47963W        W48828   5.840  23.683  25.989
47964W        W48829   4.683  22.874  26.506
47965W        W48830   5.515  22.784  25.558
47966W        W48831   6.099  24.349  28.736
47967W        W48832   6.452  22.255  26.353
47968W        W48833   3.782  22.103  25.801
47969W        W48834   5.068  24.422  28.091
47970W        W48835   4.867  24.338  27.183
47971W        W48836   4.609  24.290  25.581
47972W        W48837   3.850  24.531  26.349
47973W        W48838   4.354  23.601  28.791
47974W        W48839   5.058  22.161  28.977
47975W        W48840   5.767  22.303  28.333
47976W        W48841   4.962  22.071  26.614
47977W        W48842   6.021  22.148  26.119
47978W        W48843   3.966  22.080  27.696
47979W        W48844   4.014  23.043  27.066
47980W        W48845   6.703  22.151  27.472
47981W        W48846   4.125  22.649  26.286
47982W        W48847   6.696  22.337  27.902
47983W        W48848   7.092  23.540  25.587
47984W        W48849   4.384  22.298  27.406
47985W        W48850   5.498  22.870  28.346
47986W        W48851   3.646  22.560  25.824
47987W        W48852   4.432  23.949  28.385
47988W        W48853   5.790  23.347  27.564
47989W        W48854   5.657  25.426  25.860
47990W        W48855   3.803  23.933  25.557
47991W        W48856   4.538  24.344  28.683
47992W        W48857   4.059  23.511  28.314
47993W        W48858   5.050  23.616  28.108
47994W        W48859   6.818  21.975  28.370
47995W        W48860   7.216  23.585  28.361
47996W        W48861   7.204  23.785  26.047
47997W        W48862   6.067  24.117  26.146
47998W        W48863   6.541  25.417  25.841
47999W        W48864   5.718  23.407  28.983
48000W        W48865   4.048  24.374  29.023
48001W        W48866   7.254  22.296  28.975
48002W        W48867   6.972  23.224  27.596
48003W        W48868   5.280  25.354  29.073
48004W        W48869   5.135  21.983  25.800
48005W        W48870   6.674  24.582  25.743
48006W        W48871   4.443  22.675  28.629
48007W        W48872   4.877  24.669  28.491
48008W        W48873   7.003  22.660  28.289
48009W        W48874   6.214  25.319  26.257
48010W        W48875   6.453  23.938  27.624
48011W        W48876   4.703  22.354  28.291
48012W        W48877   5.172  23.423  29.048
48013W        W48878   4.675  24.602  26.242
48014W        W48879   6.430  24.100  26.506
48015W        W48880   4.198  22.726  28.230
48016W        W48881   5.527  24.788  26.694
48017W        W48882   7.277  23.348  26.875
48018W        W48883   5.499  21.981  28.594
48019W        W48884   6.279  24.686  27.673
48020W        W48885   6.582  25.030  27.381
48021W        W48886   5.801  24.832  25.809
48022W        W48887   3.811  24.724  28.651
48023W        W48888   4.554  22.716  27.889
48024W        W48889   4.524  22.064  26.999
48025W        W48890   6.145  22.906  27.691
48026W        W48891   4.943  24.077  25.891
48027W        W48892   6.941  24.019  27.390
48028W        W48893   4.268  24.777  28.813
48029W        W48894   6.655  25.459  26.610
48030W        W48895   4.754  22.479  27.055
48031W        W48896   4.523  23.972  27.145
48032W        W48897   4.836  25.383  27.895
48033W        W48898   6.903  25.479  28.927
48034W        W48899   6.062  23.667  27.860
48035W        W48900   3.911  23.465  25.775
48036W        W48901   7.045  25.123  26.472
48037W        W48902   6.882  22.447  26.091
48038W        W48903   5.021  21.966  28.494
48039W        W48904   6.727  24.768  26.952
48040W        W48905   6.756  23.324  26.857
48041W        W48906   4.873  22.997  27.073
48042W        W48907   5.118  23.259  28.397
48043W        W48908   6.229  24.412  28.260
48044W        W48909   4.879  22.866  28.372
48045W        W48910   4.858  25.332  26.988
48046W        W48911   4.175  25.291  28.622
48047W        W48912   4.287  24.652  25.752
48048W        W48913   6.804  24.410  26.562
48049W        W48914   4.408  23.202  28.448
48050W        W48915   7.181  23.132  25.929
48051W        W48916   4.926  24.189  26.400
48052W        W48917   6.025  23.571  28.481
48053W        W48918   5.916  23.199  28.025
48054W        W48919   4.476  23.571  28.054
48055W        W48920   6.686  25.459  27.883
48056W        W48921   6.477  22.093  28.877
48057W        W48922   4.141  22.243  28.464
48058W        W48923   4.480  23.266  27.517
48059W        W48924   4.849  23.080  25.639
48060W        W48925   3.652  24.839  28.184
48061W        W48926   5.237  23.548  27.627
48062W        W48927   5.060  22.573  25.732
48063W        W48928   4.195  23.389  26.513
48064W        W48929   3.966  25.241  27.950
48065W        W48930   6.761  23.467  26.058
48066W        W48931   6.856  22.383  28.744
48067W        W48932   6.292  24.592  26.707
48068W        W48933   3.890  23.516  28.884
48069W        W48934   6.856  21.980  26.180
48070W        W48935   6.376  24.455  26.191
48071W        W48936   5.278  23.513  26.276
48072W        W48937   6.465  22.317  25.799
48073W        W48938   6.530  22.924  27.985
48074W        W48939   4.239  23.517  27.192
48075W        W48940   4.533  24.456  26.841
48076W        W48941   6.296  23.076  26.806
48077W        W48942   5.319  22.455  27.502
48078W        W48943   7.281  24.366  28.013
48079W        W48944   7.199  22.353  27.574
48080W        W48945   3.738  25.183  26.950
48081W        W48946   4.247  24.370  26.486
48082W        W48947   4.162  21.987  29.039
48083W        W48948   5.281  24.840  29.141
48084W        W48949   7.036  23.808  26.931
48085W        W48950   6.390  23.985  25.811
48086W        W48951   5.685  25.506  28.023
48087W        W48952   6.542  24.228  29.060
48088W        W48953   5.357  21.938  26.340
48089W        W48954   6.070  22.807  27.199
48090W        W48955   3.756  24.394  27.531
48091W        W48956   5.009  22.356  26.172
48092W        W48957   4.813  23.840  29.021
48093W        W48958   5.807  22.821  26.735
48094W        W48959   6.012  24.231  27.857
48095W        W48960   4.166  24.836  28.292
48096W        W48961   4.757  24.819  29.015
48097W        W48962   4.608  22.616  26.029
48098W        W48963   6.125  22.758  26.354
48099W        W48964   6.083  24.866  28.591
48100W        W48965   4.768  23.458  27.190
48101W        W48966   4.423  25.156  28.055
48102W        W48967   7.168  25.273  25.656
48103W        W48968   4.031  23.945  28.652
48104W        W48969   6.026  24.207  27.340
48105W        W48970   4.462  23.856  26.582
48106W        W48971   4.833  24.863  27.977
48107W        W48972   5.211  22.282  27.018
48108W        W48973   3.822  24.266  25.948
48109W        W48974   5.341  23.217  25.818
48110W        W48975   3.987  23.766  26.837
48111W        W48976   5.277  22.408  28.301
48112W        W48977   6.949  22.117  25.728
48113W        W48978   7.042  23.863  28.827
48114W        W48979   5.696  25.120  28.979
48115W        W48980   7.254  24.214  28.501
48116W        W48981   6.662  25.012  29.112
48117W        W48982   4.401  25.468  27.590
48118W        W48983   7.260  24.090  26.464
48119W        W48984   5.790  23.357  26.977
48120W        W48985   5.557  21.969  26.867
48121W        W48986   4.616  24.953  26.704
48122W        W48987   5.115  22.694  27.929
48123W        W48988   4.815  22.063  27.398
48124W        W48989   3.878  24.885  25.946
48125W        W48990   5.694  24.249  26.664
48126W        W48991   4.569  25.044  28.543
48127W        W48992   4.046  23.867  26.239
48128W        W48993   3.931  22.410  27.238
48129W        W48994   5.479  24.375  27.295
48130W        W48995   3.731  22.229  26.315
48131W        W48996   6.395  23.435  28.242
48132W        W48997   6.272  22.821  25.814
48133W        W48998   6.789  24.493  27.462
48134W        W48999   5.450  24.977  27.293
48135W        W49000   4.862  25.081  26.204
48136W        W49001   6.144  21.984  25.634
48137W        W49002   3.944  25.244  27.375
48138W        W49003   6.141  23.002  29.010
48139W        W49004   4.124  22.532  29.009
48140W        W49005   3.855  23.132  26.342
48141W        W49006   4.546  23.121  26.067
48142W        W49007   6.309  23.448  28.884
48143W        W49008   4.652  23.729  27.593
48144W        W49009   6.126  22.015  26.713
48145W        W49010   5.257  25.446  27.216
48146W        W49011   6.471  24.908  28.153
48147W        W49012   6.055  25.057  27.264
48148W        W49013   6.074  24.037  26.858
48149W        W49014   5.536  22.262  25.929
48150W        W49015   7.217  21.890  26.651
48151W        W49016   4.905  23.525  25.814
48152W        W49017   7.071  22.862  26.804
48153W        W49018   5.763  24.032  25.681
48154W        W49019   6.699  24.232  28.429
48155W        W49020   6.353  24.933  25.896
48156W        W49021   4.968  22.608  28.802
48157W        W49022   4.788  23.192  28.043
48158W        W49023   6.880  24.687  28.320
48159W        W49024   5.980  22.637  28.697
48160W        W49025   3.824  23.108  28.474
48161W        W49026   5.584  23.585  28.200
48162W        W49027   3.941  24.343  26.857
48163W        W49028   4.088  23.640  27.747
48164W        W49029   6.405  23.926  28.097
48165W        W49030   6.177  25.306  28.908
48166W        W49031   6.073  23.045  28.461
48167W        W49032   6.350  25.099  26.866
48168W        W49033   5.352  24.819  28.189
48169W        W49034   4.837  25.174  27.458
48170W        W49035   6.642  24.345  27.877
48171W        W49036   5.692  24.417  29.014
48172W        W49037   4.297  24.370  27.353
48173W        W49038   6.643  24.129  26.998
48174W        W49039   6.284  25.195  27.749
48175W        W49040   4.262  24.924  27.619
48176W        W49041   5.283  22.976  28.829
48177W        W49042   5.734  25.142  26.340
48178W        W49043   5.042  24.397  28.978
48179W        W49044   5.168  24.635  26.355
48180W        W49045   4.389  23.375  25.614
48181W        W49046   3.728  29.105   3.359
48182W        W49047   4.104  27.998   2.882
48183W        W49048   6.809  27.728   0.652
48184W        W49049   6.939  28.813   2.679
48185W        W49050   4.857  28.804   0.205
48186W        W49051   4.940  26.956   1.188
48187W        W49052   4.455  26.804   1.352
48188W        W49053   5.446  27.619   0.786
48189W        W49054   5.121  28.711   3.141
48190W        W49055   3.770  26.272   3.104
48191W        W49056   4.532  25.552   2.906
48192W        W49057   6.226  25.940   1.793
48193W        W49058   5.875  26.811   0.363
48194W        W49059   6.445  26.245   3.454
48195W        W49060   3.811  26.037   2.579
48196W        W49061   3.910  28.656   3.600
48197W        W49062   5.432  28.046   0.332
48198W        W49063   3.864  26.829   2.025
48199W        W49064   4.757  26.720   3.262
48200W        W49065   7.216  26.579   1.761
48201W        W49066   6.980  27.622   2.620
48202W        W49067   5.288  26.955   1.647
48203W        W49068   5.834  28.294   2.016
48204W        W49069   4.334  27.728   2.248
48205W        W49070   3.693  27.256   1.819
48206W        W49071   4.729  27.228   3.011
48207W        W49072   7.000  27.011   3.265
48208W        W49073   4.616  28.455   1.710
48209W        W49074   5.737  28.144   2.844
48210W        W49075   4.957  26.784   2.069
48211W        W49076   5.249  27.568   1.712
48212W        W49077   6.246  28.341   3.560
48213W        W49078   5.325  27.661   3.570
48214W        W49079   5.306  27.377   3.048
48215W        W49080   3.715  26.768   3.570
48216W        W49081   6.547  28.303   3.169
48217W        W49082   4.128  25.885   1.167
48218W        W49083   4.655  28.143   2.166
48219W        W49084   7.118  27.926   1.456
48220W        W49085   6.531  26.326   2.023
48221W        W49086   6.816  26.279   0.118
48222W        W49087   7.281  27.080   2.424
48223W        W49088   5.248  28.787   2.177
48224W        W49089   7.022  28.253   0.615
48225W        W49090   4.151  29.039   0.369
48226W        W49091   4.544  29.085   1.045
48227W        W49092   4.341  25.839   2.471
48228W        W49093   6.964  26.857   2.746
48229W        W49094   6.369  27.279   1.205
48230W        W49095   6.335  26.967   0.232
48231W        W49096   5.543  28.111   2.372
48232W        W49097   5.349  26.441   1.571
48233W        W49098   5.949  28.528   2.565
48234W        W49099   6.820  27.319   0.987
48235W        W49100   5.722  25.977   1.003
48236W        W49101   4.379  28.671   0.686
48237W        W49102   3.750  26.170   1.285
48238W        W49103   6.536  26.777   1.759
48239W        W49104   3.994  28.394   1.674
48240W        W49105   5.335  28.744   0.544
48241W        W49106   6.727  26.770   0.008
48242W        W49107   3.750  28.528   2.172
48243W        W49108   4.541  28.100   2.652
48244W        W49109   4.914  27.460   1.271
48245W        W49110   4.936  25.865   2.364
48246W        W49111   7.165  25.627   1.661
48247W        W49112   4.384  27.499   0.129
48248W        W49113   4.039  26.532   0.308
48249W        W49114   4.101  28.488   1.102
48250W        W49115   5.232  27.971   1.350
48251W        W49116   6.564  28.830   3.064
48252W        W49117   5.490  26.472   0.748
48253W        W49118   6.873  28.870   1.520
48254W        W49119   6.550  26.723   3.118
48255W        W49120   7.263  28.379   1.252
48256W        W49121   5.890  27.671   2.736
48257W        W49122   3.656  27.222   0.942
48258W        W49123   4.767  27.637   2.515
48259W        W49124   5.971  26.901   0.893
48260W        W49125   5.848  27.391   0.997
48261W        W49126   4.191  26.811   2.471
48262W        W49127   4.176  26.687   3.393
48263W        W49128   4.066  25.604   1.552
48264W        W49129   5.834  25.951   2.113
48265W        W49130   5.482  26.136   3.276
48266W        W49131   5.837  26.285   0.454
48267W        W49132   7.020  28.678   3.208
48268W        W49133   5.987  25.759   3.247
48269W        W49134   7.006  28.060   3.369
48270W        W49135   6.436  26.227   2.965
48271W        W49136   6.236  26.165   1.235
48272W        W49137   6.629  27.299   3.639
48273W        W49138   4.369  28.875   1.625
48274W        W49139   5.027  26.592   0.611
48275W        W49140   4.596  25.876   3.275
48276W        W49141   6.648  26.360   0.956
48277W        W49142   7.015  26.842   0.901
48278W        W49143   4.758  29.059   3.372
48279W        W49144   4.684  25.595   0.607
48280W        W49145   7.005  26.129   1.642
48281W        W49146   7.155  28.378   0.087
48282W        W49147   4.062  27.581   1.789
48283W        W49148   5.979  26.168   0.019
48284W        W49149   7.113  28.500   1.739
48285W        W49150   7.152  25.694   2.489
48286W        W49151   5.597  26.906   3.043
48287W        W49152   5.690  28.245   0.746
48288W        W49153   6.090  27.539   3.486
48289W        W49154   5.764  25.516   1.795
48290W        W49155   4.376  26.419   1.858
48291W        W49156   3.930  27.619   2.632
48292W        W49157   5.789  28.812   1.338
48293W        W49158   6.983  26.409   2.210
48294W        W49159   5.620  28.756   2.977
48295W        W49160   6.963  27.815   0.182
48296W        W49161   5.398  27.298   1.243
48297W        W49162   7.250  25.809   2.984
48298W        W49163   5.399  27.644   2.578
48299W        W49164   5.616  26.530   2.023
48300W        W49165   6.468  26.828   0.861
48301W        W49166   6.755  26.561   0.503
48302W        W49167   6.564  28.601   0.892
48303W        W49168   6.398  28.204   1.688
48304W        W49169   6.294  27.283   0.666
48305W        W49170   5.727  27.493   1.652
48306W        W49171   6.608  27.281   1.719
48307W        W49172   3.983  26.296   2.143
48308W        W49173   6.761  27.348   2.970
48309W        W49174   7.112  28.966   2.116
48310W        W49175   5.042  28.410   1.518
48311W        W49176   6.049  28.943   2.842
48312W        W49177   6.043  26.273   2.606
48313W        W49178   5.250  28.981   2.667
48314W        W49179   6.947  25.935   1.133
48315W        W49180   6.738  27.254   2.434
48316W        W49181   3.721  26.575   2.472
48317W        W49182   6.581  26.370   1.490
48318W        W49183   6.992  26.521   3.267
48319W        W49184   5.877  28.220   1.485
48320W        W49185   5.133  28.811   1.098
48321W        W49186   4.248  25.991   0.356
48322W        W49187   5.352  25.645   2.166
48323W        W49188   4.380  28.765   0.014
48324W        W49189   4.754  27.231   0.765
48325W        W49190   5.408  27.860   3.078
48326W        W49191   5.238  26.218   1.068
48327W        W49192   6.594  25.815   1.496
48328W        W49193   6.314  29.097   1.824
48329W        W49194   5.726  28.745   2.164
48330W        W49195   5.122  27.782   2.125
48331W        W49196   6.892  28.505   2.251
48332W        W49197   4.586  26.008   1.020
48333W        W49198   5.108  28.305   1.980
48334W        W49199   4.591  26.236   0.045
48335W        W49200   5.392  26.845   2.439
48336W        W49201   6.240  25.711   2.309
48337W        W49202   3.660  27.554   2.194
48338W        W49203   5.364  27.372   0.352
48339W        W49204   4.632  25.687   0.122
48340W        W49205   5.370  26.768   1.173
48341W        W49206   6.340  25.744   2.872
48342W        W49207   4.928  27.756   2.981
48343W        W49208   5.732  27.538   3.198
48344W        W49209   6.349  27.568   3.091
48345W        W49210   5.633  25.708   3.596
48346W        W49211   4.855  26.324   1.989
48347W        W49212   4.281  26.280   1.387
48348W        W49213   4.067  28.992   1.063
48349W        W49214   5.399  28.322   3.188
48350W        W49215   4.434  27.807   0.547
48351W        W49216   6.114  27.192   1.768
48352W        W49217   6.394  26.991   2.167
48353W        W49218   5.599  27.665   2.101
48354W        W49219   6.069  28.039   0.233
48355W        W49220   5.741  26.060   1.561
48356W        W49221   7.220  26.338   0.829
48357W        W49222   3.714  28.927   2.860
48358W        W49223   4.131  28.153   2.392
48359W        W49224   3.698  28.999   0.624
48360W        W49225   5.597  26.269   2.430
48361W        W49226   4.960  28.292   0.279
48362W        W49227   6.865  28.674   0.465
48363W        W49228   5.840  27.327   0.479
48364W        W49229   4.683  26.518   0.996
48365W        W49230   5.515  26.428   0.048
48366W        W49231   6.099  27.993   3.226
48367W        W49232   6.452  25.899   0.843
48368W        W49233   3.782  25.747   0.291
48369W        W49234   5.068  28.066   2.581
48370W        W49235   4.867  27.982   1.673
48371W        W49236   4.609  27.934   0.071
48372W        W49237   3.850  28.175   0.839
48373W        W49238   4.354  27.245   3.281
48374W        W49239   5.058  25.805   3.467
48375W        W49240   5.767  25.947   2.823
48376W        W49241   4.962  25.715   1.104
48377W        W49242   6.021  25.792   0.609
48378W        W49243   3.966  25.724   2.186
48379W        W49244   4.014  26.687   1.556
48380W        W49245   6.703  25.795   1.962
48381W        W49246   4.125  26.293   0.776
48382W        W49247   6.696  25.981   2.392
48383W        W49248   7.092  27.184   0.077
48384W        W49249   4.384  25.942   1.896
48385W        W49250   5.498  26.514   2.836
48386W        W49251   3.646  26.204   0.314
48387W        W49252   4.432  27.593   2.875
48388W        W49253   5.790  26.991   2.054
48389W        W49254   5.657  29.070   0.350
48390W        W49255   3.803  27.577   0.047
48391W        W49256   4.538  27.988   3.173
48392W        W49257   4.059  27.155   2.804
48393W        W49258   5.050  27.260   2.598
48394W        W49259   6.818  25.619   2.860
48395W        W49260   7.216  27.229   2.851
48396W        W49261   7.204  27.429   0.537
48397W        W49262   6.067  27.761   0.636
48398W        W49263   6.541  29.061   0.331
48399W        W49264   5.718  27.051   3.473
48400W        W49265   4.048  28.018   3.513
48401W        W49266   7.254  25.940   3.465
48402W        W49267   6.972  26.868   2.086
48403W        W49268   5.280  28.998   3.563
48404W        W49269   5.135  25.627   0.290
48405W        W49270   6.674  28.226   0.233
48406W        W49271   4.443  26.319   3.119
48407W        W49272   4.877  28.313   2.981
48408W        W49273   7.003  26.304   2.779
48409W        W49274   6.214  28.963   0.747
48410W        W49275   6.453  27.582   2.114
48411W        W49276   4.703  25.998   2.781
48412W        W49277   5.172  27.067   3.538
48413W        W49278   4.675  28.246   0.732
48414W        W49279   6.430  27.744   0.996
48415W        W49280   4.198  26.370   2.720
48416W        W49281   5.527  28.432   1.184
48417W        W49282   7.277  26.992   1.365
48418W        W49283   5.499  25.625   3.084
48419W        W49284   6.279  28.330   2.163
48420W        W49285   6.582  28.674   1.871
48421W        W49286   5.801  28.476   0.299
48422W        W49287   3.811  28.368   3.141
48423W        W49288   4.554  26.360   2.379
48424W        W49289   4.524  25.708   1.489
48425W        W49290   6.145  26.550   2.181
48426W        W49291   4.943  27.721   0.381
48427W        W49292   6.941  27.663   1.880
48428W        W49293   4.268  28.421   3.303
48429W        W49294   6.655  29.103   1.100
48430W        W49295   4.754  26.123   1.545
48431W        W49296   4.523  27.616   1.635
48432W        W49297   4.836  29.027   2.385
48433W        W49298   6.903  29.123   3.417
48434W        W49299   6.062  27.311   2.350
48435W        W49300   3.911  27.109   0.265
48436W        W49301   7.045  28.767   0.962
48437W        W49302   6.882  26.091   0.581
48438W        W49303   5.021  25.610   2.984
48439W        W49304   6.727  28.412   1.442
48440W        W49305   6.756  26.968   1.347
48441W        W49306   4.873  26.641   1.563
48442W        W49307   5.118  26.903   2.887
48443W        W49308   6.229  28.056   2.750
48444W        W49309   4.879  26.510   2.862
48445W        W49310   4.858  28.976   1.478
48446W        W49311   4.175  28.935   3.112
48447W        W49312   4.287  28.296   0.242
48448W        W49313   6.804  28.054   1.052
48449W        W49314   4.408  26.846   2.938
48450W        W49315   7.181  26.776   0.419
48451W        W49316   4.926  27.833   0.890
48452W        W49317   6.025  27.215   2.971
48453W        W49318   5.916  26.843   2.515
48454W        W49319   4.476  27.215   2.544
48455W        W49320   6.686  29.103   2.373
48456W        W49321   6.477  25.737   3.367
48457W        W49322   4.141  25.887   2.954
48458W        W49323   4.480  26.910   2.007
48459W        W49324   4.849  26.724   0.129
48460W        W49325   3.652  28.483   2.674
48461W        W49326   5.237  27.192   2.117
48462W        W49327   5.060  26.217   0.222
48463W        W49328   4.195  27.033   1.003
48464W        W49329   3.966  28.885   2.440
48465W        W49330   6.761  27.111   0.548
48466W        W49331   6.856  26.027   3.234
48467W        W49332   6.292  28.236   1.197
48468W        W49333   3.890  27.160   3.374
48469W        W49334   6.856  25.624   0.670
48470W        W49335   6.376  28.099   0.681
48471W        W49336   5.278  27.157   0.766
48472W        W49337   6.465  25.961   0.289
48473W        W49338   6.530  26.568   2.475
48474W        W49339   4.239  27.161   1.682
48475W        W49340   4.533  28.100   1.331
48476W        W49341   6.296  26.720   1.296
48477W        W49342   5.319  26.099   1.992
48478W        W49343   7.281  28.010   2.503
48479W        W49344   7.199  25.997   2.064
48480W        W49345   3.738  28.827   1.440
48481W        W49346   4.247  28.014   0.976
48482W        W49347   4.162  25.631   3.529
48483W        W49348   5.281  28.484   3.631
48484W        W49349   7.036  27.452   1.421
48485W        W49350   6.390  27.629   0.301
48486W        W49351   5.685  29.150   2.513
48487W        W49352   6.542  27.872   3.550
48488W        W49353   5.357  25.582   0.830
48489W        W49354   6.070  26.451   1.689
48490W        W49355   3.756  28.038   2.021
48491W        W49356   5.009  26.000   0.662
48492W        W49357   4.813  27.484   3.511
48493W        W49358   5.807  26.465   1.225
48494W        W49359   6.012  27.875   2.347
48495W        W49360   4.166  28.480   2.782
48496W        W49361   4.757  28.463   3.505
48497W        W49362   4.608  26.260   0.519
48498W        W49363   6.125  26.402   0.844
48499W        W49364   6.083  28.510   3.081
48500W        W49365   4.768  27.102   1.680
48501W        W49366   4.423  28.800   2.545
48502W        W49367   7.168  28.917   0.146
48503W        W49368   4.031  27.589   3.142
48504W        W49369   6.026  27.851   1.830
48505W        W49370   4.462  27.500   1.072
48506W        W49371   4.833  28.507   2.467
48507W        W49372   5.211  25.926   1.508
48508W        W49373   3.822  27.910   0.438
48509W        W49374   5.341  26.861   0.308
48510W        W49375   3.987  27.410   1.327
48511W        W49376   5.277  26.052   2.791
48512W        W49377   6.949  25.761   0.218
48513W        W49378   7.042  27.507   3.317
48514W        W49379   5.696  28.764   3.469
48515W        W49380   7.254  27.858   2.991
48516W        W49381   6.662  28.656   3.602
48517W        W49382   4.401  29.112   2.080
48518W        W49383   7.260  27.734   0.954
48519W        W49384   5.790  27.001   1.467
48520W        W49385   5.557  25.613   1.357
48521W        W49386   4.616  28.597   1.194
48522W        W49387   5.115  26.338   2.419
48523W        W49388   4.815  25.707   1.888
48524W        W49389   3.878  28.529   0.436
48525W        W49390   5.694  27.893   1.154
48526W        W49391   4.569  28.688   3.033
48527W        W49392   4.046  27.511   0.729
48528W        W49393   3.931  26.054   1.728
48529W        W49394   5.479  28.019   1.785
48530W        W49395   3.731  25.873   0.805
48531W        W49396   6.395  27.079   2.732
48532W        W49397   6.272  26.465   0.304
48533W        W49398   6.789  28.137   1.952
48534W        W49399   5.450  28.621   1.783
48535W        W49400   4.862  28.725   0.694
48536W        W49401   6.144  25.628   0.124
48537W        W49402   3.944  28.888   1.865
48538W        W49403   6.141  26.646   3.500
48539W        W49404   4.124  26.176   3.499
48540W        W49405   3.855  26.776   0.832
48541W        W49406   4.546  26.765   0.557
48542W        W49407   6.309  27.092   3.374
48543W        W49408   4.652  27.373   2.083
48544W        W49409   6.126  25.659   1.203
48545W        W49410   5.257  29.090   1.706
48546W        W49411   6.471  28.552   2.643
48547W        W49412   6.055  28.701   1.754
48548W        W49413   6.074  27.681   1.348
48549W        W49414   5.536  25.906   0.419
48550W        W49415   7.217  25.534   1.141
48551W        W49416   4.905  27.169   0.304
48552W        W49417   7.071  26.506   1.294
48553W        W49418   5.763  27.676   0.171
48554W        W49419   6.699  27.876   2.919
48555W        W49420   6.353  28.577   0.386
48556W        W49421   4.968  26.252   3.292
48557W        W49422   4.788  26.836   2.533
48558W        W49423   6.880  28.331   2.810
48559W        W49424   5.980  26.281   3.187
48560W        W49425   3.824  26.752   2.964
48561W        W49426   5.584  27.229   2.690
48562W        W49427   3.941  27.987   1.347
48563W        W49428   4.088  27.284   2.237
48564W        W49429   6.405  27.570   2.587
48565W        W49430   6.177  28.950   3.398
48566W        W49431   6.073  26.689   2.951
48567W        W49432   6.350  28.743   1.356
48568W        W49433   5.352  28.463   2.679
48569W        W49434   4.837  28.818   1.948
48570W        W49435   6.642  27.989   2.367
48571W        W49436   5.692  28.061   3.504
48572W        W49437   4.297  28.014   1.843
48573W        W49438   6.643  27.773   1.488
48574W        W49439   6.284  28.839   2.239
48575W        W49440   4.262  28.568   2.109
48576W        W49441   5.283  26.620   3.319
48577W        W49442   5.734  28.786   0.830
48578W        W49443   5.042  28.041   3.468
48579W        W49444   5.168  28.279   0.845
48580W        W49445   4.389  27.019   0.104
48581W        W49446   3.728  29.105   7.003
48582W        W49447   4.104  27.998   6.526
48583W        W49448   6.809  27.728   4.296
48584W        W49449   6.939  28.813   6.323
48585W        W49450   4.857  28.804   3.849
48586W        W49451   4.940  26.956   4.832
48587W        W49452   4.455  26.804   4.996
48588W        W49453   5.446  27.619   4.430
48589W        W49454   5.121  28.711   6.785
48590W        W49455   3.770  26.272   6.748
48591W        W49456   4.532  25.552   6.550
48592W        W49457   6.226  25.940   5.437
48593W        W49458   5.875  26.811   4.007
48594W        W49459   6.445  26.245   7.098
48595W        W49460   3.811  26.037   6.223
48596W        W49461   3.910  28.656   7.244
48597W        W49462   5.432  28.046   3.976
48598W        W49463   3.864  26.829   5.669
48599W        W49464   4.757  26.720   6.906
48600W        W49465   7.216  26.579   5.405
48601W        W49466   6.980  27.622   6.264
48602W        W49467   5.288  26.955   5.291
48603W        W49468   5.834  28.294   5.660
48604W        W49469   4.334  27.728   5.892
48605W        W49470   3.693  27.256   5.463
48606W        W49471   4.729  27.228   6.655
48607W        W49472   7.000  27.011   6.909
48608W        W49473   4.616  28.455   5.354
48609W        W49474   5.737  28.144   6.488
48610W        W49475   4.957  26.784   5.713
48611W        W49476   5.249  27.568   5.356
48612W        W49477   6.246  28.341   7.204
48613W        W49478   5.325  27.661   7.214
48614W        W49479   5.306  27.377   6.692
48615W        W49480   3.715  26.768   7.214
48616W        W49481   6.547  28.303   6.813
48617W        W49482   4.128  25.885   4.811
48618W        W49483   4.655  28.143   5.810
48619W        W49484   7.118  27.926   5.100
48620W        W49485   6.531  26.326   5.667
48621W        W49486   6.816  26.279   3.762
48622W        W49487   7.281  27.080   6.068
48623W        W49488   5.248  28.787   5.821
48624W        W49489   7.022  28.253   4.259
48625W        W49490   4.151  29.039   4.013
48626W        W49491   4.544  29.085   4.689
48627W        W49492   4.341  25.839   6.115
48628W        W49493   6.964  26.857   6.390
48629W        W49494   6.369  27.279   4.849
48630W        W49495   6.335  26.967   3.876
48631W        W49496   5.543  28.111   6.016
48632W        W49497   5.349  26.441   5.215
48633W        W49498   5.949  28.528   6.209
48634W        W49499   6.820  27.319   4.631
48635W        W49500   5.722  25.977   4.647
48636W        W49501   4.379  28.671   4.330
48637W        W49502   3.750  26.170   4.929
48638W        W49503   6.536  26.777   5.403
48639W        W49504   3.994  28.394   5.318
48640W        W49505   5.335  28.744   4.188
48641W        W49506   6.727  26.770   3.652
48642W        W49507   3.750  28.528   5.816
48643W        W49508   4.541  28.100   6.296
48644W        W49509   4.914  27.460   4.915
48645W        W49510   4.936  25.865   6.008
48646W        W49511   7.165  25.627   5.305
48647W        W49512   4.384  27.499   3.773
48648W        W49513   4.039  26.532   3.952
48649W        W49514   4.101  28.488   4.746
48650W        W49515   5.232  27.971   4.994
48651W        W49516   6.564  28.830   6.708
48652W        W49517   5.490  26.472   4.392
48653W        W49518   6.873  28.870   5.164
48654W        W49519   6.550  26.723   6.762
48655W        W49520   7.263  28.379   4.896
48656W        W49521   5.890  27.671   6.380
48657W        W49522   3.656  27.222   4.586
48658W        W49523   4.767  27.637   6.159
48659W        W49524   5.971  26.901   4.537
48660W        W49525   5.848  27.391   4.641
48661W        W49526   4.191  26.811   6.115
48662W        W49527   4.176  26.687   7.037
48663W        W49528   4.066  25.604   5.196
48664W        W49529   5.834  25.951   5.757
48665W        W49530   5.482  26.136   6.920
48666W        W49531   5.837  26.285   4.098
48667W        W49532   7.020  28.678   6.852
48668W        W49533   5.987  25.759   6.891
48669W        W49534   7.006  28.060   7.013
48670W        W49535   6.436  26.227   6.609
48671W        W49536   6.236  26.165   4.879
48672W        W49537   6.629  27.299   7.283
48673W        W49538   4.369  28.875   5.269
48674W        W49539   5.027  26.592   4.255
48675W        W49540   4.596  25.876   6.919
48676W        W49541   6.648  26.360   4.600
48677W        W49542   7.015  26.842   4.545
48678W        W49543   4.758  29.059   7.016
48679W        W49544   4.684  25.595   4.251
48680W        W49545   7.005  26.129   5.286
48681W        W49546   7.155  28.378   3.731
48682W        W49547   4.062  27.581   5.433
48683W        W49548   5.979  26.168   3.663
48684W        W49549   7.113  28.500   5.383
48685W        W49550   7.152  25.694   6.133
48686W        W49551   5.597  26.906   6.687
48687W        W49552   5.690  28.245   4.390
48688W        W49553   6.090  27.539   7.130
48689W        W49554   5.764  25.516   5.439
48690W        W49555   4.376  26.419   5.502
48691W        W49556   3.930  27.619   6.276
48692W        W49557   5.789  28.812   4.982
48693W        W49558   6.983  26.409   5.854
48694W        W49559   5.620  28.756   6.621
48695W        W49560   6.963  27.815   3.826
48696W        W49561   5.398  27.298   4.887
48697W        W49562   7.250  25.809   6.628
48698W        W49563   5.399  27.644   6.222
48699W        W49564   5.616  26.530   5.667
48700W        W49565   6.468  26.828   4.505
48701W        W49566   6.755  26.561   4.147
48702W        W49567   6.564  28.601   4.536
48703W        W49568   6.398  28.204   5.332
48704W        W49569   6.294  27.283   4.310
48705W        W49570   5.727  27.493   5.296
48706W        W49571   6.608  27.281   5.363
48707W        W49572   3.983  26.296   5.787
48708W        W49573   6.761  27.348   6.614
48709W        W49574   7.112  28.966   5.760
48710W        W49575   5.042  28.410   5.162
48711W        W49576   6.049  28.943   6.486
48712W        W49577   6.043  26.273   6.250
48713W        W49578   5.250  28.981   6.311
48714W        W49579   6.947  25.935   4.777
48715W        W49580   6.738  27.254   6.078
48716W        W49581   3.721  26.575   6.116
48717W        W49582   6.581  26.370   5.134
48718W        W49583   6.992  26.521   6.911
48719W        W49584   5.877  28.220   5.129
48720W        W49585   5.133  28.811   4.742
48721W        W49586   4.248  25.991   4.000
48722W        W49587   5.352  25.645   5.810
48723W        W49588   4.380  28.765   3.658
48724W        W49589   4.754  27.231   4.409
48725W        W49590   5.408  27.860   6.722
48726W        W49591   5.238  26.218   4.712
48727W        W49592   6.594  25.815   5.140
48728W        W49593   6.314  29.097   5.468
48729W        W49594   5.726  28.745   5.808
48730W        W49595   5.122  27.782   5.769
48731W        W49596   6.892  28.505   5.895
48732W        W49597   4.586  26.008   4.664
48733W        W49598   5.108  28.305   5.624
48734W        W49599   4.591  26.236   3.689
48735W        W49600   5.392  26.845   6.083
48736W        W49601   6.240  25.711   5.953
48737W        W49602   3.660  27.554   5.838
48738W        W49603   5.364  27.372   3.996
48739W        W49604   4.632  25.687   3.766
48740W        W49605   5.370  26.768   4.817
48741W        W49606   6.340  25.744   6.516
48742W        W49607   4.928  27.756   6.625
48743W        W49608   5.732  27.538   6.842
48744W        W49609   6.349  27.568   6.735
48745W        W49610   5.633  25.708   7.240
48746W        W49611   4.855  26.324   5.633
48747W        W49612   4.281  26.280   5.031
48748W        W49613   4.067  28.992   4.707
48749W        W49614   5.399  28.322   6.832
48750W        W49615   4.434  27.807   4.191
48751W        W49616   6.114  27.192   5.412
48752W        W49617   6.394  26.991   5.811
48753W        W49618   5.599  27.665   5.745
48754W        W49619   6.069  28.039   3.877
48755W        W49620   5.741  26.060   5.205
48756W        W49621   7.220  26.338   4.473
48757W        W49622   3.714  28.927   6.504
48758W        W49623   4.131  28.153   6.036
48759W        W49624   3.698  28.999   4.268
48760W        W49625   5.597  26.269   6.074
48761W        W49626   4.960  28.292   3.923
48762W        W49627   6.865  28.674   4.109
48763W        W49628   5.840  27.327   4.123
48764W        W49629   4.683  26.518   4.640
48765W        W49630   5.515  26.428   3.692
48766W        W49631   6.099  27.993   6.870
48767W        W49632   6.452  25.899   4.487
48768W        W49633   3.782  25.747   3.935
48769W        W49634   5.068  28.066   6.225
48770W        W49635   4.867  27.982   5.317
48771W        W49636   4.609  27.934   3.715
48772W        W49637   3.850  28.175   4.483
48773W        W49638   4.354  27.245   6.925
48774W        W49639   5.058  25.805   7.111
48775W        W49640   5.767  25.947   6.467
48776W        W49641   4.962  25.715   4.748
48777W        W49642   6.021  25.792   4.253
48778W        W49643   3.966  25.724   5.830
48779W        W49644   4.014  26.687   5.200
48780W        W49645   6.703  25.795   5.606
48781W        W49646   4.125  26.293   4.420
48782W        W49647   6.696  25.981   6.036
48783W        W49648   7.092  27.184   3.721
48784W        W49649   4.384  25.942   5.540
48785W        W49650   5.498  26.514   6.480
48786W        W49651   3.646  26.204   3.958
48787W        W49652   4.432  27.593   6.519
48788W        W49653   5.790  26.991   5.698
48789W        W49654   5.657  29.070   3.994
48790W        W49655   3.803  27.577   3.691
48791W        W49656   4.538  27.988   6.817
48792W        W49657   4.059  27.155   6.448
48793W        W49658   5.050  27.260   6.242
48794W        W49659   6.818  25.619   6.504
48795W        W49660   7.216  27.229   6.495
48796W        W49661   7.204  27.429   4.181
48797W        W49662   6.067  27.761   4.280
48798W        W49663   6.541  29.061   3.975
48799W        W49664   5.718  27.051   7.117
48800W        W49665   4.048  28.018   7.157
48801W        W49666   7.254  25.940   7.109
48802W        W49667   6.972  26.868   5.730
48803W        W49668   5.280  28.998   7.207
48804W        W49669   5.135  25.627   3.934
48805W        W49670   6.674  28.226   3.877
48806W        W49671   4.443  26.319   6.763
48807W        W49672   4.877  28.313   6.625
48808W        W49673   7.003  26.304   6.423
48809W        W49674   6.214  28.963   4.391
48810W        W49675   6.453  27.582   5.758
48811W        W49676   4.703  25.998   6.425
48812W        W49677   5.172  27.067   7.182
48813W        W49678   4.675  28.246   4.376
48814W        W49679   6.430  27.744   4.640
48815W        W49680   4.198  26.370   6.364
48816W        W49681   5.527  28.432   4.828
48817W        W49682   7.277  26.992   5.009
48818W        W49683   5.499  25.625   6.728
48819W        W49684   6.279  28.330   5.807
48820W        W49685   6.582  28.674   5.515
48821W        W49686   5.801  28.476   3.943
48822W        W49687   3.811  28.368   6.785
48823W        W49688   4.554  26.360   6.023
48824W        W49689   4.524  25.708   5.133
48825W        W49690   6.145  26.550   5.825
48826W        W49691   4.943  27.721   4.025
48827W        W49692   6.941  27.663   5.524
48828W        W49693   4.268  28.421   6.947
48829W        W49694   6.655  29.103   4.744
48830W        W49695   4.754  26.123   5.189
48831W        W49696   4.523  27.616   5.279
48832W        W49697   4.836  29.027   6.029
48833W        W49698   6.903  29.123   7.061
48834W        W49699   6.062  27.311   5.994
48835W        W49700   3.911  27.109   3.909
48836W        W49701   7.045  28.767   4.606
48837W        W49702   6.882  26.091   4.225
48838W        W49703   5.021  25.610   6.628
48839W        W49704   6.727  28.412   5.086
48840W        W49705   6.756  26.968   4.991
48841W        W49706   4.873  26.641   5.207
48842W        W49707   5.118  26.903   6.531
48843W        W49708   6.229  28.056   6.394
48844W        W49709   4.879  26.510   6.506
48845W        W49710   4.858  28.976   5.122
48846W        W49711   4.175  28.935   6.756
48847W        W49712   4.287  28.296   3.886
48848W        W49713   6.804  28.054   4.696
48849W        W49714   4.408  26.846   6.582
48850W        W49715   7.181  26.776   4.063
48851W        W49716   4.926  27.833   4.534
48852W        W49717   6.025  27.215   6.615
48853W        W49718   5.916  26.843   6.159
48854W        W49719   4.476  27.215   6.188
48855W        W49720   6.686  29.103   6.017
48856W        W49721   6.477  25.737   7.011
48857W        W49722   4.141  25.887   6.598
48858W        W49723   4.480  26.910   5.651
48859W        W49724   4.849  26.724   3.773
48860W        W49725   3.652  28.483   6.318
48861W        W49726   5.237  27.192   5.761
48862W        W49727   5.060  26.217   3.866
48863W        W49728   4.195  27.033   4.647
48864W        W49729   3.966  28.885   6.084
48865W        W49730   6.761  27.111   4.192
48866W        W49731   6.856  26.027   6.878
48867W        W49732   6.292  28.236   4.841
48868W        W49733   3.890  27.160   7.018
48869W        W49734   6.856  25.624   4.314
48870W        W49735   6.376  28.099   4.325
48871W        W49736   5.278  27.157   4.410
48872W        W49737   6.465  25.961   3.933
48873W        W49738   6.530  26.568   6.119
48874W        W49739   4.239  27.161   5.326
48875W        W49740   4.533  28.100   4.975
48876W        W49741   6.296  26.720   4.940
48877W        W49742   5.319  26.099   5.636
48878W        W49743   7.281  28.010   6.147
48879W        W49744   7.199  25.997   5.708
48880W        W49745   3.738  28.827   5.084
48881W        W49746   4.247  28.014   4.620
48882W        W49747   4.162  25.631   7.173
48883W        W49748   5.281  28.484   7.275
48884W        W49749   7.036  27.452   5.065
48885W        W49750   6.390  27.629   3.945
48886W        W49751   5.685  29.150   6.157
48887W        W49752   6.542  27.872   7.194
48888W        W49753   5.357  25.582   4.474
48889W        W49754   6.070  26.451   5.333
48890W        W49755   3.756  28.038   5.665
48891W        W49756   5.009  26.000   4.306
48892W        W49757   4.813  27.484   7.155
48893W        W49758   5.807  26.465   4.869
48894W        W49759   6.012  27.875   5.991
48895W        W49760   4.166  28.480   6.426
48896W        W49761   4.757  28.463   7.149
48897W        W49762   4.608  26.260   4.163
48898W        W49763   6.125  26.402   4.488
48899W        W49764   6.083  28.510   6.725
48900W        W49765   4.768  27.102   5.324
48901W        W49766   4.423  28.800   6.189
48902W        W49767   7.168  28.917   3.790
48903W        W49768   4.031  27.589   6.786
48904W        W49769   6.026  27.851   5.474
48905W        W49770   4.462  27.500   4.716
48906W        W49771   4.833  28.507   6.111
48907W        W49772   5.211  25.926   5.152
48908W        W49773   3.822  27.910   4.082
48909W        W49774   5.341  26.861   3.952
48910W        W49775   3.987  27.410   4.971
48911W        W49776   5.277  26.052   6.435
48912W        W49777   6.949  25.761   3.862
48913W        W49778   7.042  27.507   6.961
48914W        W49779   5.696  28.764   7.113
48915W        W49780   7.254  27.858   6.635
48916W        W49781   6.662  28.656   7.246
48917W        W49782   4.401  29.112   5.724
48918W        W49783   7.260  27.734   4.598
48919W        W49784   5.790  27.001   5.111
48920W        W49785   5.557  25.613   5.001
48921W        W49786   4.616  28.597   4.838
48922W        W49787   5.115  26.338   6.063
48923W        W49788   4.815  25.707   5.532
48924W        W49789   3.878  28.529   4.080
48925W        W49790   5.694  27.893   4.798
48926W        W49791   4.569  28.688   6.677
48927W        W49792   4.046  27.511   4.373
48928W        W49793   3.931  26.054   5.372
48929W        W49794   5.479  28.019   5.429
48930W        W49795   3.731  25.873   4.449
48931W        W49796   6.395  27.079   6.376
48932W        W49797   6.272  26.465   3.948
48933W        W49798   6.789  28.137   5.596
48934W        W49799   5.450  28.621   5.427
48935W        W49800   4.862  28.725   4.338
48936W        W49801   6.144  25.628   3.768
48937W        W49802   3.944  28.888   5.509
48938W        W49803   6.141  26.646   7.144
48939W        W49804   4.124  26.176   7.143
48940W        W49805   3.855  26.776   4.476
48941W        W49806   4.546  26.765   4.201
48942W        W49807   6.309  27.092   7.018
48943W        W49808   4.652  27.373   5.727
48944W        W49809   6.126  25.659   4.847
48945W        W49810   5.257  29.090   5.350
48946W        W49811   6.471  28.552   6.287
48947W        W49812   6.055  28.701   5.398
48948W        W49813   6.074  27.681   4.992
48949W        W49814   5.536  25.906   4.063
48950W        W49815   7.217  25.534   4.785
48951W        W49816   4.905  27.169   3.948
48952W        W49817   7.071  26.506   4.938
48953W        W49818   5.763  27.676   3.815
48954W        W49819   6.699  27.876   6.563
48955W        W49820   6.353  28.577   4.030
48956W        W49821   4.968  26.252   6.936
48957W        W49822   4.788  26.836   6.177
48958W        W49823   6.880  28.331   6.454
48959W        W49824   5.980  26.281   6.831
48960W        W49825   3.824  26.752   6.608
48961W        W49826   5.584  27.229   6.334
48962W        W49827   3.941  27.987   4.991
48963W        W49828   4.088  27.284   5.881
48964W        W49829   6.405  27.570   6.231
48965W        W49830   6.177  28.950   7.042
48966W        W49831   6.073  26.689   6.595
48967W        W49832   6.350  28.743   5.000
48968W        W49833   5.352  28.463   6.323
48969W        W49834   4.837  28.818   5.592
48970W        W49835   6.642  27.989   6.011
48971W        W49836   5.692  28.061   7.148
48972W        W49837   4.297  28.014   5.487
48973W        W49838   6.643  27.773   5.132
48974W        W49839   6.284  28.839   5.883
48975W        W49840   4.262  28.568   5.753
48976W        W49841   5.283  26.620   6.963
48977W        W49842   5.734  28.786   4.474
48978W        W49843   5.042  28.041   7.112
48979W        W49844   5.168  28.279   4.489
48980W        W49845   4.389  27.019   3.748
48981W        W49846   3.728  29.105  10.648
48982W        W49847   4.104  27.998  10.171
48983W        W49848   6.809  27.728   7.941
48984W        W49849   6.939  28.813   9.968
48985W        W49850   4.857  28.804   7.494
48986W        W49851   4.940  26.956   8.477
48987W        W49852   4.455  26.804   8.641
48988W        W49853   5.446  27.619   8.075
48989W        W49854   5.121  28.711  10.430
48990W        W49855   3.770  26.272  10.393
48991W        W49856   4.532  25.552  10.195
48992W        W49857   6.226  25.940   9.082
48993W        W49858   5.875  26.811   7.652
48994W        W49859   6.445  26.245  10.743
48995W        W49860   3.811  26.037   9.868
48996W        W49861   3.910  28.656  10.889
48997W        W49862   5.432  28.046   7.621
48998W        W49863   3.864  26.829   9.314
48999W        W49864   4.757  26.720  10.551
49000W        W49865   7.216  26.579   9.050
49001W        W49866   6.980  27.622   9.909
49002W        W49867   5.288  26.955   8.936
49003W        W49868   5.834  28.294   9.305
49004W        W49869   4.334  27.728   9.537
49005W        W49870   3.693  27.256   9.108
49006W        W49871   4.729  27.228  10.300
49007W        W49872   7.000  27.011  10.554
49008W        W49873   4.616  28.455   8.999
49009W        W49874   5.737  28.144  10.133
49010W        W49875   4.957  26.784   9.358
49011W        W49876   5.249  27.568   9.001
49012W        W49877   6.246  28.341  10.849
49013W        W49878   5.325  27.661  10.859
49014W        W49879   5.306  27.377  10.337
49015W        W49880   3.715  26.768  10.859
49016W        W49881   6.547  28.303  10.458
49017W        W49882   4.128  25.885   8.456
49018W        W49883   4.655  28.143   9.455
49019W        W49884   7.118  27.926   8.745
49020W        W49885   6.531  26.326   9.312
49021W        W49886   6.816  26.279   7.407
49022W        W49887   7.281  27.080   9.713
49023W        W49888   5.248  28.787   9.466
49024W        W49889   7.022  28.253   7.904
49025W        W49890   4.151  29.039   7.658
49026W        W49891   4.544  29.085   8.334
49027W        W49892   4.341  25.839   9.760
49028W        W49893   6.964  26.857  10.035
49029W        W49894   6.369  27.279   8.494
49030W        W49895   6.335  26.967   7.521
49031W        W49896   5.543  28.111   9.661
49032W        W49897   5.349  26.441   8.860
49033W        W49898   5.949  28.528   9.854
49034W        W49899   6.820  27.319   8.276
49035W        W49900   5.722  25.977   8.292
49036W        W49901   4.379  28.671   7.975
49037W        W49902   3.750  26.170   8.574
49038W        W49903   6.536  26.777   9.048
49039W        W49904   3.994  28.394   8.963
49040W        W49905   5.335  28.744   7.833
49041W        W49906   6.727  26.770   7.297
49042W        W49907   3.750  28.528   9.461
49043W        W49908   4.541  28.100   9.941
49044W        W49909   4.914  27.460   8.560
49045W        W49910   4.936  25.865   9.653
49046W        W49911   7.165  25.627   8.950
49047W        W49912   4.384  27.499   7.418
49048W        W49913   4.039  26.532   7.597
49049W        W49914   4.101  28.488   8.391
49050W        W49915   5.232  27.971   8.639
49051W        W49916   6.564  28.830  10.353
49052W        W49917   5.490  26.472   8.037
49053W        W49918   6.873  28.870   8.809
49054W        W49919   6.550  26.723  10.407
49055W        W49920   7.263  28.379   8.541
49056W        W49921   5.890  27.671  10.025
49057W        W49922   3.656  27.222   8.231
49058W        W49923   4.767  27.637   9.804
49059W        W49924   5.971  26.901   8.182
49060W        W49925   5.848  27.391   8.286
49061W        W49926   4.191  26.811   9.760
49062W        W49927   4.176  26.687  10.682
49063W        W49928   4.066  25.604   8.841
49064W        W49929   5.834  25.951   9.402
49065W        W49930   5.482  26.136  10.565
49066W        W49931   5.837  26.285   7.743
49067W        W49932   7.020  28.678  10.497
49068W        W49933   5.987  25.759  10.536
49069W        W49934   7.006  28.060  10.658
49070W        W49935   6.436  26.227  10.254
49071W        W49936   6.236  26.165   8.524
49072W        W49937   6.629  27.299  10.928
49073W        W49938   4.369  28.875   8.914
49074W        W49939   5.027  26.592   7.900
49075W        W49940   4.596  25.876  10.564
49076W        W49941   6.648  26.360   8.245
49077W        W49942   7.015  26.842   8.190
49078W        W49943   4.758  29.059  10.661
49079W        W49944   4.684  25.595   7.896
49080W        W49945   7.005  26.129   8.931
49081W        W49946   7.155  28.378   7.376
49082W        W49947   4.062  27.581   9.078
49083W        W49948   5.979  26.168   7.308
49084W        W49949   7.113  28.500   9.028
49085W        W49950   7.152  25.694   9.778
49086W        W49951   5.597  26.906  10.332
49087W        W49952   5.690  28.245   8.035
49088W        W49953   6.090  27.539  10.775
49089W        W49954   5.764  25.516   9.084
49090W        W49955   4.376  26.419   9.147
49091W        W49956   3.930  27.619   9.921
49092W        W49957   5.789  28.812   8.627
49093W        W49958   6.983  26.409   9.499
49094W        W49959   5.620  28.756  10.266
49095W        W49960   6.963  27.815   7.471
49096W        W49961   5.398  27.298   8.532
49097W        W49962   7.250  25.809  10.273
49098W        W49963   5.399  27.644   9.867
49099W        W49964   5.616  26.530   9.312
49100W        W49965   6.468  26.828   8.150
49101W        W49966   6.755  26.561   7.792
49102W        W49967   6.564  28.601   8.181
49103W        W49968   6.398  28.204   8.977
49104W        W49969   6.294  27.283   7.955
49105W        W49970   5.727  27.493   8.941
49106W        W49971   6.608  27.281   9.008
49107W        W49972   3.983  26.296   9.432
49108W        W49973   6.761  27.348  10.259
49109W        W49974   7.112  28.966   9.405
49110W        W49975   5.042  28.410   8.807
49111W        W49976   6.049  28.943  10.131
49112W        W49977   6.043  26.273   9.895
49113W        W49978   5.250  28.981   9.956
49114W        W49979   6.947  25.935   8.422
49115W        W49980   6.738  27.254   9.723
49116W        W49981   3.721  26.575   9.761
49117W        W49982   6.581  26.370   8.779
49118W        W49983   6.992  26.521  10.556
49119W        W49984   5.877  28.220   8.774
49120W        W49985   5.133  28.811   8.387
49121W        W49986   4.248  25.991   7.645
49122W        W49987   5.352  25.645   9.455
49123W        W49988   4.380  28.765   7.303
49124W        W49989   4.754  27.231   8.054
49125W        W49990   5.408  27.860  10.367
49126W        W49991   5.238  26.218   8.357
49127W        W49992   6.594  25.815   8.785
49128W        W49993   6.314  29.097   9.113
49129W        W49994   5.726  28.745   9.453
49130W        W49995   5.122  27.782   9.414
49131W        W49996   6.892  28.505   9.540
49132W        W49997   4.586  26.008   8.309
49133W        W49998   5.108  28.305   9.269
49134W        W49999   4.591  26.236   7.334
49135W        W50000   5.392  26.845   9.728
49136W        W50001   6.240  25.711   9.598
49137W        W50002   3.660  27.554   9.483
49138W        W50003   5.364  27.372   7.641
49139W        W50004   4.632  25.687   7.411
49140W        W50005   5.370  26.768   8.462
49141W        W50006   6.340  25.744  10.161
49142W        W50007   4.928  27.756  10.270
49143W        W50008   5.732  27.538  10.487
49144W        W50009   6.349  27.568  10.380
49145W        W50010   5.633  25.708  10.885
49146W        W50011   4.855  26.324   9.278
49147W        W50012   4.281  26.280   8.676
49148W        W50013   4.067  28.992   8.352
49149W        W50014   5.399  28.322  10.477
49150W        W50015   4.434  27.807   7.836
49151W        W50016   6.114  27.192   9.057
49152W        W50017   6.394  26.991   9.456
49153W        W50018   5.599  27.665   9.390
49154W        W50019   6.069  28.039   7.522
49155W        W50020   5.741  26.060   8.850
49156W        W50021   7.220  26.338   8.118
49157W        W50022   3.714  28.927  10.149
49158W        W50023   4.131  28.153   9.681
49159W        W50024   3.698  28.999   7.913
49160W        W50025   5.597  26.269   9.719
49161W        W50026   4.960  28.292   7.568
49162W        W50027   6.865  28.674   7.754
49163W        W50028   5.840  27.327   7.768
49164W        W50029   4.683  26.518   8.285
49165W        W50030   5.515  26.428   7.337
49166W        W50031   6.099  27.993  10.515
49167W        W50032   6.452  25.899   8.132
49168W        W50033   3.782  25.747   7.580
49169W        W50034   5.068  28.066   9.870
49170W        W50035   4.867  27.982   8.962
49171W        W50036   4.609  27.934   7.360
49172W        W50037   3.850  28.175   8.128
49173W        W50038   4.354  27.245  10.570
49174W        W50039   5.058  25.805  10.756
49175W        W50040   5.767  25.947  10.112
49176W        W50041   4.962  25.715   8.393
49177W        W50042   6.021  25.792   7.898
49178W        W50043   3.966  25.724   9.475
49179W        W50044   4.014  26.687   8.845
49180W        W50045   6.703  25.795   9.251
49181W        W50046   4.125  26.293   8.065
49182W        W50047   6.696  25.981   9.681
49183W        W50048   7.092  27.184   7.366
49184W        W50049   4.384  25.942   9.185
49185W        W50050   5.498  26.514  10.125
49186W        W50051   3.646  26.204   7.603
49187W        W50052   4.432  27.593  10.164
49188W        W50053   5.790  26.991   9.343
49189W        W50054   5.657  29.070   7.639
49190W        W50055   3.803  27.577   7.336
49191W        W50056   4.538  27.988  10.462
49192W        W50057   4.059  27.155  10.093
49193W        W50058   5.050  27.260   9.887
49194W        W50059   6.818  25.619  10.149
49195W        W50060   7.216  27.229  10.140
49196W        W50061   7.204  27.429   7.826
49197W        W50062   6.067  27.761   7.925
49198W        W50063   6.541  29.061   7.620
49199W        W50064   5.718  27.051  10.762
49200W        W50065   4.048  28.018  10.802
49201W        W50066   7.254  25.940  10.754
49202W        W50067   6.972  26.868   9.375
49203W        W50068   5.280  28.998  10.852
49204W        W50069   5.135  25.627   7.579
49205W        W50070   6.674  28.226   7.522
49206W        W50071   4.443  26.319  10.408
49207W        W50072   4.877  28.313  10.270
49208W        W50073   7.003  26.304  10.068
49209W        W50074   6.214  28.963   8.036
49210W        W50075   6.453  27.582   9.403
49211W        W50076   4.703  25.998  10.070
49212W        W50077   5.172  27.067  10.827
49213W        W50078   4.675  28.246   8.021
49214W        W50079   6.430  27.744   8.285
49215W        W50080   4.198  26.370  10.009
49216W        W50081   5.527  28.432   8.473
49217W        W50082   7.277  26.992   8.654
49218W        W50083   5.499  25.625  10.373
49219W        W50084   6.279  28.330   9.452
49220W        W50085   6.582  28.674   9.160
49221W        W50086   5.801  28.476   7.588
49222W        W50087   3.811  28.368  10.430
49223W        W50088   4.554  26.360   9.668
49224W        W50089   4.524  25.708   8.778
49225W        W50090   6.145  26.550   9.470
49226W        W50091   4.943  27.721   7.670
49227W        W50092   6.941  27.663   9.169
49228W        W50093   4.268  28.421  10.592
49229W        W50094   6.655  29.103   8.389
49230W        W50095   4.754  26.123   8.834
49231W        W50096   4.523  27.616   8.924
49232W        W50097   4.836  29.027   9.674
49233W        W50098   6.903  29.123  10.706
49234W        W50099   6.062  27.311   9.639
49235W        W50100   3.911  27.109   7.554
49236W        W50101   7.045  28.767   8.251
49237W        W50102   6.882  26.091   7.870
49238W        W50103   5.021  25.610  10.273
49239W        W50104   6.727  28.412   8.731
49240W        W50105   6.756  26.968   8.636
49241W        W50106   4.873  26.641   8.852
49242W        W50107   5.118  26.903  10.176
49243W        W50108   6.229  28.056  10.039
49244W        W50109   4.879  26.510  10.151
49245W        W50110   4.858  28.976   8.767
49246W        W50111   4.175  28.935  10.401
49247W        W50112   4.287  28.296   7.531
49248W        W50113   6.804  28.054   8.341
49249W        W50114   4.408  26.846  10.227
49250W        W50115   7.181  26.776   7.708
49251W        W50116   4.926  27.833   8.179
49252W        W50117   6.025  27.215  10.260
49253W        W50118   5.916  26.843   9.804
49254W        W50119   4.476  27.215   9.833
49255W        W50120   6.686  29.103   9.662
49256W        W50121   6.477  25.737  10.656
49257W        W50122   4.141  25.887  10.243
49258W        W50123   4.480  26.910   9.296
49259W        W50124   4.849  26.724   7.418
49260W        W50125   3.652  28.483   9.963
49261W        W50126   5.237  27.192   9.406
49262W        W50127   5.060  26.217   7.511
49263W        W50128   4.195  27.033   8.292
49264W        W50129   3.966  28.885   9.729
49265W        W50130   6.761  27.111   7.837
49266W        W50131   6.856  26.027  10.523
49267W        W50132   6.292  28.236   8.486
49268W        W50133   3.890  27.160  10.663
49269W        W50134   6.856  25.624   7.959
49270W        W50135   6.376  28.099   7.970
49271W        W50136   5.278  27.157   8.055
49272W        W50137   6.465  25.961   7.578
49273W        W50138   6.530  26.568   9.764
49274W        W50139   4.239  27.161   8.971
49275W        W50140   4.533  28.100   8.620
49276W        W50141   6.296  26.720   8.585
49277W        W50142   5.319  26.099   9.281
49278W        W50143   7.281  28.010   9.792
49279W        W50144   7.199  25.997   9.353
49280W        W50145   3.738  28.827   8.729
49281W        W50146   4.247  28.014   8.265
49282W        W50147   4.162  25.631  10.818
49283W        W50148   5.281  28.484  10.920
49284W        W50149   7.036  27.452   8.710
49285W        W50150   6.390  27.629   7.590
49286W        W50151   5.685  29.150   9.802
49287W        W50152   6.542  27.872  10.839
49288W        W50153   5.357  25.582   8.119
49289W        W50154   6.070  26.451   8.978
49290W        W50155   3.756  28.038   9.310
49291W        W50156   5.009  26.000   7.951
49292W        W50157   4.813  27.484  10.800
49293W        W50158   5.807  26.465   8.514
49294W        W50159   6.012  27.875   9.636
49295W        W50160   4.166  28.480  10.071
49296W        W50161   4.757  28.463  10.794
49297W        W50162   4.608  26.260   7.808
49298W        W50163   6.125  26.402   8.133
49299W        W50164   6.083  28.510  10.370
49300W        W50165   4.768  27.102   8.969
49301W        W50166   4.423  28.800   9.834
49302W        W50167   7.168  28.917   7.435
49303W        W50168   4.031  27.589  10.431
49304W        W50169   6.026  27.851   9.119
49305W        W50170   4.462  27.500   8.361
49306W        W50171   4.833  28.507   9.756
49307W        W50172   5.211  25.926   8.797
49308W        W50173   3.822  27.910   7.727
49309W        W50174   5.341  26.861   7.597
49310W        W50175   3.987  27.410   8.616
49311W        W50176   5.277  26.052  10.080
49312W        W50177   6.949  25.761   7.507
49313W        W50178   7.042  27.507  10.606
49314W        W50179   5.696  28.764  10.758
49315W        W50180   7.254  27.858  10.280
49316W        W50181   6.662  28.656  10.891
49317W        W50182   4.401  29.112   9.369
49318W        W50183   7.260  27.734   8.243
49319W        W50184   5.790  27.001   8.756
49320W        W50185   5.557  25.613   8.646
49321W        W50186   4.616  28.597   8.483
49322W        W50187   5.115  26.338   9.708
49323W        W50188   4.815  25.707   9.177
49324W        W50189   3.878  28.529   7.725
49325W        W50190   5.694  27.893   8.443
49326W        W50191   4.569  28.688  10.322
49327W        W50192   4.046  27.511   8.018
49328W        W50193   3.931  26.054   9.017
49329W        W50194   5.479  28.019   9.074
49330W        W50195   3.731  25.873   8.094
49331W        W50196   6.395  27.079  10.021
49332W        W50197   6.272  26.465   7.593
49333W        W50198   6.789  28.137   9.241
49334W        W50199   5.450  28.621   9.072
49335W        W50200   4.862  28.725   7.983
49336W        W50201   6.144  25.628   7.413
49337W        W50202   3.944  28.888   9.154
49338W        W50203   6.141  26.646  10.789
49339W        W50204   4.124  26.176  10.788
49340W        W50205   3.855  26.776   8.121
49341W        W50206   4.546  26.765   7.846
49342W        W50207   6.309  27.092  10.663
49343W        W50208   4.652  27.373   9.372
49344W        W50209   6.126  25.659   8.492
49345W        W50210   5.257  29.090   8.995
49346W        W50211   6.471  28.552   9.932
49347W        W50212   6.055  28.701   9.043
49348W        W50213   6.074  27.681   8.637
49349W        W50214   5.536  25.906   7.708
49350W        W50215   7.217  25.534   8.430
49351W        W50216   4.905  27.169   7.593
49352W        W50217   7.071  26.506   8.583
49353W        W50218   5.763  27.676   7.460
49354W        W50219   6.699  27.876  10.208
49355W        W50220   6.353  28.577   7.675
49356W        W50221   4.968  26.252  10.581
49357W        W50222   4.788  26.836   9.822
49358W        W50223   6.880  28.331  10.099
49359W        W50224   5.980  26.281  10.476
49360W        W50225   3.824  26.752  10.253
49361W        W50226   5.584  27.229   9.979
49362W        W50227   3.941  27.987   8.636
49363W        W50228   4.088  27.284   9.526
49364W        W50229   6.405  27.570   9.876
49365W        W50230   6.177  28.950  10.687
49366W        W50231   6.073  26.689  10.240
49367W        W50232   6.350  28.743   8.645
49368W        W50233   5.352  28.463   9.968
49369W        W50234   4.837  28.818   9.237
49370W        W50235   6.642  27.989   9.656
49371W        W50236   5.692  28.061  10.793
49372W        W50237   4.297  28.014   9.132
49373W        W50238   6.643  27.773   8.777
49374W        W50239   6.284  28.839   9.528
49375W        W50240   4.262  28.568   9.398
49376W        W50241   5.283  26.620  10.608
49377W        W50242   5.734  28.786   8.119
49378W        W50243   5.042  28.041  10.757
49379W        W50244   5.168  28.279   8.134
49380W        W50245   4.389  27.019   7.393
49381W        W50246   3.728  29.105  14.292
49382W        W50247   4.104  27.998  13.815
49383W        W50248   6.809  27.728  11.585
49384W        W50249   6.939  28.813  13.612
49385W        W50250   4.857  28.804  11.138
49386W        W50251   4.940  26.956  12.121
49387W        W50252   4.455  26.804  12.285
49388W        W50253   5.446  27.619  11.719
49389W        W50254   5.121  28.711  14.074
49390W        W50255   3.770  26.272  14.037
49391W        W50256   4.532  25.552  13.839
49392W        W50257   6.226  25.940  12.726
49393W        W50258   5.875  26.811  11.296
49394W        W50259   6.445  26.245  14.387
49395W        W50260   3.811  26.037  13.512
49396W        W50261   3.910  28.656  14.533
49397W        W50262   5.432  28.046  11.265
49398W        W50263   3.864  26.829  12.958
49399W        W50264   4.757  26.720  14.195
49400W        W50265   7.216  26.579  12.694
49401W        W50266   6.980  27.622  13.553
49402W        W50267   5.288  26.955  12.580
49403W        W50268   5.834  28.294  12.949
49404W        W50269   4.334  27.728  13.181
49405W        W50270   3.693  27.256  12.752
49406W        W50271   4.729  27.228  13.944
49407W        W50272   7.000  27.011  14.198
49408W        W50273   4.616  28.455  12.643
49409W        W50274   5.737  28.144  13.777
49410W        W50275   4.957  26.784  13.002
49411W        W50276   5.249  27.568  12.645
49412W        W50277   6.246  28.341  14.493
49413W        W50278   5.325  27.661  14.503
49414W        W50279   5.306  27.377  13.981
49415W        W50280   3.715  26.768  14.503
49416W        W50281   6.547  28.303  14.102
49417W        W50282   4.128  25.885  12.100
49418W        W50283   4.655  28.143  13.099
49419W        W50284   7.118  27.926  12.389
49420W        W50285   6.531  26.326  12.956
49421W        W50286   6.816  26.279  11.051
49422W        W50287   7.281  27.080  13.357
49423W        W50288   5.248  28.787  13.110
49424W        W50289   7.022  28.253  11.548
49425W        W50290   4.151  29.039  11.302
49426W        W50291   4.544  29.085  11.978
49427W        W50292   4.341  25.839  13.404
49428W        W50293   6.964  26.857  13.679
49429W        W50294   6.369  27.279  12.138
49430W        W50295   6.335  26.967  11.165
49431W        W50296   5.543  28.111  13.305
49432W        W50297   5.349  26.441  12.504
49433W        W50298   5.949  28.528  13.498
49434W        W50299   6.820  27.319  11.920
49435W        W50300   5.722  25.977  11.936
49436W        W50301   4.379  28.671  11.619
49437W        W50302   3.750  26.170  12.218
49438W        W50303   6.536  26.777  12.692
49439W        W50304   3.994  28.394  12.607
49440W        W50305   5.335  28.744  11.477
49441W        W50306   6.727  26.770  10.941
49442W        W50307   3.750  28.528  13.105
49443W        W50308   4.541  28.100  13.585
49444W        W50309   4.914  27.460  12.204
49445W        W50310   4.936  25.865  13.297
49446W        W50311   7.165  25.627  12.594
49447W        W50312   4.384  27.499  11.062
49448W        W50313   4.039  26.532  11.241
49449W        W50314   4.101  28.488  12.035
49450W        W50315   5.232  27.971  12.283
49451W        W50316   6.564  28.830  13.997
49452W        W50317   5.490  26.472  11.681
49453W        W50318   6.873  28.870  12.453
49454W        W50319   6.550  26.723  14.051
49455W        W50320   7.263  28.379  12.185
49456W        W50321   5.890  27.671  13.669
49457W        W50322   3.656  27.222  11.875
49458W        W50323   4.767  27.637  13.448
49459W        W50324   5.971  26.901  11.826
49460W        W50325   5.848  27.391  11.930
49461W        W50326   4.191  26.811  13.404
49462W        W50327   4.176  26.687  14.326
49463W        W50328   4.066  25.604  12.485
49464W        W50329   5.834  25.951  13.046
49465W        W50330   5.482  26.136  14.209
49466W        W50331   5.837  26.285  11.387
49467W        W50332   7.020  28.678  14.141
49468W        W50333   5.987  25.759  14.180
49469W        W50334   7.006  28.060  14.302
49470W        W50335   6.436  26.227  13.898
49471W        W50336   6.236  26.165  12.168
49472W        W50337   6.629  27.299  14.572
49473W        W50338   4.369  28.875  12.558
49474W        W50339   5.027  26.592  11.544
49475W        W50340   4.596  25.876  14.208
49476W        W50341   6.648  26.360  11.889
49477W        W50342   7.015  26.842  11.834
49478W        W50343   4.758  29.059  14.305
49479W        W50344   4.684  25.595  11.540
49480W        W50345   7.005  26.129  12.575
49481W        W50346   7.155  28.378  11.020
49482W        W50347   4.062  27.581  12.722
49483W        W50348   5.979  26.168  10.952
49484W        W50349   7.113  28.500  12.672
49485W        W50350   7.152  25.694  13.422
49486W        W50351   5.597  26.906  13.976
49487W        W50352   5.690  28.245  11.679
49488W        W50353   6.090  27.539  14.419
49489W        W50354   5.764  25.516  12.728
49490W        W50355   4.376  26.419  12.791
49491W        W50356   3.930  27.619  13.565
49492W        W50357   5.789  28.812  12.271
49493W        W50358   6.983  26.409  13.143
49494W        W50359   5.620  28.756  13.910
49495W        W50360   6.963  27.815  11.115
49496W        W50361   5.398  27.298  12.176
49497W        W50362   7.250  25.809  13.917
49498W        W50363   5.399  27.644  13.511
49499W        W50364   5.616  26.530  12.956
49500W        W50365   6.468  26.828  11.794
49501W        W50366   6.755  26.561  11.436
49502W        W50367   6.564  28.601  11.825
49503W        W50368   6.398  28.204  12.621
49504W        W50369   6.294  27.283  11.599
49505W        W50370   5.727  27.493  12.585
49506W        W50371   6.608  27.281  12.652
49507W        W50372   3.983  26.296  13.076
49508W        W50373   6.761  27.348  13.903
49509W        W50374   7.112  28.966  13.049
49510W        W50375   5.042  28.410  12.451
49511W        W50376   6.049  28.943  13.775
49512W        W50377   6.043  26.273  13.539
49513W        W50378   5.250  28.981  13.600
49514W        W50379   6.947  25.935  12.066
49515W        W50380   6.738  27.254  13.367
49516W        W50381   3.721  26.575  13.405
49517W        W50382   6.581  26.370  12.423
49518W        W50383   6.992  26.521  14.200
49519W        W50384   5.877  28.220  12.418
49520W        W50385   5.133  28.811  12.031
49521W        W50386   4.248  25.991  11.289
49522W        W50387   5.352  25.645  13.099
49523W        W50388   4.380  28.765  10.947
49524W        W50389   4.754  27.231  11.698
49525W        W50390   5.408  27.860  14.011
49526W        W50391   5.238  26.218  12.001
49527W        W50392   6.594  25.815  12.429
49528W        W50393   6.314  29.097  12.757
49529W        W50394   5.726  28.745  13.097
49530W        W50395   5.122  27.782  13.058
49531W        W50396   6.892  28.505  13.184
49532W        W50397   4.586  26.008  11.953
49533W        W50398   5.108  28.305  12.913
49534W        W50399   4.591  26.236  10.978
49535W        W50400   5.392  26.845  13.372
49536W        W50401   6.240  25.711  13.242
49537W        W50402   3.660  27.554  13.127
49538W        W50403   5.364  27.372  11.285
49539W        W50404   4.632  25.687  11.055
49540W        W50405   5.370  26.768  12.106
49541W        W50406   6.340  25.744  13.805
49542W        W50407   4.928  27.756  13.914
49543W        W50408   5.732  27.538  14.131
49544W        W50409   6.349  27.568  14.024
49545W        W50410   5.633  25.708  14.529
49546W        W50411   4.855  26.324  12.922
49547W        W50412   4.281  26.280  12.320
49548W        W50413   4.067  28.992  11.996
49549W        W50414   5.399  28.322  14.121
49550W        W50415   4.434  27.807  11.480
49551W        W50416   6.114  27.192  12.701
49552W        W50417   6.394  26.991  13.100
49553W        W50418   5.599  27.665  13.034
49554W        W50419   6.069  28.039  11.166
49555W        W50420   5.741  26.060  12.494
49556W        W50421   7.220  26.338  11.762
49557W        W50422   3.714  28.927  13.793
49558W        W50423   4.131  28.153  13.325
49559W        W50424   3.698  28.999  11.557
49560W        W50425   5.597  26.269  13.363
49561W        W50426   4.960  28.292  11.212
49562W        W50427   6.865  28.674  11.398
49563W        W50428   5.840  27.327  11.412
49564W        W50429   4.683  26.518  11.929
49565W        W50430   5.515  26.428  10.981
49566W        W50431   6.099  27.993  14.159
49567W        W50432   6.452  25.899  11.776
49568W        W50433   3.782  25.747  11.224
49569W        W50434   5.068  28.066  13.514
49570W        W50435   4.867  27.982  12.606
49571W        W50436   4.609  27.934  11.004
49572W        W50437   3.850  28.175  11.772
49573W        W50438   4.354  27.245  14.214
49574W        W50439   5.058  25.805  14.400
49575W        W50440   5.767  25.947  13.756
49576W        W50441   4.962  25.715  12.037
49577W        W50442   6.021  25.792  11.542
49578W        W50443   3.966  25.724  13.119
49579W        W50444   4.014  26.687  12.489
49580W        W50445   6.703  25.795  12.895
49581W        W50446   4.125  26.293  11.709
49582W        W50447   6.696  25.981  13.325
49583W        W50448   7.092  27.184  11.010
49584W        W50449   4.384  25.942  12.829
49585W        W50450   5.498  26.514  13.769
49586W        W50451   3.646  26.204  11.247
49587W        W50452   4.432  27.593  13.808
49588W        W50453   5.790  26.991  12.987
49589W        W50454   5.657  29.070  11.283
49590W        W50455   3.803  27.577  10.980
49591W        W50456   4.538  27.988  14.106
49592W        W50457   4.059  27.155  13.737
49593W        W50458   5.050  27.260  13.531
49594W        W50459   6.818  25.619  13.793
49595W        W50460   7.216  27.229  13.784
49596W        W50461   7.204  27.429  11.470
49597W        W50462   6.067  27.761  11.569
49598W        W50463   6.541  29.061  11.264
49599W        W50464   5.718  27.051  14.406
49600W        W50465   4.048  28.018  14.446
49601W        W50466   7.254  25.940  14.398
49602W        W50467   6.972  26.868  13.019
49603W        W50468   5.280  28.998  14.496
49604W        W50469   5.135  25.627  11.223
49605W        W50470   6.674  28.226  11.166
49606W        W50471   4.443  26.319  14.052
49607W        W50472   4.877  28.313  13.914
49608W        W50473   7.003  26.304  13.712
49609W        W50474   6.214  28.963  11.680
49610W        W50475   6.453  27.582  13.047
49611W        W50476   4.703  25.998  13.714
49612W        W50477   5.172  27.067  14.471
49613W        W50478   4.675  28.246  11.665
49614W        W50479   6.430  27.744  11.929
49615W        W50480   4.198  26.370  13.653
49616W        W50481   5.527  28.432  12.117
49617W        W50482   7.277  26.992  12.298
49618W        W50483   5.499  25.625  14.017
49619W        W50484   6.279  28.330  13.096
49620W        W50485   6.582  28.674  12.804
49621W        W50486   5.801  28.476  11.232
49622W        W50487   3.811  28.368  14.074
49623W        W50488   4.554  26.360  13.312
49624W        W50489   4.524  25.708  12.422
49625W        W50490   6.145  26.550  13.114
49626W        W50491   4.943  27.721  11.314
49627W        W50492   6.941  27.663  12.813
49628W        W50493   4.268  28.421  14.236
49629W        W50494   6.655  29.103  12.033
49630W        W50495   4.754  26.123  12.478
49631W        W50496   4.523  27.616  12.568
49632W        W50497   4.836  29.027  13.318
49633W        W50498   6.903  29.123  14.350
49634W        W50499   6.062  27.311  13.283
49635W        W50500   3.911  27.109  11.198
49636W        W50501   7.045  28.767  11.895
49637W        W50502   6.882  26.091  11.514
49638W        W50503   5.021  25.610  13.917
49639W        W50504   6.727  28.412  12.375
49640W        W50505   6.756  26.968  12.280
49641W        W50506   4.873  26.641  12.496
49642W        W50507   5.118  26.903  13.820
49643W        W50508   6.229  28.056  13.683
49644W        W50509   4.879  26.510  13.795
49645W        W50510   4.858  28.976  12.411
49646W        W50511   4.175  28.935  14.045
49647W        W50512   4.287  28.296  11.175
49648W        W50513   6.804  28.054  11.985
49649W        W50514   4.408  26.846  13.871
49650W        W50515   7.181  26.776  11.352
49651W        W50516   4.926  27.833  11.823
49652W        W50517   6.025  27.215  13.904
49653W        W50518   5.916  26.843  13.448
49654W        W50519   4.476  27.215  13.477
49655W        W50520   6.686  29.103  13.306
49656W        W50521   6.477  25.737  14.300
49657W        W50522   4.141  25.887  13.887
49658W        W50523   4.480  26.910  12.940
49659W        W50524   4.849  26.724  11.062
49660W        W50525   3.652  28.483  13.607
49661W        W50526   5.237  27.192  13.050
49662W        W50527   5.060  26.217  11.155
49663W        W50528   4.195  27.033  11.936
49664W        W50529   3.966  28.885  13.373
49665W        W50530   6.761  27.111  11.481
49666W        W50531   6.856  26.027  14.167
49667W        W50532   6.292  28.236  12.130
49668W        W50533   3.890  27.160  14.307
49669W        W50534   6.856  25.624  11.603
49670W        W50535   6.376  28.099  11.614
49671W        W50536   5.278  27.157  11.699
49672W        W50537   6.465  25.961  11.222
49673W        W50538   6.530  26.568  13.408
49674W        W50539   4.239  27.161  12.615
49675W        W50540   4.533  28.100  12.264
49676W        W50541   6.296  26.720  12.229
49677W        W50542   5.319  26.099  12.925
49678W        W50543   7.281  28.010  13.436
49679W        W50544   7.199  25.997  12.997
49680W        W50545   3.738  28.827  12.373
49681W        W50546   4.247  28.014  11.909
49682W        W50547   4.162  25.631  14.462
49683W        W50548   5.281  28.484  14.564
49684W        W50549   7.036  27.452  12.354
49685W        W50550   6.390  27.629  11.234
49686W        W50551   5.685  29.150  13.446
49687W        W50552   6.542  27.872  14.483
49688W        W50553   5.357  25.582  11.763
49689W        W50554   6.070  26.451  12.622
49690W        W50555   3.756  28.038  12.954
49691W        W50556   5.009  26.000  11.595
49692W        W50557   4.813  27.484  14.444
49693W        W50558   5.807  26.465  12.158
49694W        W50559   6.012  27.875  13.280
49695W        W50560   4.166  28.480  13.715
49696W        W50561   4.757  28.463  14.438
49697W        W50562   4.608  26.260  11.452
49698W        W50563   6.125  26.402  11.777
49699W        W50564   6.083  28.510  14.014
49700W        W50565   4.768  27.102  12.613
49701W        W50566   4.423  28.800  13.478
49702W        W50567   7.168  28.917  11.079
49703W        W50568   4.031  27.589  14.075
49704W        W50569   6.026  27.851  12.763
49705W        W50570   4.462  27.500  12.005
49706W        W50571   4.833  28.507  13.400
49707W        W50572   5.211  25.926  12.441
49708W        W50573   3.822  27.910  11.371
49709W        W50574   5.341  26.861  11.241
49710W        W50575   3.987  27.410  12.260
49711W        W50576   5.277  26.052  13.724
49712W        W50577   6.949  25.761  11.151
49713W        W50578   7.042  27.507  14.250
49714W        W50579   5.696  28.764  14.402
49715W        W50580   7.254  27.858  13.924
49716W        W50581   6.662  28.656  14.535
49717W        W50582   4.401  29.112  13.013
49718W        W50583   7.260  27.734  11.887
49719W        W50584   5.790  27.001  12.400
49720W        W50585   5.557  25.613  12.290
49721W        W50586   4.616  28.597  12.127
49722W        W50587   5.115  26.338  13.352
49723W        W50588   4.815  25.707  12.821
49724W        W50589   3.878  28.529  11.369
49725W        W50590   5.694  27.893  12.087
49726W        W50591   4.569  28.688  13.966
49727W        W50592   4.046  27.511  11.662
49728W        W50593   3.931  26.054  12.661
49729W        W50594   5.479  28.019  12.718
49730W        W50595   3.731  25.873  11.738
49731W        W50596   6.395  27.079  13.665
49732W        W50597   6.272  26.465  11.237
49733W        W50598   6.789  28.137  12.885
49734W        W50599   5.450  28.621  12.716
49735W        W50600   4.862  28.725  11.627
49736W        W50601   6.144  25.628  11.057
49737W        W50602   3.944  28.888  12.798
49738W        W50603   6.141  26.646  14.433
49739W        W50604   4.124  26.176  14.432
49740W        W50605   3.855  26.776  11.765
49741W        W50606   4.546  26.765  11.490
49742W        W50607   6.309  27.092  14.307
49743W        W50608   4.652  27.373  13.016
49744W        W50609   6.126  25.659  12.136
49745W        W50610   5.257  29.090  12.639
49746W        W50611   6.471  28.552  13.576
49747W        W50612   6.055  28.701  12.687
49748W        W50613   6.074  27.681  12.281
49749W        W50614   5.536  25.906  11.352
49750W        W50615   7.217  25.534  12.074
49751W        W50616   4.905  27.169  11.237
49752W        W50617   7.071  26.506  12.227
49753W        W50618   5.763  27.676  11.104
49754W        W50619   6.699  27.876  13.852
49755W        W50620   6.353  28.577  11.319
49756W        W50621   4.968  26.252  14.225
49757W        W50622   4.788  26.836  13.466
49758W        W50623   6.880  28.331  13.743
49759W        W50624   5.980  26.281  14.120
49760W        W50625   3.824  26.752  13.897
49761W        W50626   5.584  27.229  13.623
49762W        W50627   3.941  27.987  12.280
49763W        W50628   4.088  27.284  13.170
49764W        W50629   6.405  27.570  13.520
49765W        W50630   6.177  28.950  14.331
49766W        W50631   6.073  26.689  13.884
49767W        W50632   6.350  28.743  12.289
49768W        W50633   5.352  28.463  13.612
49769W        W50634   4.837  28.818  12.881
49770W        W50635   6.642  27.989  13.300
49771W        W50636   5.692  28.061  14.437
49772W        W50637   4.297  28.014  12.776
49773W        W50638   6.643  27.773  12.421
49774W        W50639   6.284  28.839  13.172
49775W        W50640   4.262  28.568  13.042
49776W        W50641   5.283  26.620  14.252
49777W        W50642   5.734  28.786  11.763
49778W        W50643   5.042  28.041  14.401
49779W        W50644   5.168  28.279  11.778
49780W        W50645   4.389  27.019  11.037
49781W        W50646   3.728  29.105  17.936
49782W        W50647   4.104  27.998  17.459
49783W        W50648   6.809  27.728  15.229
49784W        W50649   6.939  28.813  17.256
49785W        W50650   4.857  28.804  14.782
49786W        W50651   4.940  26.956  15.765
49787W        W50652   4.455  26.804  15.929
49788W        W50653   5.446  27.619  15.363
49789W        W50654   5.121  28.711  17.718
49790W        W50655   3.770  26.272  17.681
49791W        W50656   4.532  25.552  17.483
49792W        W50657   6.226  25.940  16.370
49793W        W50658   5.875  26.811  14.940
49794W        W50659   6.445  26.245  18.031
49795W        W50660   3.811  26.037  17.156
49796W        W50661   3.910  28.656  18.177
49797W        W50662   5.432  28.046  14.909
49798W        W50663   3.864  26.829  16.602
49799W        W50664   4.757  26.720  17.839
49800W        W50665   7.216  26.579  16.338
49801W        W50666   6.980  27.622  17.197
49802W        W50667   5.288  26.955  16.224
49803W        W50668   5.834  28.294  16.593
49804W        W50669   4.334  27.728  16.825
49805W        W50670   3.693  27.256  16.396
49806W        W50671   4.729  27.228  17.588
49807W        W50672   7.000  27.011  17.842
49808W        W50673   4.616  28.455  16.287
49809W        W50674   5.737  28.144  17.421
49810W        W50675   4.957  26.784  16.646
49811W        W50676   5.249  27.568  16.289
49812W        W50677   6.246  28.341  18.137
49813W        W50678   5.325  27.661  18.147
49814W        W50679   5.306  27.377  17.625
49815W        W50680   3.715  26.768  18.147
49816W        W50681   6.547  28.303  17.746
49817W        W50682   4.128  25.885  15.744
49818W        W50683   4.655  28.143  16.743
49819W        W50684   7.118  27.926  16.033
49820W        W50685   6.531  26.326  16.600
49821W        W50686   6.816  26.279  14.695
49822W        W50687   7.281  27.080  17.001
49823W        W50688   5.248  28.787  16.754
49824W        W50689   7.022  28.253  15.192
49825W        W50690   4.151  29.039  14.946
49826W        W50691   4.544  29.085  15.622
49827W        W50692   4.341  25.839  17.048
49828W        W50693   6.964  26.857  17.323
49829W        W50694   6.369  27.279  15.782
49830W        W50695   6.335  26.967  14.809
49831W        W50696   5.543  28.111  16.949
49832W        W50697   5.349  26.441  16.148
49833W        W50698   5.949  28.528  17.142
49834W        W50699   6.820  27.319  15.564
49835W        W50700   5.722  25.977  15.580
49836W        W50701   4.379  28.671  15.263
49837W        W50702   3.750  26.170  15.862
49838W        W50703   6.536  26.777  16.336
49839W        W50704   3.994  28.394  16.251
49840W        W50705   6.727  26.770  14.585
49841W        W50706   3.750  28.528  16.749
49842W        W50707   4.541  28.100  17.229
49843W        W50708   4.914  27.460  15.848
49844W        W50709   4.936  25.865  16.941
49845W        W50710   7.165  25.627  16.238
49846W        W50711   4.384  27.499  14.706
49847W        W50712   4.039  26.532  14.885
49848W        W50713   4.101  28.488  15.679
49849W        W50714   5.232  27.971  15.927
49850W        W50715   6.564  28.830  17.641
49851W        W50716   5.490  26.472  15.325
49852W        W50717   6.873  28.870  16.097
49853W        W50718   6.550  26.723  17.695
49854W        W50719   7.263  28.379  15.829
49855W        W50720   5.890  27.671  17.313
49856W        W50721   3.656  27.222  15.519
49857W        W50722   4.767  27.637  17.092
49858W        W50723   5.971  26.901  15.470
49859W        W50724   5.848  27.391  15.574
49860W        W50725   4.191  26.811  17.048
49861W        W50726   4.176  26.687  17.970
49862W        W50727   4.066  25.604  16.129
49863W        W50728   5.834  25.951  16.690
49864W        W50729   5.482  26.136  17.853
49865W        W50730   5.837  26.285  15.031
49866W        W50731   7.020  28.678  17.785
49867W        W50732   5.987  25.759  17.824
49868W        W50733   7.006  28.060  17.946
49869W        W50734   6.436  26.227  17.542
49870W        W50735   6.236  26.165  15.812
49871W        W50736   6.629  27.299  18.216
49872W        W50737   4.369  28.875  16.202
49873W        W50738   5.027  26.592  15.188
49874W        W50739   4.596  25.876  17.852
49875W        W50740   6.648  26.360  15.533
49876W        W50741   7.015  26.842  15.478
49877W        W50742   4.758  29.059  17.949
49878W        W50743   4.684  25.595  15.184
49879W        W50744   7.005  26.129  16.219
49880W        W50745   7.155  28.378  14.664
49881W        W50746   4.062  27.581  16.366
49882W        W50747   5.979  26.168  14.596
49883W        W50748   7.113  28.500  16.316
49884W        W50749   7.152  25.694  17.066
49885W        W50750   5.597  26.906  17.620
49886W        W50751   5.690  28.245  15.323
49887W        W50752   6.090  27.539  18.063
49888W        W50753   5.764  25.516  16.372
49889W        W50754   4.376  26.419  16.435
49890W        W50755   3.930  27.619  17.209
49891W        W50756   5.789  28.812  15.915
49892W        W50757   6.983  26.409  16.787
49893W        W50758   5.620  28.756  17.554
49894W        W50759   6.963  27.815  14.759
49895W        W50760   5.398  27.298  15.820
49896W        W50761   7.250  25.809  17.561
49897W        W50762   5.399  27.644  17.155
49898W        W50763   5.616  26.530  16.600
49899W        W50764   6.468  26.828  15.438
49900W        W50765   6.755  26.561  15.080
49901W        W50766   6.564  28.601  15.469
49902W        W50767   6.398  28.204  16.265
49903W        W50768   6.294  27.283  15.243
49904W        W50769   5.727  27.493  16.229
49905W        W50770   6.608  27.281  16.296
49906W        W50771   3.983  26.296  16.720
49907W        W50772   6.761  27.348  17.547
49908W        W50773   7.112  28.966  16.693
49909W        W50774   5.042  28.410  16.095
49910W        W50775   6.049  28.943  17.419
49911W        W50776   6.043  26.273  17.183
49912W        W50777   5.250  28.981  17.244
49913W        W50778   6.947  25.935  15.710
49914W        W50779   6.738  27.254  17.011
49915W        W50780   3.721  26.575  17.049
49916W        W50781   6.581  26.370  16.067
49917W        W50782   6.992  26.521  17.844
49918W        W50783   5.877  28.220  16.062
49919W        W50784   5.133  28.811  15.675
49920W        W50785   4.248  25.991  14.933
49921W        W50786   5.352  25.645  16.743
49922W        W50787   4.380  28.765  14.591
49923W        W50788   4.754  27.231  15.342
49924W        W50789   5.408  27.860  17.655
49925W        W50790   5.238  26.218  15.645
49926W        W50791   6.594  25.815  16.073
49927W        W50792   6.314  29.097  16.401
49928W        W50793   5.726  28.745  16.741
49929W        W50794   5.122  27.782  16.702
49930W        W50795   6.892  28.505  16.828
49931W        W50796   4.586  26.008  15.597
49932W        W50797   5.108  28.305  16.557
49933W        W50798   4.591  26.236  14.622
49934W        W50799   5.392  26.845  17.016
49935W        W50800   6.240  25.711  16.886
49936W        W50801   3.660  27.554  16.771
49937W        W50802   5.364  27.372  14.929
49938W        W50803   4.632  25.687  14.699
49939W        W50804   5.370  26.768  15.750
49940W        W50805   6.340  25.744  17.449
49941W        W50806   4.928  27.756  17.558
49942W        W50807   5.732  27.538  17.775
49943W        W50808   6.349  27.568  17.668
49944W        W50809   5.633  25.708  18.173
49945W        W50810   4.855  26.324  16.566
49946W        W50811   4.281  26.280  15.964
49947W        W50812   4.067  28.992  15.640
49948W        W50813   5.399  28.322  17.765
49949W        W50814   4.434  27.807  15.124
49950W        W50815   6.114  27.192  16.345
49951W        W50816   6.394  26.991  16.744
49952W        W50817   5.599  27.665  16.678
49953W        W50818   6.069  28.039  14.810
49954W        W50819   5.741  26.060  16.138
49955W        W50820   7.220  26.338  15.406
49956W        W50821   3.714  28.927  17.437
49957W        W50822   4.131  28.153  16.969
49958W        W50823   3.698  28.999  15.201
49959W        W50824   5.597  26.269  17.007
49960W        W50825   4.960  28.292  14.856
49961W        W50826   6.865  28.674  15.042
49962W        W50827   5.840  27.327  15.056
49963W        W50828   4.683  26.518  15.573
49964W        W50829   5.515  26.428  14.625
49965W        W50830   6.099  27.993  17.803
49966W        W50831   6.452  25.899  15.420
49967W        W50832   3.782  25.747  14.868
49968W        W50833   5.068  28.066  17.158
49969W        W50834   4.867  27.982  16.250
49970W        W50835   4.609  27.934  14.648
49971W        W50836   3.850  28.175  15.416
49972W        W50837   4.354  27.245  17.858
49973W        W50838   5.058  25.805  18.044
49974W        W50839   5.767  25.947  17.400
49975W        W50840   4.962  25.715  15.681
49976W        W50841   6.021  25.792  15.186
49977W        W50842   3.966  25.724  16.763
49978W        W50843   4.014  26.687  16.133
49979W        W50844   6.703  25.795  16.539
49980W        W50845   4.125  26.293  15.353
49981W        W50846   6.696  25.981  16.969
49982W        W50847   7.092  27.184  14.654
49983W        W50848   4.384  25.942  16.473
49984W        W50849   5.498  26.514  17.413
49985W        W50850   3.646  26.204  14.891
49986W        W50851   4.432  27.593  17.452
49987W        W50852   5.790  26.991  16.631
49988W        W50853   5.657  29.070  14.927
49989W        W50854   3.803  27.577  14.624
49990W        W50855   4.538  27.988  17.750
49991W        W50856   4.059  27.155  17.381
49992W        W50857   5.050  27.260  17.175
49993W        W50858   6.818  25.619  17.437
49994W        W50859   7.216  27.229  17.428
49995W        W50860   7.204  27.429  15.114
49996W        W50861   6.067  27.761  15.213
49997W        W50862   6.541  29.061  14.908
49998W        W50863   5.718  27.051  18.050
49999W        W50864   4.048  28.018  18.090
50000W        W50865   7.254  25.940  18.042
50001W        W50866   6.972  26.868  16.663
50002W        W50867   5.280  28.998  18.140
50003W        W50868   5.135  25.627  14.867
50004W        W50869   6.674  28.226  14.810
50005W        W50870   4.443  26.319  17.696
50006W        W50871   4.877  28.313  17.558
50007W        W50872   7.003  26.304  17.356
50008W        W50873   6.214  28.963  15.324
50009W        W50874   6.453  27.582  16.691
50010W        W50875   4.703  25.998  17.358
50011W        W50876   5.172  27.067  18.115
50012W        W50877   4.675  28.246  15.309
50013W        W50878   6.430  27.744  15.573
50014W        W50879   4.198  26.370  17.297
50015W        W50880   5.527  28.432  15.761
50016W        W50881   7.277  26.992  15.942
50017W        W50882   5.499  25.625  17.661
50018W        W50883   6.279  28.330  16.740
50019W        W50884   6.582  28.674  16.448
50020W        W50885   5.801  28.476  14.876
50021W        W50886   3.811  28.368  17.718
50022W        W50887   4.554  26.360  16.956
50023W        W50888   4.524  25.708  16.066
50024W        W50889   6.145  26.550  16.758
50025W        W50890   4.943  27.721  14.958
50026W        W50891   6.941  27.663  16.457
50027W        W50892   4.268  28.421  17.880
50028W        W50893   6.655  29.103  15.677
50029W        W50894   4.754  26.123  16.122
50030W        W50895   4.523  27.616  16.212
50031W        W50896   4.836  29.027  16.962
50032W        W50897   6.903  29.123  17.994
50033W        W50898   6.062  27.311  16.927
50034W        W50899   3.911  27.109  14.842
50035W        W50900   7.045  28.767  15.539
50036W        W50901   6.882  26.091  15.158
50037W        W50902   5.021  25.610  17.561
50038W        W50903   6.727  28.412  16.019
50039W        W50904   6.756  26.968  15.924
50040W        W50905   4.873  26.641  16.140
50041W        W50906   5.118  26.903  17.464
50042W        W50907   6.229  28.056  17.327
50043W        W50908   4.879  26.510  17.439
50044W        W50909   4.858  28.976  16.055
50045W        W50910   4.175  28.935  17.689
50046W        W50911   4.287  28.296  14.819
50047W        W50912   6.804  28.054  15.629
50048W        W50913   4.408  26.846  17.515
50049W        W50914   7.181  26.776  14.996
50050W        W50915   4.926  27.833  15.467
50051W        W50916   6.025  27.215  17.548
50052W        W50917   5.916  26.843  17.092
50053W        W50918   4.476  27.215  17.121
50054W        W50919   6.686  29.103  16.950
50055W        W50920   6.477  25.737  17.944
50056W        W50921   4.141  25.887  17.531
50057W        W50922   4.480  26.910  16.584
50058W        W50923   4.849  26.724  14.706
50059W        W50924   3.652  28.483  17.251
50060W        W50925   5.237  27.192  16.694
50061W        W50926   5.060  26.217  14.799
50062W        W50927   4.195  27.033  15.580
50063W        W50928   3.966  28.885  17.017
50064W        W50929   6.761  27.111  15.125
50065W        W50930   6.856  26.027  17.811
50066W        W50931   6.292  28.236  15.774
50067W        W50932   3.890  27.160  17.951
50068W        W50933   6.856  25.624  15.247
50069W        W50934   6.376  28.099  15.258
50070W        W50935   5.278  27.157  15.343
50071W        W50936   6.465  25.961  14.866
50072W        W50937   6.530  26.568  17.052
50073W        W50938   4.239  27.161  16.259
50074W        W50939   4.533  28.100  15.908
50075W        W50940   6.296  26.720  15.873
50076W        W50941   5.319  26.099  16.569
50077W        W50942   7.281  28.010  17.080
50078W        W50943   7.199  25.997  16.641
50079W        W50944   3.738  28.827  16.017
50080W        W50945   4.247  28.014  15.553
50081W        W50946   4.162  25.631  18.106
50082W        W50947   5.281  28.484  18.208
50083W        W50948   7.036  27.452  15.998
50084W        W50949   6.390  27.629  14.878
50085W        W50950   5.685  29.150  17.090
50086W        W50951   6.542  27.872  18.127
50087W        W50952   5.357  25.582  15.407
50088W        W50953   6.070  26.451  16.266
50089W        W50954   3.756  28.038  16.598
50090W        W50955   5.009  26.000  15.239
50091W        W50956   4.813  27.484  18.088
50092W        W50957   5.807  26.465  15.802
50093W        W50958   6.012  27.875  16.924
50094W        W50959   4.166  28.480  17.359
50095W        W50960   4.757  28.463  18.082
50096W        W50961   4.608  26.260  15.096
50097W        W50962   6.125  26.402  15.421
50098W        W50963   6.083  28.510  17.658
50099W        W50964   4.768  27.102  16.257
50100W        W50965   4.423  28.800  17.122
50101W        W50966   7.168  28.917  14.723
50102W        W50967   4.031  27.589  17.719
50103W        W50968   6.026  27.851  16.407
50104W        W50969   4.462  27.500  15.649
50105W        W50970   4.833  28.507  17.044
50106W        W50971   5.211  25.926  16.085
50107W        W50972   3.822  27.910  15.015
50108W        W50973   5.341  26.861  14.885
50109W        W50974   3.987  27.410  15.904
50110W        W50975   5.277  26.052  17.368
50111W        W50976   6.949  25.761  14.795
50112W        W50977   7.042  27.507  17.894
50113W        W50978   5.696  28.764  18.046
50114W        W50979   7.254  27.858  17.568
50115W        W50980   6.662  28.656  18.179
50116W        W50981   4.401  29.112  16.657
50117W        W50982   7.260  27.734  15.531
50118W        W50983   5.790  27.001  16.044
50119W        W50984   5.557  25.613  15.934
50120W        W50985   4.616  28.597  15.771
50121W        W50986   5.115  26.338  16.996
50122W        W50987   4.815  25.707  16.465
50123W        W50988   3.878  28.529  15.013
50124W        W50989   5.694  27.893  15.731
50125W        W50990   4.569  28.688  17.610
50126W        W50991   4.046  27.511  15.306
50127W        W50992   3.931  26.054  16.305
50128W        W50993   5.479  28.019  16.362
50129W        W50994   3.731  25.873  15.382
50130W        W50995   6.395  27.079  17.309
50131W        W50996   6.272  26.465  14.881
50132W        W50997   6.789  28.137  16.529
50133W        W50998   5.450  28.621  16.360
50134W        W50999   4.862  28.725  15.271
50135W        W51000   6.144  25.628  14.701
50136W        W51001   3.944  28.888  16.442
50137W        W51002   6.141  26.646  18.077
50138W        W51003   4.124  26.176  18.076
50139W        W51004   3.855  26.776  15.409
50140W        W51005   4.546  26.765  15.134
50141W        W51006   6.309  27.092  17.951
50142W        W51007   4.652  27.373  16.660
50143W        W51008   6.126  25.659  15.780
50144W        W51009   5.257  29.090  16.283
50145W        W51010   6.471  28.552  17.220
50146W        W51011   6.055  28.701  16.331
50147W        W51012   6.074  27.681  15.925
50148W        W51013   5.536  25.906  14.996
50149W        W51014   7.217  25.534  15.718
50150W        W51015   4.905  27.169  14.881
50151W        W51016   7.071  26.506  15.871
50152W        W51017   5.763  27.676  14.748
50153W        W51018   6.699  27.876  17.496
50154W        W51019   6.353  28.577  14.963
50155W        W51020   4.968  26.252  17.869
50156W        W51021   4.788  26.836  17.110
50157W        W51022   6.880  28.331  17.387
50158W        W51023   5.980  26.281  17.764
50159W        W51024   3.824  26.752  17.541
50160W        W51025   5.584  27.229  17.267
50161W        W51026   3.941  27.987  15.924
50162W        W51027   4.088  27.284  16.814
50163W        W51028   6.405  27.570  17.164
50164W        W51029   6.177  28.950  17.975
50165W        W51030   6.073  26.689  17.528
50166W        W51031   6.350  28.743  15.933
50167W        W51032   5.352  28.463  17.256
50168W        W51033   4.837  28.818  16.525
50169W        W51034   6.642  27.989  16.944
50170W        W51035   5.692  28.061  18.081
50171W        W51036   4.297  28.014  16.420
50172W        W51037   6.643  27.773  16.065
50173W        W51038   6.284  28.839  16.816
50174W        W51039   4.262  28.568  16.686
50175W        W51040   5.283  26.620  17.896
50176W        W51041   5.734  28.786  15.407
50177W        W51042   5.042  28.041  18.045
50178W        W51043   5.168  28.279  15.422
50179W        W51044   4.389  27.019  14.681
50180W        W51045   3.728  29.105  21.580
50181W        W51046   4.104  27.998  21.103
50182W        W51047   6.809  27.728  18.873
50183W        W51048   6.939  28.813  20.900
50184W        W51049   4.857  28.804  18.426
50185W        W51050   4.940  26.956  19.409
50186W        W51051   4.455  26.804  19.573
50187W        W51052   5.446  27.619  19.007
50188W        W51053   5.121  28.711  21.362
50189W        W51054   3.770  26.272  21.325
50190W        W51055   4.532  25.552  21.127
50191W        W51056   6.226  25.940  20.014
50192W        W51057   5.875  26.811  18.584
50193W        W51058   6.445  26.245  21.675
50194W        W51059   3.811  26.037  20.800
50195W        W51060   3.910  28.656  21.821
50196W        W51061   5.432  28.046  18.553
50197W        W51062   3.864  26.829  20.246
50198W        W51063   4.757  26.720  21.483
50199W        W51064   7.216  26.579  19.982
50200W        W51065   6.980  27.622  20.841
50201W        W51066   5.288  26.955  19.868
50202W        W51067   5.834  28.294  20.237
50203W        W51068   4.334  27.728  20.469
50204W        W51069   3.693  27.256  20.040
50205W        W51070   4.729  27.228  21.232
50206W        W51071   7.000  27.011  21.486
50207W        W51072   4.616  28.455  19.931
50208W        W51073   5.737  28.144  21.065
50209W        W51074   4.957  26.784  20.290
50210W        W51075   5.249  27.568  19.933
50211W        W51076   6.246  28.341  21.781
50212W        W51077   5.325  27.661  21.791
50213W        W51078   5.306  27.377  21.269
50214W        W51079   3.715  26.768  21.791
50215W        W51080   6.547  28.303  21.390
50216W        W51081   4.128  25.885  19.388
50217W        W51082   4.655  28.143  20.387
50218W        W51083   7.118  27.926  19.677
50219W        W51084   6.531  26.326  20.244
50220W        W51085   6.816  26.279  18.339
50221W        W51086   7.281  27.080  20.645
50222W        W51087   5.248  28.787  20.398
50223W        W51088   7.022  28.253  18.836
50224W        W51089   4.151  29.039  18.590
50225W        W51090   4.544  29.085  19.266
50226W        W51091   4.341  25.839  20.692
50227W        W51092   6.964  26.857  20.967
50228W        W51093   6.369  27.279  19.426
50229W        W51094   6.335  26.967  18.453
50230W        W51095   5.543  28.111  20.593
50231W        W51096   5.349  26.441  19.792
50232W        W51097   5.949  28.528  20.786
50233W        W51098   6.820  27.319  19.208
50234W        W51099   5.722  25.977  19.224
50235W        W51100   4.379  28.671  18.907
50236W        W51101   3.750  26.170  19.506
50237W        W51102   6.536  26.777  19.980
50238W        W51103   3.994  28.394  19.895
50239W        W51104   5.335  28.744  18.765
50240W        W51105   6.727  26.770  18.229
50241W        W51106   3.750  28.528  20.393
50242W        W51107   4.541  28.100  20.873
50243W        W51108   4.914  27.460  19.492
50244W        W51109   4.936  25.865  20.585
50245W        W51110   7.165  25.627  19.882
50246W        W51111   4.384  27.499  18.350
50247W        W51112   4.039  26.532  18.529
50248W        W51113   4.101  28.488  19.323
50249W        W51114   5.232  27.971  19.571
50250W        W51115   6.564  28.830  21.285
50251W        W51116   5.490  26.472  18.969
50252W        W51117   6.873  28.870  19.741
50253W        W51118   6.550  26.723  21.339
50254W        W51119   7.263  28.379  19.473
50255W        W51120   5.890  27.671  20.957
50256W        W51121   3.656  27.222  19.163
50257W        W51122   4.767  27.637  20.736
50258W        W51123   5.971  26.901  19.114
50259W        W51124   5.848  27.391  19.218
50260W        W51125   4.191  26.811  20.692
50261W        W51126   4.176  26.687  21.614
50262W        W51127   4.066  25.604  19.773
50263W        W51128   5.834  25.951  20.334
50264W        W51129   5.482  26.136  21.497
50265W        W51130   5.837  26.285  18.675
50266W        W51131   7.020  28.678  21.429
50267W        W51132   5.987  25.759  21.468
50268W        W51133   7.006  28.060  21.590
50269W        W51134   6.436  26.227  21.186
50270W        W51135   6.236  26.165  19.456
50271W        W51136   6.629  27.299  21.860
50272W        W51137   4.369  28.875  19.846
50273W        W51138   5.027  26.592  18.832
50274W        W51139   4.596  25.876  21.496
50275W        W51140   6.648  26.360  19.177
50276W        W51141   7.015  26.842  19.122
50277W        W51142   4.758  29.059  21.593
50278W        W51143   4.684  25.595  18.828
50279W        W51144   7.005  26.129  19.863
50280W        W51145   7.155  28.378  18.308
50281W        W51146   4.062  27.581  20.010
50282W        W51147   5.979  26.168  18.240
50283W        W51148   7.113  28.500  19.960
50284W        W51149   7.152  25.694  20.710
50285W        W51150   5.597  26.906  21.264
50286W        W51151   5.690  28.245  18.967
50287W        W51152   6.090  27.539  21.707
50288W        W51153   5.764  25.516  20.016
50289W        W51154   4.376  26.419  20.079
50290W        W51155   3.930  27.619  20.853
50291W        W51156   5.789  28.812  19.559
50292W        W51157   6.983  26.409  20.431
50293W        W51158   5.620  28.756  21.198
50294W        W51159   6.963  27.815  18.403
50295W        W51160   5.398  27.298  19.464
50296W        W51161   7.250  25.809  21.205
50297W        W51162   5.399  27.644  20.799
50298W        W51163   5.616  26.530  20.244
50299W        W51164   6.468  26.828  19.082
50300W        W51165   6.755  26.561  18.724
50301W        W51166   6.564  28.601  19.113
50302W        W51167   6.398  28.204  19.909
50303W        W51168   6.294  27.283  18.887
50304W        W51169   5.727  27.493  19.873
50305W        W51170   6.608  27.281  19.940
50306W        W51171   3.983  26.296  20.364
50307W        W51172   6.761  27.348  21.191
50308W        W51173   7.112  28.966  20.337
50309W        W51174   5.042  28.410  19.739
50310W        W51175   6.049  28.943  21.063
50311W        W51176   6.043  26.273  20.827
50312W        W51177   5.250  28.981  20.888
50313W        W51178   6.947  25.935  19.354
50314W        W51179   6.738  27.254  20.655
50315W        W51180   3.721  26.575  20.693
50316W        W51181   6.581  26.370  19.711
50317W        W51182   6.992  26.521  21.488
50318W        W51183   5.877  28.220  19.706
50319W        W51184   5.133  28.811  19.319
50320W        W51185   4.248  25.991  18.577
50321W        W51186   5.352  25.645  20.387
50322W        W51187   4.380  28.765  18.235
50323W        W51188   4.754  27.231  18.986
50324W        W51189   5.408  27.860  21.299
50325W        W51190   5.238  26.218  19.289
50326W        W51191   6.594  25.815  19.717
50327W        W51192   6.314  29.097  20.045
50328W        W51193   5.726  28.745  20.385
50329W        W51194   5.122  27.782  20.346
50330W        W51195   6.892  28.505  20.472
50331W        W51196   4.586  26.008  19.241
50332W        W51197   5.108  28.305  20.201
50333W        W51198   4.591  26.236  18.266
50334W        W51199   5.392  26.845  20.660
50335W        W51200   6.240  25.711  20.530
50336W        W51201   3.660  27.554  20.415
50337W        W51202   5.364  27.372  18.573
50338W        W51203   4.632  25.687  18.343
50339W        W51204   5.370  26.768  19.394
50340W        W51205   6.340  25.744  21.093
50341W        W51206   4.928  27.756  21.202
50342W        W51207   5.732  27.538  21.419
50343W        W51208   6.349  27.568  21.312
50344W        W51209   5.633  25.708  21.817
50345W        W51210   4.855  26.324  20.210
50346W        W51211   4.281  26.280  19.608
50347W        W51212   4.067  28.992  19.284
50348W        W51213   5.399  28.322  21.409
50349W        W51214   4.434  27.807  18.768
50350W        W51215   6.114  27.192  19.989
50351W        W51216   6.394  26.991  20.388
50352W        W51217   5.599  27.665  20.322
50353W        W51218   6.069  28.039  18.454
50354W        W51219   5.741  26.060  19.782
50355W        W51220   7.220  26.338  19.050
50356W        W51221   3.714  28.927  21.081
50357W        W51222   4.131  28.153  20.613
50358W        W51223   3.698  28.999  18.845
50359W        W51224   5.597  26.269  20.651
50360W        W51225   4.960  28.292  18.500
50361W        W51226   6.865  28.674  18.686
50362W        W51227   5.840  27.327  18.700
50363W        W51228   4.683  26.518  19.217
50364W        W51229   5.515  26.428  18.269
50365W        W51230   6.099  27.993  21.447
50366W        W51231   6.452  25.899  19.064
50367W        W51232   3.782  25.747  18.512
50368W        W51233   5.068  28.066  20.802
50369W        W51234   4.867  27.982  19.894
50370W        W51235   4.609  27.934  18.292
50371W        W51236   3.850  28.175  19.060
50372W        W51237   4.354  27.245  21.502
50373W        W51238   5.058  25.805  21.688
50374W        W51239   5.767  25.947  21.044
50375W        W51240   4.962  25.715  19.325
50376W        W51241   6.021  25.792  18.830
50377W        W51242   3.966  25.724  20.407
50378W        W51243   4.014  26.687  19.777
50379W        W51244   6.703  25.795  20.183
50380W        W51245   4.125  26.293  18.997
50381W        W51246   6.696  25.981  20.613
50382W        W51247   7.092  27.184  18.298
50383W        W51248   4.384  25.942  20.117
50384W        W51249   5.498  26.514  21.057
50385W        W51250   3.646  26.204  18.535
50386W        W51251   4.432  27.593  21.096
50387W        W51252   5.790  26.991  20.275
50388W        W51253   5.657  29.070  18.571
50389W        W51254   3.803  27.577  18.268
50390W        W51255   4.538  27.988  21.394
50391W        W51256   4.059  27.155  21.025
50392W        W51257   5.050  27.260  20.819
50393W        W51258   6.818  25.619  21.081
50394W        W51259   7.216  27.229  21.072
50395W        W51260   7.204  27.429  18.758
50396W        W51261   6.067  27.761  18.857
50397W        W51262   6.541  29.061  18.552
50398W        W51263   5.718  27.051  21.694
50399W        W51264   4.048  28.018  21.734
50400W        W51265   7.254  25.940  21.686
50401W        W51266   6.972  26.868  20.307
50402W        W51267   5.280  28.998  21.784
50403W        W51268   5.135  25.627  18.511
50404W        W51269   6.674  28.226  18.454
50405W        W51270   4.877  28.313  21.202
50406W        W51271   7.003  26.304  21.000
50407W        W51272   6.214  28.963  18.968
50408W        W51273   6.453  27.582  20.335
50409W        W51274   4.703  25.998  21.002
50410W        W51275   5.172  27.067  21.759
50411W        W51276   4.675  28.246  18.953
50412W        W51277   6.430  27.744  19.217
50413W        W51278   4.198  26.370  20.941
50414W        W51279   5.527  28.432  19.405
50415W        W51280   7.277  26.992  19.586
50416W        W51281   5.499  25.625  21.305
50417W        W51282   6.279  28.330  20.384
50418W        W51283   6.582  28.674  20.092
50419W        W51284   5.801  28.476  18.520
50420W        W51285   3.811  28.368  21.362
50421W        W51286   4.554  26.360  20.600
50422W        W51287   4.524  25.708  19.710
50423W        W51288   6.145  26.550  20.402
50424W        W51289   4.943  27.721  18.602
50425W        W51290   6.941  27.663  20.101
50426W        W51291   4.268  28.421  21.524
50427W        W51292   6.655  29.103  19.321
50428W        W51293   4.754  26.123  19.766
50429W        W51294   4.523  27.616  19.856
50430W        W51295   4.836  29.027  20.606
50431W        W51296   6.903  29.123  21.638
50432W        W51297   6.062  27.311  20.571
50433W        W51298   3.911  27.109  18.486
50434W        W51299   7.045  28.767  19.183
50435W        W51300   6.882  26.091  18.802
50436W        W51301   5.021  25.610  21.205
50437W        W51302   6.727  28.412  19.663
50438W        W51303   6.756  26.968  19.568
50439W        W51304   4.873  26.641  19.784
50440W        W51305   5.118  26.903  21.108
50441W        W51306   6.229  28.056  20.971
50442W        W51307   4.879  26.510  21.083
50443W        W51308   4.858  28.976  19.699
50444W        W51309   4.175  28.935  21.333
50445W        W51310   4.287  28.296  18.463
50446W        W51311   6.804  28.054  19.273
50447W        W51312   4.408  26.846  21.159
50448W        W51313   7.181  26.776  18.640
50449W        W51314   4.926  27.833  19.111
50450W        W51315   6.025  27.215  21.192
50451W        W51316   5.916  26.843  20.736
50452W        W51317   4.476  27.215  20.765
50453W        W51318   6.686  29.103  20.594
50454W        W51319   6.477  25.737  21.588
50455W        W51320   4.141  25.887  21.175
50456W        W51321   4.480  26.910  20.228
50457W        W51322   4.849  26.724  18.350
50458W        W51323   3.652  28.483  20.895
50459W        W51324   5.237  27.192  20.338
50460W        W51325   5.060  26.217  18.443
50461W        W51326   4.195  27.033  19.224
50462W        W51327   3.966  28.885  20.661
50463W        W51328   6.761  27.111  18.769
50464W        W51329   6.856  26.027  21.455
50465W        W51330   6.292  28.236  19.418
50466W        W51331   3.890  27.160  21.595
50467W        W51332   6.856  25.624  18.891
50468W        W51333   6.376  28.099  18.902
50469W        W51334   5.278  27.157  18.987
50470W        W51335   6.465  25.961  18.510
50471W        W51336   6.530  26.568  20.696
50472W        W51337   4.239  27.161  19.903
50473W        W51338   4.533  28.100  19.552
50474W        W51339   6.296  26.720  19.517
50475W        W51340   5.319  26.099  20.213
50476W        W51341   7.281  28.010  20.724
50477W        W51342   7.199  25.997  20.285
50478W        W51343   3.738  28.827  19.661
50479W        W51344   4.247  28.014  19.197
50480W        W51345   4.162  25.631  21.750
50481W        W51346   5.281  28.484  21.852
50482W        W51347   7.036  27.452  19.642
50483W        W51348   6.390  27.629  18.522
50484W        W51349   5.685  29.150  20.734
50485W        W51350   6.542  27.872  21.771
50486W        W51351   5.357  25.582  19.051
50487W        W51352   6.070  26.451  19.910
50488W        W51353   3.756  28.038  20.242
50489W        W51354   5.009  26.000  18.883
50490W        W51355   4.813  27.484  21.732
50491W        W51356   5.807  26.465  19.446
50492W        W51357   6.012  27.875  20.568
50493W        W51358   4.166  28.480  21.003
50494W        W51359   4.757  28.463  21.726
50495W        W51360   4.608  26.260  18.740
50496W        W51361   6.125  26.402  19.065
50497W        W51362   6.083  28.510  21.302
50498W        W51363   4.768  27.102  19.901
50499W        W51364   4.423  28.800  20.766
50500W        W51365   7.168  28.917  18.367
50501W        W51366   4.031  27.589  21.363
50502W        W51367   6.026  27.851  20.051
50503W        W51368   4.462  27.500  19.293
50504W        W51369   4.833  28.507  20.688
50505W        W51370   5.211  25.926  19.729
50506W        W51371   3.822  27.910  18.659
50507W        W51372   5.341  26.861  18.529
50508W        W51373   3.987  27.410  19.548
50509W        W51374   5.277  26.052  21.012
50510W        W51375   6.949  25.761  18.439
50511W        W51376   7.042  27.507  21.538
50512W        W51377   5.696  28.764  21.690
50513W        W51378   7.254  27.858  21.212
50514W        W51379   6.662  28.656  21.823
50515W        W51380   4.401  29.112  20.301
50516W        W51381   7.260  27.734  19.175
50517W        W51382   5.790  27.001  19.688
50518W        W51383   5.557  25.613  19.578
50519W        W51384   4.616  28.597  19.415
50520W        W51385   5.115  26.338  20.640
50521W        W51386   4.815  25.707  20.109
50522W        W51387   3.878  28.529  18.657
50523W        W51388   5.694  27.893  19.375
50524W        W51389   4.569  28.688  21.254
50525W        W51390   4.046  27.511  18.950
50526W        W51391   3.931  26.054  19.949
50527W        W51392   5.479  28.019  20.006
50528W        W51393   3.731  25.873  19.026
50529W        W51394   6.395  27.079  20.953
50530W        W51395   6.272  26.465  18.525
50531W        W51396   6.789  28.137  20.173
50532W        W51397   5.450  28.621  20.004
50533W        W51398   4.862  28.725  18.915
50534W        W51399   6.144  25.628  18.345
50535W        W51400   3.944  28.888  20.086
50536W        W51401   6.141  26.646  21.721
50537W        W51402   4.124  26.176  21.720
50538W        W51403   3.855  26.776  19.053
50539W        W51404   4.546  26.765  18.778
50540W        W51405   6.309  27.092  21.595
50541W        W51406   4.652  27.373  20.304
50542W        W51407   6.126  25.659  19.424
50543W        W51408   5.257  29.090  19.927
50544W        W51409   6.471  28.552  20.864
50545W        W51410   6.055  28.701  19.975
50546W        W51411   6.074  27.681  19.569
50547W        W51412   5.536  25.906  18.640
50548W        W51413   7.217  25.534  19.362
50549W        W51414   4.905  27.169  18.525
50550W        W51415   7.071  26.506  19.515
50551W        W51416   5.763  27.676  18.392
50552W        W51417   6.699  27.876  21.140
50553W        W51418   6.353  28.577  18.607
50554W        W51419   4.968  26.252  21.513
50555W        W51420   4.788  26.836  20.754
50556W        W51421   6.880  28.331  21.031
50557W        W51422   5.980  26.281  21.408
50558W        W51423   3.824  26.752  21.185
50559W        W51424   5.584  27.229  20.911
50560W        W51425   3.941  27.987  19.568
50561W        W51426   4.088  27.284  20.458
50562W        W51427   6.405  27.570  20.808
50563W        W51428   6.177  28.950  21.619
50564W        W51429   6.073  26.689  21.172
50565W        W51430   6.350  28.743  19.577
50566W        W51431   5.352  28.463  20.900
50567W        W51432   4.837  28.818  20.169
50568W        W51433   6.642  27.989  20.588
50569W        W51434   5.692  28.061  21.725
50570W        W51435   4.297  28.014  20.064
50571W        W51436   6.643  27.773  19.709
50572W        W51437   6.284  28.839  20.460
50573W        W51438   4.262  28.568  20.330
50574W        W51439   5.283  26.620  21.540
50575W        W51440   5.734  28.786  19.051
50576W        W51441   5.042  28.041  21.689
50577W        W51442   5.168  28.279  19.066
50578W        W51443   4.389  27.019  18.325
50579W        W51444   3.728  29.105  25.225
50580W        W51445   4.104  27.998  24.748
50581W        W51446   6.809  27.728  22.518
50582W        W51447   6.939  28.813  24.545
50583W        W51448   4.857  28.804  22.071
50584W        W51449   4.940  26.956  23.054
50585W        W51450   4.455  26.804  23.218
50586W        W51451   5.446  27.619  22.652
50587W        W51452   5.121  28.711  25.007
50588W        W51453   3.770  26.272  24.970
50589W        W51454   4.532  25.552  24.772
50590W        W51455   6.226  25.940  23.659
50591W        W51456   5.875  26.811  22.229
50592W        W51457   6.445  26.245  25.320
50593W        W51458   3.811  26.037  24.445
50594W        W51459   3.910  28.656  25.466
50595W        W51460   5.432  28.046  22.198
50596W        W51461   3.864  26.829  23.891
50597W        W51462   4.757  26.720  25.128
50598W        W51463   7.216  26.579  23.627
50599W        W51464   6.980  27.622  24.486
50600W        W51465   5.288  26.955  23.513
50601W        W51466   5.834  28.294  23.882
50602W        W51467   4.334  27.728  24.114
50603W        W51468   3.693  27.256  23.685
50604W        W51469   4.729  27.228  24.877
50605W        W51470   7.000  27.011  25.131
50606W        W51471   4.616  28.455  23.576
50607W        W51472   5.737  28.144  24.710
50608W        W51473   4.957  26.784  23.935
50609W        W51474   5.249  27.568  23.578
50610W        W51475   6.246  28.341  25.426
50611W        W51476   5.325  27.661  25.436
50612W        W51477   5.306  27.377  24.914
50613W        W51478   3.715  26.768  25.436
50614W        W51479   6.547  28.303  25.035
50615W        W51480   4.128  25.885  23.033
50616W        W51481   4.655  28.143  24.032
50617W        W51482   7.118  27.926  23.322
50618W        W51483   6.531  26.326  23.889
50619W        W51484   6.816  26.279  21.984
50620W        W51485   7.281  27.080  24.290
50621W        W51486   5.248  28.787  24.043
50622W        W51487   7.022  28.253  22.481
50623W        W51488   4.151  29.039  22.235
50624W        W51489   4.544  29.085  22.911
50625W        W51490   4.341  25.839  24.337
50626W        W51491   6.964  26.857  24.612
50627W        W51492   6.369  27.279  23.071
50628W        W51493   6.335  26.967  22.098
50629W        W51494   5.543  28.111  24.238
50630W        W51495   5.349  26.441  23.437
50631W        W51496   5.949  28.528  24.431
50632W        W51497   6.820  27.319  22.853
50633W        W51498   5.722  25.977  22.869
50634W        W51499   4.379  28.671  22.552
50635W        W51500   3.750  26.170  23.151
50636W        W51501   6.536  26.777  23.625
50637W        W51502   3.994  28.394  23.540
50638W        W51503   5.335  28.744  22.410
50639W        W51504   6.727  26.770  21.874
50640W        W51505   3.750  28.528  24.038
50641W        W51506   4.541  28.100  24.518
50642W        W51507   4.914  27.460  23.137
50643W        W51508   4.936  25.865  24.230
50644W        W51509   7.165  25.627  23.527
50645W        W51510   4.384  27.499  21.995
50646W        W51511   4.039  26.532  22.174
50647W        W51512   4.101  28.488  22.968
50648W        W51513   5.232  27.971  23.216
50649W        W51514   6.564  28.830  24.930
50650W        W51515   5.490  26.472  22.614
50651W        W51516   6.873  28.870  23.386
50652W        W51517   6.550  26.723  24.984
50653W        W51518   7.263  28.379  23.118
50654W        W51519   5.890  27.671  24.602
50655W        W51520   3.656  27.222  22.808
50656W        W51521   4.767  27.637  24.381
50657W        W51522   5.971  26.901  22.759
50658W        W51523   5.848  27.391  22.863
50659W        W51524   4.191  26.811  24.337
50660W        W51525   4.176  26.687  25.259
50661W        W51526   4.066  25.604  23.418
50662W        W51527   5.834  25.951  23.979
50663W        W51528   5.482  26.136  25.142
50664W        W51529   5.837  26.285  22.320
50665W        W51530   7.020  28.678  25.074
50666W        W51531   5.987  25.759  25.113
50667W        W51532   7.006  28.060  25.235
50668W        W51533   6.436  26.227  24.831
50669W        W51534   6.236  26.165  23.101
50670W        W51535   6.629  27.299  25.505
50671W        W51536   4.369  28.875  23.491
50672W        W51537   5.027  26.592  22.477
50673W        W51538   4.596  25.876  25.141
50674W        W51539   6.648  26.360  22.822
50675W        W51540   7.015  26.842  22.767
50676W        W51541   4.758  29.059  25.238
50677W        W51542   4.684  25.595  22.473
50678W        W51543   7.005  26.129  23.508
50679W        W51544   7.155  28.378  21.953
50680W        W51545   4.062  27.581  23.655
50681W        W51546   5.979  26.168  21.885
50682W        W51547   7.113  28.500  23.605
50683W        W51548   7.152  25.694  24.355
50684W        W51549   5.597  26.906  24.909
50685W        W51550   5.690  28.245  22.612
50686W        W51551   6.090  27.539  25.352
50687W        W51552   5.764  25.516  23.661
50688W        W51553   4.376  26.419  23.724
50689W        W51554   3.930  27.619  24.498
50690W        W51555   5.789  28.812  23.204
50691W        W51556   6.983  26.409  24.076
50692W        W51557   5.620  28.756  24.843
50693W        W51558   6.963  27.815  22.048
50694W        W51559   5.398  27.298  23.109
50695W        W51560   7.250  25.809  24.850
50696W        W51561   5.399  27.644  24.444
50697W        W51562   5.616  26.530  23.889
50698W        W51563   6.468  26.828  22.727
50699W        W51564   6.755  26.561  22.369
50700W        W51565   6.564  28.601  22.758
50701W        W51566   6.398  28.204  23.554
50702W        W51567   6.294  27.283  22.532
50703W        W51568   5.727  27.493  23.518
50704W        W51569   6.608  27.281  23.585
50705W        W51570   3.983  26.296  24.009
50706W        W51571   6.761  27.348  24.836
50707W        W51572   7.112  28.966  23.982
50708W        W51573   5.042  28.410  23.384
50709W        W51574   6.049  28.943  24.708
50710W        W51575   6.043  26.273  24.472
50711W        W51576   5.250  28.981  24.533
50712W        W51577   6.947  25.935  22.999
50713W        W51578   6.738  27.254  24.300
50714W        W51579   3.721  26.575  24.338
50715W        W51580   6.581  26.370  23.356
50716W        W51581   6.992  26.521  25.133
50717W        W51582   5.877  28.220  23.351
50718W        W51583   5.133  28.811  22.964
50719W        W51584   4.248  25.991  22.222
50720W        W51585   5.352  25.645  24.032
50721W        W51586   4.380  28.765  21.880
50722W        W51587   4.754  27.231  22.631
50723W        W51588   5.408  27.860  24.944
50724W        W51589   5.238  26.218  22.934
50725W        W51590   6.594  25.815  23.362
50726W        W51591   6.314  29.097  23.690
50727W        W51592   5.726  28.745  24.030
50728W        W51593   5.122  27.782  23.991
50729W        W51594   6.892  28.505  24.117
50730W        W51595   4.586  26.008  22.886
50731W        W51596   5.108  28.305  23.846
50732W        W51597   4.591  26.236  21.911
50733W        W51598   5.392  26.845  24.305
50734W        W51599   6.240  25.711  24.175
50735W        W51600   3.660  27.554  24.060
50736W        W51601   5.364  27.372  22.218
50737W        W51602   4.632  25.687  21.988
50738W        W51603   5.370  26.768  23.039
50739W        W51604   6.340  25.744  24.738
50740W        W51605   4.928  27.756  24.847
50741W        W51606   5.732  27.538  25.064
50742W        W51607   6.349  27.568  24.957
50743W        W51608   5.633  25.708  25.462
50744W        W51609   4.855  26.324  23.855
50745W        W51610   4.281  26.280  23.253
50746W        W51611   4.067  28.992  22.929
50747W        W51612   5.399  28.322  25.054
50748W        W51613   4.434  27.807  22.413
50749W        W51614   6.114  27.192  23.634
50750W        W51615   6.394  26.991  24.033
50751W        W51616   5.599  27.665  23.967
50752W        W51617   6.069  28.039  22.099
50753W        W51618   5.741  26.060  23.427
50754W        W51619   7.220  26.338  22.695
50755W        W51620   3.714  28.927  24.726
50756W        W51621   4.131  28.153  24.258
50757W        W51622   3.698  28.999  22.490
50758W        W51623   5.597  26.269  24.296
50759W        W51624   4.960  28.292  22.145
50760W        W51625   6.865  28.674  22.331
50761W        W51626   5.840  27.327  22.345
50762W        W51627   4.683  26.518  22.862
50763W        W51628   5.515  26.428  21.914
50764W        W51629   6.099  27.993  25.092
50765W        W51630   6.452  25.899  22.709
50766W        W51631   3.782  25.747  22.157
50767W        W51632   5.068  28.066  24.447
50768W        W51633   4.867  27.982  23.539
50769W        W51634   4.609  27.934  21.937
50770W        W51635   3.850  28.175  22.705
50771W        W51636   4.354  27.245  25.147
50772W        W51637   5.058  25.805  25.333
50773W        W51638   5.767  25.947  24.689
50774W        W51639   4.962  25.715  22.970
50775W        W51640   6.021  25.792  22.475
50776W        W51641   3.966  25.724  24.052
50777W        W51642   4.014  26.687  23.422
50778W        W51643   6.703  25.795  23.828
50779W        W51644   4.125  26.293  22.642
50780W        W51645   6.696  25.981  24.258
50781W        W51646   7.092  27.184  21.943
50782W        W51647   4.384  25.942  23.762
50783W        W51648   5.498  26.514  24.702
50784W        W51649   3.646  26.204  22.180
50785W        W51650   4.432  27.593  24.741
50786W        W51651   5.790  26.991  23.920
50787W        W51652   5.657  29.070  22.216
50788W        W51653   3.803  27.577  21.913
50789W        W51654   4.538  27.988  25.039
50790W        W51655   4.059  27.155  24.670
50791W        W51656   5.050  27.260  24.464
50792W        W51657   6.818  25.619  24.726
50793W        W51658   7.216  27.229  24.717
50794W        W51659   7.204  27.429  22.403
50795W        W51660   6.067  27.761  22.502
50796W        W51661   6.541  29.061  22.197
50797W        W51662   5.718  27.051  25.339
50798W        W51663   4.048  28.018  25.379
50799W        W51664   7.254  25.940  25.331
50800W        W51665   6.972  26.868  23.952
50801W        W51666   5.280  28.998  25.429
50802W        W51667   5.135  25.627  22.156
50803W        W51668   6.674  28.226  22.099
50804W        W51669   4.443  26.319  24.985
50805W        W51670   4.877  28.313  24.847
50806W        W51671   7.003  26.304  24.645
50807W        W51672   6.214  28.963  22.613
50808W        W51673   6.453  27.582  23.980
50809W        W51674   4.703  25.998  24.647
50810W        W51675   5.172  27.067  25.404
50811W        W51676   4.675  28.246  22.598
50812W        W51677   6.430  27.744  22.862
50813W        W51678   4.198  26.370  24.586
50814W        W51679   5.527  28.432  23.050
50815W        W51680   7.277  26.992  23.231
50816W        W51681   5.499  25.625  24.950
50817W        W51682   6.279  28.330  24.029
50818W        W51683   6.582  28.674  23.737
50819W        W51684   5.801  28.476  22.165
50820W        W51685   3.811  28.368  25.007
50821W        W51686   4.554  26.360  24.245
50822W        W51687   4.524  25.708  23.355
50823W        W51688   6.145  26.550  24.047
50824W        W51689   4.943  27.721  22.247
50825W        W51690   6.941  27.663  23.746
50826W        W51691   4.268  28.421  25.169
50827W        W51692   6.655  29.103  22.966
50828W        W51693   4.754  26.123  23.411
50829W        W51694   4.523  27.616  23.501
50830W        W51695   4.836  29.027  24.251
50831W        W51696   6.903  29.123  25.283
50832W        W51697   6.062  27.311  24.216
50833W        W51698   3.911  27.109  22.131
50834W        W51699   7.045  28.767  22.828
50835W        W51700   6.882  26.091  22.447
50836W        W51701   5.021  25.610  24.850
50837W        W51702   6.727  28.412  23.308
50838W        W51703   6.756  26.968  23.213
50839W        W51704   4.873  26.641  23.429
50840W        W51705   5.118  26.903  24.753
50841W        W51706   6.229  28.056  24.616
50842W        W51707   4.879  26.510  24.728
50843W        W51708   4.858  28.976  23.344
50844W        W51709   4.175  28.935  24.978
50845W        W51710   4.287  28.296  22.108
50846W        W51711   6.804  28.054  22.918
50847W        W51712   4.408  26.846  24.804
50848W        W51713   7.181  26.776  22.285
50849W        W51714   4.926  27.833  22.756
50850W        W51715   6.025  27.215  24.837
50851W        W51716   5.916  26.843  24.381
50852W        W51717   4.476  27.215  24.410
50853W        W51718   6.686  29.103  24.239
50854W        W51719   6.477  25.737  25.233
50855W        W51720   4.141  25.887  24.820
50856W        W51721   4.480  26.910  23.873
50857W        W51722   4.849  26.724  21.995
50858W        W51723   3.652  28.483  24.540
50859W        W51724   5.237  27.192  23.983
50860W        W51725   5.060  26.217  22.088
50861W        W51726   4.195  27.033  22.869
50862W        W51727   3.966  28.885  24.306
50863W        W51728   6.761  27.111  22.414
50864W        W51729   6.856  26.027  25.100
50865W        W51730   6.292  28.236  23.063
50866W        W51731   3.890  27.160  25.240
50867W        W51732   6.856  25.624  22.536
50868W        W51733   6.376  28.099  22.547
50869W        W51734   5.278  27.157  22.632
50870W        W51735   6.465  25.961  22.155
50871W        W51736   6.530  26.568  24.341
50872W        W51737   4.239  27.161  23.548
50873W        W51738   4.533  28.100  23.197
50874W        W51739   6.296  26.720  23.162
50875W        W51740   5.319  26.099  23.858
50876W        W51741   7.281  28.010  24.369
50877W        W51742   7.199  25.997  23.930
50878W        W51743   3.738  28.827  23.306
50879W        W51744   4.247  28.014  22.842
50880W        W51745   4.162  25.631  25.395
50881W        W51746   5.281  28.484  25.497
50882W        W51747   7.036  27.452  23.287
50883W        W51748   6.390  27.629  22.167
50884W        W51749   5.685  29.150  24.379
50885W        W51750   6.542  27.872  25.416
50886W        W51751   5.357  25.582  22.696
50887W        W51752   6.070  26.451  23.555
50888W        W51753   3.756  28.038  23.887
50889W        W51754   5.009  26.000  22.528
50890W        W51755   4.813  27.484  25.377
50891W        W51756   5.807  26.465  23.091
50892W        W51757   6.012  27.875  24.213
50893W        W51758   4.166  28.480  24.648
50894W        W51759   4.757  28.463  25.371
50895W        W51760   4.608  26.260  22.385
50896W        W51761   6.125  26.402  22.710
50897W        W51762   6.083  28.510  24.947
50898W        W51763   4.768  27.102  23.546
50899W        W51764   4.423  28.800  24.411
50900W        W51765   7.168  28.917  22.012
50901W        W51766   4.031  27.589  25.008
50902W        W51767   6.026  27.851  23.696
50903W        W51768   4.462  27.500  22.938
50904W        W51769   4.833  28.507  24.333
50905W        W51770   5.211  25.926  23.374
50906W        W51771   3.822  27.910  22.304
50907W        W51772   5.341  26.861  22.174
50908W        W51773   3.987  27.410  23.193
50909W        W51774   5.277  26.052  24.657
50910W        W51775   6.949  25.761  22.084
50911W        W51776   7.042  27.507  25.183
50912W        W51777   5.696  28.764  25.335
50913W        W51778   7.254  27.858  24.857
50914W        W51779   6.662  28.656  25.468
50915W        W51780   4.401  29.112  23.946
50916W        W51781   7.260  27.734  22.820
50917W        W51782   5.790  27.001  23.333
50918W        W51783   5.557  25.613  23.223
50919W        W51784   4.616  28.597  23.060
50920W        W51785   5.115  26.338  24.285
50921W        W51786   4.815  25.707  23.754
50922W        W51787   3.878  28.529  22.302
50923W        W51788   5.694  27.893  23.020
50924W        W51789   4.569  28.688  24.899
50925W        W51790   4.046  27.511  22.595
50926W        W51791   3.931  26.054  23.594
50927W        W51792   5.479  28.019  23.651
50928W        W51793   3.731  25.873  22.671
50929W        W51794   6.395  27.079  24.598
50930W        W51795   6.272  26.465  22.170
50931W        W51796   6.789  28.137  23.818
50932W        W51797   5.450  28.621  23.649
50933W        W51798   4.862  28.725  22.560
50934W        W51799   6.144  25.628  21.990
50935W        W51800   3.944  28.888  23.731
50936W        W51801   6.141  26.646  25.366
50937W        W51802   4.124  26.176  25.365
50938W        W51803   3.855  26.776  22.698
50939W        W51804   4.546  26.765  22.423
50940W        W51805   6.309  27.092  25.240
50941W        W51806   4.652  27.373  23.949
50942W        W51807   6.126  25.659  23.069
50943W        W51808   5.257  29.090  23.572
50944W        W51809   6.471  28.552  24.509
50945W        W51810   6.055  28.701  23.620
50946W        W51811   6.074  27.681  23.214
50947W        W51812   5.536  25.906  22.285
50948W        W51813   7.217  25.534  23.007
50949W        W51814   4.905  27.169  22.170
50950W        W51815   7.071  26.506  23.160
50951W        W51816   5.763  27.676  22.037
50952W        W51817   6.699  27.876  24.785
50953W        W51818   6.353  28.577  22.252
50954W        W51819   4.968  26.252  25.158
50955W        W51820   4.788  26.836  24.399
50956W        W51821   6.880  28.331  24.676
50957W        W51822   5.980  26.281  25.053
50958W        W51823   3.824  26.752  24.830
50959W        W51824   5.584  27.229  24.556
50960W        W51825   3.941  27.987  23.213
50961W        W51826   4.088  27.284  24.103
50962W        W51827   6.405  27.570  24.453
50963W        W51828   6.177  28.950  25.264
50964W        W51829   6.073  26.689  24.817
50965W        W51830   6.350  28.743  23.222
50966W        W51831   5.352  28.463  24.545
50967W        W51832   4.837  28.818  23.814
50968W        W51833   6.642  27.989  24.233
50969W        W51834   5.692  28.061  25.370
50970W        W51835   4.297  28.014  23.709
50971W        W51836   6.643  27.773  23.354
50972W        W51837   6.284  28.839  24.105
50973W        W51838   4.262  28.568  23.975
50974W        W51839   5.283  26.620  25.185
50975W        W51840   5.734  28.786  22.696
50976W        W51841   5.042  28.041  25.334
50977W        W51842   5.168  28.279  22.711
50978W        W51843   4.389  27.019  21.970
50979W        W51844   3.728  29.105  28.869
50980W        W51845   4.104  27.998  28.392
50981W        W51846   6.809  27.728  26.162
50982W        W51847   6.939  28.813  28.189
50983W        W51848   4.857  28.804  25.715
50984W        W51849   4.940  26.956  26.698
50985W        W51850   4.455  26.804  26.862
50986W        W51851   5.446  27.619  26.296
50987W        W51852   5.121  28.711  28.651
50988W        W51853   3.770  26.272  28.614
50989W        W51854   4.532  25.552  28.416
50990W        W51855   6.226  25.940  27.303
50991W        W51856   5.875  26.811  25.873
50992W        W51857   6.445  26.245  28.964
50993W        W51858   3.811  26.037  28.089
50994W        W51859   3.910  28.656  29.110
50995W        W51860   5.432  28.046  25.842
50996W        W51861   3.864  26.829  27.535
50997W        W51862   4.757  26.720  28.772
50998W        W51863   7.216  26.579  27.271
50999W        W51864   6.980  27.622  28.130
51000W        W51865   5.288  26.955  27.157
51001W        W51866   5.834  28.294  27.526
51002W        W51867   4.334  27.728  27.758
51003W        W51868   3.693  27.256  27.329
51004W        W51869   4.729  27.228  28.521
51005W        W51870   7.000  27.011  28.775
51006W        W51871   4.616  28.455  27.220
51007W        W51872   5.737  28.144  28.354
51008W        W51873   4.957  26.784  27.579
51009W        W51874   5.249  27.568  27.222
51010W        W51875   6.246  28.341  29.070
51011W        W51876   5.325  27.661  29.080
51012W        W51877   5.306  27.377  28.558
51013W        W51878   3.715  26.768  29.080
51014W        W51879   6.547  28.303  28.679
51015W        W51880   4.128  25.885  26.677
51016W        W51881   4.655  28.143  27.676
51017W        W51882   7.118  27.926  26.966
51018W        W51883   6.531  26.326  27.533
51019W        W51884   6.816  26.279  25.628
51020W        W51885   7.281  27.080  27.934
51021W        W51886   5.248  28.787  27.687
51022W        W51887   7.022  28.253  26.125
51023W        W51888   4.151  29.039  25.879
51024W        W51889   4.544  29.085  26.555
51025W        W51890   4.341  25.839  27.981
51026W        W51891   6.964  26.857  28.256
51027W        W51892   6.369  27.279  26.715
51028W        W51893   6.335  26.967  25.742
51029W        W51894   5.543  28.111  27.882
51030W        W51895   5.349  26.441  27.081
51031W        W51896   5.949  28.528  28.075
51032W        W51897   6.820  27.319  26.497
51033W        W51898   5.722  25.977  26.513
51034W        W51899   4.379  28.671  26.196
51035W        W51900   3.750  26.170  26.795
51036W        W51901   6.536  26.777  27.269
51037W        W51902   3.994  28.394  27.184
51038W        W51903   5.335  28.744  26.054
51039W        W51904   6.727  26.770  25.518
51040W        W51905   3.750  28.528  27.682
51041W        W51906   4.541  28.100  28.162
51042W        W51907   4.914  27.460  26.781
51043W        W51908   4.936  25.865  27.874
51044W        W51909   7.165  25.627  27.171
51045W        W51910   4.384  27.499  25.639
51046W        W51911   4.039  26.532  25.818
51047W        W51912   4.101  28.488  26.612
51048W        W51913   5.232  27.971  26.860
51049W        W51914   6.564  28.830  28.574
51050W        W51915   5.490  26.472  26.258
51051W        W51916   6.873  28.870  27.030
51052W        W51917   6.550  26.723  28.628
51053W        W51918   7.263  28.379  26.762
51054W        W51919   5.890  27.671  28.246
51055W        W51920   3.656  27.222  26.452
51056W        W51921   4.767  27.637  28.025
51057W        W51922   5.971  26.901  26.403
51058W        W51923   5.848  27.391  26.507
51059W        W51924   4.191  26.811  27.981
51060W        W51925   4.176  26.687  28.903
51061W        W51926   4.066  25.604  27.062
51062W        W51927   5.834  25.951  27.623
51063W        W51928   5.482  26.136  28.786
51064W        W51929   5.837  26.285  25.964
51065W        W51930   7.020  28.678  28.718
51066W        W51931   5.987  25.759  28.757
51067W        W51932   7.006  28.060  28.879
51068W        W51933   6.436  26.227  28.475
51069W        W51934   6.236  26.165  26.745
51070W        W51935   6.629  27.299  29.149
51071W        W51936   4.369  28.875  27.135
51072W        W51937   5.027  26.592  26.121
51073W        W51938   4.596  25.876  28.785
51074W        W51939   6.648  26.360  26.466
51075W        W51940   7.015  26.842  26.411
51076W        W51941   4.758  29.059  28.882
51077W        W51942   4.684  25.595  26.117
51078W        W51943   7.005  26.129  27.152
51079W        W51944   7.155  28.378  25.597
51080W        W51945   4.062  27.581  27.299
51081W        W51946   5.979  26.168  25.529
51082W        W51947   7.113  28.500  27.249
51083W        W51948   7.152  25.694  27.999
51084W        W51949   5.597  26.906  28.553
51085W        W51950   5.690  28.245  26.256
51086W        W51951   6.090  27.539  28.996
51087W        W51952   5.764  25.516  27.305
51088W        W51953   4.376  26.419  27.368
51089W        W51954   3.930  27.619  28.142
51090W        W51955   5.789  28.812  26.848
51091W        W51956   6.983  26.409  27.720
51092W        W51957   5.620  28.756  28.487
51093W        W51958   6.963  27.815  25.692
51094W        W51959   5.398  27.298  26.753
51095W        W51960   7.250  25.809  28.494
51096W        W51961   5.399  27.644  28.088
51097W        W51962   5.616  26.530  27.533
51098W        W51963   6.468  26.828  26.371
51099W        W51964   6.755  26.561  26.013
51100W        W51965   6.564  28.601  26.402
51101W        W51966   6.398  28.204  27.198
51102W        W51967   6.294  27.283  26.176
51103W        W51968   5.727  27.493  27.162
51104W        W51969   6.608  27.281  27.229
51105W        W51970   3.983  26.296  27.653
51106W        W51971   6.761  27.348  28.480
51107W        W51972   7.112  28.966  27.626
51108W        W51973   5.042  28.410  27.028
51109W        W51974   6.049  28.943  28.352
51110W        W51975   6.043  26.273  28.116
51111W        W51976   5.250  28.981  28.177
51112W        W51977   6.947  25.935  26.643
51113W        W51978   6.738  27.254  27.944
51114W        W51979   3.721  26.575  27.982
51115W        W51980   6.581  26.370  27.000
51116W        W51981   6.992  26.521  28.777
51117W        W51982   5.877  28.220  26.995
51118W        W51983   5.133  28.811  26.608
51119W        W51984   4.248  25.991  25.866
51120W        W51985   5.352  25.645  27.676
51121W        W51986   4.380  28.765  25.524
51122W        W51987   4.754  27.231  26.275
51123W        W51988   5.408  27.860  28.588
51124W        W51989   5.238  26.218  26.578
51125W        W51990   6.594  25.815  27.006
51126W        W51991   6.314  29.097  27.334
51127W        W51992   5.726  28.745  27.674
51128W        W51993   5.122  27.782  27.635
51129W        W51994   6.892  28.505  27.761
51130W        W51995   4.586  26.008  26.530
51131W        W51996   5.108  28.305  27.490
51132W        W51997   4.591  26.236  25.555
51133W        W51998   5.392  26.845  27.949
51134W        W51999   6.240  25.711  27.819
51135W        W52000   3.660  27.554  27.704
51136W        W52001   5.364  27.372  25.862
51137W        W52002   4.632  25.687  25.632
51138W        W52003   5.370  26.768  26.683
51139W        W52004   6.340  25.744  28.382
51140W        W52005   4.928  27.756  28.491
51141W        W52006   5.732  27.538  28.708
51142W        W52007   6.349  27.568  28.601
51143W        W52008   5.633  25.708  29.106
51144W        W52009   4.855  26.324  27.499
51145W        W52010   4.281  26.280  26.897
51146W        W52011   4.067  28.992  26.573
51147W        W52012   5.399  28.322  28.698
51148W        W52013   4.434  27.807  26.057
51149W        W52014   6.114  27.192  27.278
51150W        W52015   6.394  26.991  27.677
51151W        W52016   5.599  27.665  27.611
51152W        W52017   6.069  28.039  25.743
51153W        W52018   5.741  26.060  27.071
51154W        W52019   7.220  26.338  26.339
51155W        W52020   3.714  28.927  28.370
51156W        W52021   4.131  28.153  27.902
51157W        W52022   3.698  28.999  26.134
51158W        W52023   5.597  26.269  27.940
51159W        W52024   4.960  28.292  25.789
51160W        W52025   6.865  28.674  25.975
51161W        W52026   5.840  27.327  25.989
51162W        W52027   4.683  26.518  26.506
51163W        W52028   5.515  26.428  25.558
51164W        W52029   6.099  27.993  28.736
51165W        W52030   6.452  25.899  26.353
51166W        W52031   3.782  25.747  25.801
51167W        W52032   5.068  28.066  28.091
51168W        W52033   4.867  27.982  27.183
51169W        W52034   4.609  27.934  25.581
51170W        W52035   3.850  28.175  26.349
51171W        W52036   4.354  27.245  28.791
51172W        W52037   5.058  25.805  28.977
51173W        W52038   5.767  25.947  28.333
51174W        W52039   4.962  25.715  26.614
51175W        W52040   6.021  25.792  26.119
51176W        W52041   3.966  25.724  27.696
51177W        W52042   4.014  26.687  27.066
51178W        W52043   6.703  25.795  27.472
51179W        W52044   4.125  26.293  26.286
51180W        W52045   6.696  25.981  27.902
51181W        W52046   7.092  27.184  25.587
51182W        W52047   4.384  25.942  27.406
51183W        W52048   5.498  26.514  28.346
51184W        W52049   3.646  26.204  25.824
51185W        W52050   4.432  27.593  28.385
51186W        W52051   5.790  26.991  27.564
51187W        W52052   5.657  29.070  25.860
51188W        W52053   3.803  27.577  25.557
51189W        W52054   4.538  27.988  28.683
51190W        W52055   4.059  27.155  28.314
51191W        W52056   5.050  27.260  28.108
51192W        W52057   6.818  25.619  28.370
51193W        W52058   7.216  27.229  28.361
51194W        W52059   7.204  27.429  26.047
51195W        W52060   6.067  27.761  26.146
51196W        W52061   6.541  29.061  25.841
51197W        W52062   5.718  27.051  28.983
51198W        W52063   4.048  28.018  29.023
51199W        W52064   7.254  25.940  28.975
51200W        W52065   6.972  26.868  27.596
51201W        W52066   5.280  28.998  29.073
51202W        W52067   5.135  25.627  25.800
51203W        W52068   6.674  28.226  25.743
51204W        W52069   4.443  26.319  28.629
51205W        W52070   4.877  28.313  28.491
51206W        W52071   7.003  26.304  28.289
51207W        W52072   6.214  28.963  26.257
51208W        W52073   6.453  27.582  27.624
51209W        W52074   4.703  25.998  28.291
51210W        W52075   5.172  27.067  29.048
51211W        W52076   4.675  28.246  26.242
51212W        W52077   6.430  27.744  26.506
51213W        W52078   4.198  26.370  28.230
51214W        W52079   5.527  28.432  26.694
51215W        W52080   7.277  26.992  26.875
51216W        W52081   5.499  25.625  28.594
51217W        W52082   6.279  28.330  27.673
51218W        W52083   6.582  28.674  27.381
51219W        W52084   5.801  28.476  25.809
51220W        W52085   3.811  28.368  28.651
51221W        W52086   4.554  26.360  27.889
51222W        W52087   4.524  25.708  26.999
51223W        W52088   6.145  26.550  27.691
51224W        W52089   4.943  27.721  25.891
51225W        W52090   6.941  27.663  27.390
51226W        W52091   4.268  28.421  28.813
51227W        W52092   6.655  29.103  26.610
51228W        W52093   4.754  26.123  27.055
51229W        W52094   4.523  27.616  27.145
51230W        W52095   4.836  29.027  27.895
51231W        W52096   6.903  29.123  28.927
51232W        W52097   6.062  27.311  27.860
51233W        W52098   3.911  27.109  25.775
51234W        W52099   7.045  28.767  26.472
51235W        W52100   6.882  26.091  26.091
51236W        W52101   5.021  25.610  28.494
51237W        W52102   6.727  28.412  26.952
51238W        W52103   6.756  26.968  26.857
51239W        W52104   4.873  26.641  27.073
51240W        W52105   5.118  26.903  28.397
51241W        W52106   6.229  28.056  28.260
51242W        W52107   4.879  26.510  28.372
51243W        W52108   4.858  28.976  26.988
51244W        W52109   4.175  28.935  28.622
51245W        W52110   4.287  28.296  25.752
51246W        W52111   6.804  28.054  26.562
51247W        W52112   4.408  26.846  28.448
51248W        W52113   7.181  26.776  25.929
51249W        W52114   4.926  27.833  26.400
51250W        W52115   6.025  27.215  28.481
51251W        W52116   5.916  26.843  28.025
51252W        W52117   4.476  27.215  28.054
51253W        W52118   6.686  29.103  27.883
51254W        W52119   6.477  25.737  28.877
51255W        W52120   4.141  25.887  28.464
51256W        W52121   4.480  26.910  27.517
51257W        W52122   4.849  26.724  25.639
51258W        W52123   3.652  28.483  28.184
51259W        W52124   5.237  27.192  27.627
51260W        W52125   5.060  26.217  25.732
51261W        W52126   4.195  27.033  26.513
51262W        W52127   3.966  28.885  27.950
51263W        W52128   6.761  27.111  26.058
51264W        W52129   6.856  26.027  28.744
51265W        W52130   6.292  28.236  26.707
51266W        W52131   3.890  27.160  28.884
51267W        W52132   6.856  25.624  26.180
51268W        W52133   6.376  28.099  26.191
51269W        W52134   5.278  27.157  26.276
51270W        W52135   6.465  25.961  25.799
51271W        W52136   6.530  26.568  27.985
51272W        W52137   4.239  27.161  27.192
51273W        W52138   4.533  28.100  26.841
51274W        W52139   6.296  26.720  26.806
51275W        W52140   5.319  26.099  27.502
51276W        W52141   7.281  28.010  28.013
51277W        W52142   7.199  25.997  27.574
51278W        W52143   3.738  28.827  26.950
51279W        W52144   4.247  28.014  26.486
51280W        W52145   4.162  25.631  29.039
51281W        W52146   5.281  28.484  29.141
51282W        W52147   7.036  27.452  26.931
51283W        W52148   6.390  27.629  25.811
51284W        W52149   5.685  29.150  28.023
51285W        W52150   6.542  27.872  29.060
51286W        W52151   5.357  25.582  26.340
51287W        W52152   6.070  26.451  27.199
51288W        W52153   3.756  28.038  27.531
51289W        W52154   5.009  26.000  26.172
51290W        W52155   4.813  27.484  29.021
51291W        W52156   5.807  26.465  26.735
51292W        W52157   6.012  27.875  27.857
51293W        W52158   4.166  28.480  28.292
51294W        W52159   4.757  28.463  29.015
51295W        W52160   4.608  26.260  26.029
51296W        W52161   6.125  26.402  26.354
51297W        W52162   6.083  28.510  28.591
51298W        W52163   4.768  27.102  27.190
51299W        W52164   4.423  28.800  28.055
51300W        W52165   7.168  28.917  25.656
51301W        W52166   4.031  27.589  28.652
51302W        W52167   6.026  27.851  27.340
51303W        W52168   4.462  27.500  26.582
51304W        W52169   4.833  28.507  27.977
51305W        W52170   5.211  25.926  27.018
51306W        W52171   3.822  27.910  25.948
51307W        W52172   5.341  26.861  25.818
51308W        W52173   3.987  27.410  26.837
51309W        W52174   5.277  26.052  28.301
51310W        W52175   6.949  25.761  25.728
51311W        W52176   7.042  27.507  28.827
51312W        W52177   5.696  28.764  28.979
51313W        W52178   7.254  27.858  28.501
51314W        W52179   6.662  28.656  29.112
51315W        W52180   4.401  29.112  27.590
51316W        W52181   7.260  27.734  26.464
51317W        W52182   5.790  27.001  26.977
51318W        W52183   5.557  25.613  26.867
51319W        W52184   4.616  28.597  26.704
51320W        W52185   5.115  26.338  27.929
51321W        W52186   4.815  25.707  27.398
51322W        W52187   3.878  28.529  25.946
51323W        W52188   5.694  27.893  26.664
51324W        W52189   4.569  28.688  28.543
51325W        W52190   4.046  27.511  26.239
51326W        W52191   3.931  26.054  27.238
51327W        W52192   5.479  28.019  27.295
51328W        W52193   3.731  25.873  26.315
51329W        W52194   6.395  27.079  28.242
51330W        W52195   6.272  26.465  25.814
51331W        W52196   6.789  28.137  27.462
51332W        W52197   5.450  28.621  27.293
51333W        W52198   4.862  28.725  26.204
51334W        W52199   6.144  25.628  25.634
51335W        W52200   3.944  28.888  27.375
51336W        W52201   6.141  26.646  29.010
51337W        W52202   4.124  26.176  29.009
51338W        W52203   3.855  26.776  26.342
51339W        W52204   4.546  26.765  26.067
51340W        W52205   6.309  27.092  28.884
51341W        W52206   4.652  27.373  27.593
51342W        W52207   6.126  25.659  26.713
51343W        W52208   5.257  29.090  27.216
51344W        W52209   6.471  28.552  28.153
51345W        W52210   6.055  28.701  27.264
51346W        W52211   6.074  27.681  26.858
51347W        W52212   5.536  25.906  25.929
51348W        W52213   7.217  25.534  26.651
51349W        W52214   4.905  27.169  25.814
51350W        W52215   7.071  26.506  26.804
51351W        W52216   5.763  27.676  25.681
51352W        W52217   6.699  27.876  28.429
51353W        W52218   6.353  28.577  25.896
51354W        W52219   4.968  26.252  28.802
51355W        W52220   4.788  26.836  28.043
51356W        W52221   6.880  28.331  28.320
51357W        W52222   5.980  26.281  28.697
51358W        W52223   3.824  26.752  28.474
51359W        W52224   5.584  27.229  28.200
51360W        W52225   3.941  27.987  26.857
51361W        W52226   4.088  27.284  27.747
51362W        W52227   6.405  27.570  28.097
51363W        W52228   6.177  28.950  28.908
51364W        W52229   6.073  26.689  28.461
51365W        W52230   6.350  28.743  26.866
51366W        W52231   5.352  28.463  28.189
51367W        W52232   4.837  28.818  27.458
51368W        W52233   6.642  27.989  27.877
51369W        W52234   5.692  28.061  29.014
51370W        W52235   4.297  28.014  27.353
51371W        W52236   6.643  27.773  26.998
51372W        W52237   6.284  28.839  27.749
51373W        W52238   4.262  28.568  27.619
51374W        W52239   5.283  26.620  28.829
51375W        W52240   5.734  28.786  26.340
51376W        W52241   5.042  28.041  28.978
51377W        W52242   5.168  28.279  26.355
51378W        W52243   4.389  27.019  25.614
51379W        W52244   7.373   3.595   3.359
51380W        W52245   7.749   2.488   2.882
51381W        W52246  10.454   2.218   0.652
51382W        W52247  10.584   3.303   2.679
51383W        W52248   8.502   3.294   0.205
51384W        W52249   8.585   1.446   1.188
51385W        W52250   8.100   1.294   1.352
51386W        W52251   9.091   2.109   0.786
51387W        W52252   8.766   3.201   3.141
51388W        W52253   7.415   0.762   3.104
51389W        W52254   8.177   0.042   2.906
51390W        W52255   9.871   0.430   1.793
51391W        W52256   9.520   1.301   0.363
51392W        W52257  10.090   0.735   3.454
51393W        W52258   7.456   0.527   2.579
51394W        W52259   7.555   3.146   3.600
51395W        W52260   9.077   2.536   0.332
51396W        W52261   7.509   1.319   2.025
51397W        W52262   8.402   1.210   3.262
51398W        W52263  10.861   1.069   1.761
51399W        W52264  10.625   2.112   2.620
51400W        W52265   8.933   1.445   1.647
51401W        W52266   9.479   2.784   2.016
51402W        W52267   7.979   2.218   2.248
51403W        W52268   7.338   1.746   1.819
51404W        W52269   8.374   1.718   3.011
51405W        W52270  10.645   1.501   3.265
51406W        W52271   8.261   2.945   1.710
51407W        W52272   9.382   2.634   2.844
51408W        W52273   8.602   1.274   2.069
51409W        W52274   8.894   2.058   1.712
51410W        W52275   9.891   2.831   3.560
51411W        W52276   8.970   2.151   3.570
51412W        W52277   8.951   1.867   3.048
51413W        W52278   7.360   1.258   3.570
51414W        W52279  10.192   2.793   3.169
51415W        W52280   7.773   0.375   1.167
51416W        W52281   8.300   2.633   2.166
51417W        W52282  10.763   2.416   1.456
51418W        W52283  10.176   0.816   2.023
51419W        W52284  10.461   0.769   0.118
51420W        W52285  10.926   1.570   2.424
51421W        W52286   8.893   3.277   2.177
51422W        W52287  10.667   2.743   0.615
51423W        W52288   7.796   3.529   0.369
51424W        W52289   8.189   3.575   1.045
51425W        W52290   7.986   0.329   2.471
51426W        W52291  10.609   1.347   2.746
51427W        W52292  10.014   1.769   1.205
51428W        W52293   9.980   1.457   0.232
51429W        W52294   9.188   2.601   2.372
51430W        W52295   8.994   0.931   1.571
51431W        W52296   9.594   3.018   2.565
51432W        W52297  10.465   1.809   0.987
51433W        W52298   9.367   0.467   1.003
51434W        W52299   8.024   3.161   0.686
51435W        W52300   7.395   0.660   1.285
51436W        W52301  10.181   1.267   1.759
51437W        W52302   7.639   2.884   1.674
51438W        W52303   8.980   3.234   0.544
51439W        W52304  10.372   1.260   0.008
51440W        W52305   7.395   3.018   2.172
51441W        W52306   8.186   2.590   2.652
51442W        W52307   8.559   1.950   1.271
51443W        W52308   8.581   0.355   2.364
51444W        W52309  10.810   0.117   1.661
51445W        W52310   8.029   1.989   0.129
51446W        W52311   7.684   1.022   0.308
51447W        W52312   7.746   2.978   1.102
51448W        W52313   8.877   2.461   1.350
51449W        W52314  10.209   3.320   3.064
51450W        W52315   9.135   0.962   0.748
51451W        W52316  10.518   3.360   1.520
51452W        W52317  10.195   1.213   3.118
51453W        W52318  10.908   2.869   1.252
51454W        W52319   9.535   2.161   2.736
51455W        W52320   7.301   1.712   0.942
51456W        W52321   8.412   2.127   2.515
51457W        W52322   9.616   1.391   0.893
51458W        W52323   9.493   1.881   0.997
51459W        W52324   7.836   1.301   2.471
51460W        W52325   7.821   1.177   3.393
51461W        W52326   7.711   0.094   1.552
51462W        W52327   9.479   0.441   2.113
51463W        W52328   9.127   0.626   3.276
51464W        W52329   9.482   0.775   0.454
51465W        W52330  10.665   3.168   3.208
51466W        W52331   9.632   0.249   3.247
51467W        W52332  10.651   2.550   3.369
51468W        W52333  10.081   0.717   2.965
51469W        W52334   9.881   0.655   1.235
51470W        W52335  10.274   1.789   3.639
51471W        W52336   8.014   3.365   1.625
51472W        W52337   8.672   1.082   0.611
51473W        W52338   8.241   0.366   3.275
51474W        W52339  10.293   0.850   0.956
51475W        W52340  10.660   1.332   0.901
51476W        W52341   8.403   3.549   3.372
51477W        W52342   8.329   0.085   0.607
51478W        W52343  10.650   0.619   1.642
51479W        W52344  10.800   2.868   0.087
51480W        W52345   7.707   2.071   1.789
51481W        W52346   9.624   0.658   0.019
51482W        W52347  10.758   2.990   1.739
51483W        W52348  10.797   0.184   2.489
51484W        W52349   9.242   1.396   3.043
51485W        W52350   9.335   2.735   0.746
51486W        W52351   9.735   2.029   3.486
51487W        W52352   9.409   0.006   1.795
51488W        W52353   8.021   0.909   1.858
51489W        W52354   7.575   2.109   2.632
51490W        W52355   9.434   3.302   1.338
51491W        W52356  10.628   0.899   2.210
51492W        W52357   9.265   3.246   2.977
51493W        W52358  10.608   2.305   0.182
51494W        W52359   9.043   1.788   1.243
51495W        W52360  10.895   0.299   2.984
51496W        W52361   9.044   2.134   2.578
51497W        W52362   9.261   1.020   2.023
51498W        W52363  10.113   1.318   0.861
51499W        W52364  10.400   1.051   0.503
51500W        W52365  10.209   3.091   0.892
51501W        W52366  10.043   2.694   1.688
51502W        W52367   9.939   1.773   0.666
51503W        W52368   9.372   1.983   1.652
51504W        W52369  10.253   1.771   1.719
51505W        W52370   7.628   0.786   2.143
51506W        W52371  10.406   1.838   2.970
51507W        W52372  10.757   3.456   2.116
51508W        W52373   8.687   2.900   1.518
51509W        W52374   9.694   3.433   2.842
51510W        W52375   9.688   0.763   2.606
51511W        W52376   8.895   3.471   2.667
51512W        W52377  10.592   0.425   1.133
51513W        W52378  10.383   1.744   2.434
51514W        W52379   7.366   1.065   2.472
51515W        W52380  10.226   0.860   1.490
51516W        W52381  10.637   1.011   3.267
51517W        W52382   9.522   2.710   1.485
51518W        W52383   8.778   3.301   1.098
51519W        W52384   7.893   0.481   0.356
51520W        W52385   8.997   0.135   2.166
51521W        W52386   8.025   3.255   0.014
51522W        W52387   8.399   1.721   0.765
51523W        W52388   9.053   2.350   3.078
51524W        W52389   8.883   0.708   1.068
51525W        W52390  10.239   0.305   1.496
51526W        W52391   9.959   3.587   1.824
51527W        W52392   9.371   3.235   2.164
51528W        W52393   8.767   2.272   2.125
51529W        W52394  10.537   2.995   2.251
51530W        W52395   8.231   0.498   1.020
51531W        W52396   8.753   2.795   1.980
51532W        W52397   8.236   0.726   0.045
51533W        W52398   9.037   1.335   2.439
51534W        W52399   9.885   0.201   2.309
51535W        W52400   7.305   2.044   2.194
51536W        W52401   9.009   1.862   0.352
51537W        W52402   8.277   0.177   0.122
51538W        W52403   9.015   1.258   1.173
51539W        W52404   9.985   0.234   2.872
51540W        W52405   8.573   2.246   2.981
51541W        W52406   9.377   2.028   3.198
51542W        W52407   9.994   2.058   3.091
51543W        W52408   9.278   0.198   3.596
51544W        W52409   8.500   0.814   1.989
51545W        W52410   7.926   0.770   1.387
51546W        W52411   7.712   3.482   1.063
51547W        W52412   9.044   2.812   3.188
51548W        W52413   8.079   2.297   0.547
51549W        W52414   9.759   1.682   1.768
51550W        W52415  10.039   1.481   2.167
51551W        W52416   9.244   2.155   2.101
51552W        W52417   9.714   2.529   0.233
51553W        W52418   9.386   0.550   1.561
51554W        W52419  10.865   0.828   0.829
51555W        W52420   7.359   3.417   2.860
51556W        W52421   7.776   2.643   2.392
51557W        W52422   7.343   3.489   0.624
51558W        W52423   9.242   0.759   2.430
51559W        W52424   8.605   2.782   0.279
51560W        W52425  10.510   3.164   0.465
51561W        W52426   9.485   1.817   0.479
51562W        W52427   8.328   1.008   0.996
51563W        W52428   9.160   0.918   0.048
51564W        W52429   9.744   2.483   3.226
51565W        W52430  10.097   0.389   0.843
51566W        W52431   7.427   0.237   0.291
51567W        W52432   8.713   2.556   2.581
51568W        W52433   8.512   2.472   1.673
51569W        W52434   8.254   2.424   0.071
51570W        W52435   7.495   2.665   0.839
51571W        W52436   7.999   1.735   3.281
51572W        W52437   8.703   0.295   3.467
51573W        W52438   9.412   0.437   2.823
51574W        W52439   8.607   0.205   1.104
51575W        W52440   9.666   0.282   0.609
51576W        W52441   7.611   0.214   2.186
51577W        W52442   7.659   1.177   1.556
51578W        W52443  10.348   0.285   1.962
51579W        W52444   7.770   0.783   0.776
51580W        W52445  10.341   0.471   2.392
51581W        W52446  10.737   1.674   0.077
51582W        W52447   8.029   0.432   1.896
51583W        W52448   9.143   1.004   2.836
51584W        W52449   7.291   0.694   0.314
51585W        W52450   8.077   2.083   2.875
51586W        W52451   9.435   1.481   2.054
51587W        W52452   9.302   3.560   0.350
51588W        W52453   7.448   2.067   0.047
51589W        W52454   8.183   2.478   3.173
51590W        W52455   7.704   1.645   2.804
51591W        W52456   8.695   1.750   2.598
51592W        W52457  10.463   0.109   2.860
51593W        W52458  10.861   1.719   2.851
51594W        W52459  10.849   1.919   0.537
51595W        W52460   9.712   2.251   0.636
51596W        W52461  10.186   3.551   0.331
51597W        W52462   9.363   1.541   3.473
51598W        W52463   7.693   2.508   3.513
51599W        W52464  10.899   0.430   3.465
51600W        W52465  10.617   1.358   2.086
51601W        W52466   8.925   3.488   3.563
51602W        W52467   8.780   0.117   0.290
51603W        W52468  10.319   2.716   0.233
51604W        W52469   8.088   0.809   3.119
51605W        W52470   8.522   2.803   2.981
51606W        W52471  10.648   0.794   2.779
51607W        W52472   9.859   3.453   0.747
51608W        W52473  10.098   2.072   2.114
51609W        W52474   8.348   0.488   2.781
51610W        W52475   8.817   1.557   3.538
51611W        W52476   8.320   2.736   0.732
51612W        W52477  10.075   2.234   0.996
51613W        W52478   7.843   0.860   2.720
51614W        W52479   9.172   2.922   1.184
51615W        W52480  10.922   1.482   1.365
51616W        W52481   9.144   0.115   3.084
51617W        W52482   9.924   2.820   2.163
51618W        W52483  10.227   3.164   1.871
51619W        W52484   9.446   2.966   0.299
51620W        W52485   7.456   2.858   3.141
51621W        W52486   8.199   0.850   2.379
51622W        W52487   8.169   0.198   1.489
51623W        W52488   9.790   1.040   2.181
51624W        W52489   8.588   2.211   0.381
51625W        W52490  10.586   2.153   1.880
51626W        W52491   7.913   2.911   3.303
51627W        W52492  10.300   3.593   1.100
51628W        W52493   8.399   0.613   1.545
51629W        W52494   8.168   2.106   1.635
51630W        W52495   8.481   3.517   2.385
51631W        W52496  10.548   3.613   3.417
51632W        W52497   9.707   1.801   2.350
51633W        W52498   7.556   1.599   0.265
51634W        W52499  10.690   3.257   0.962
51635W        W52500  10.527   0.581   0.581
51636W        W52501   8.666   0.100   2.984
51637W        W52502  10.372   2.902   1.442
51638W        W52503  10.401   1.458   1.347
51639W        W52504   8.518   1.131   1.563
51640W        W52505   8.763   1.393   2.887
51641W        W52506   9.874   2.546   2.750
51642W        W52507   8.524   1.000   2.862
51643W        W52508   8.503   3.466   1.478
51644W        W52509   7.820   3.425   3.112
51645W        W52510   7.932   2.786   0.242
51646W        W52511  10.449   2.544   1.052
51647W        W52512   8.053   1.336   2.938
51648W        W52513  10.826   1.266   0.419
51649W        W52514   8.571   2.323   0.890
51650W        W52515   9.670   1.705   2.971
51651W        W52516   9.561   1.333   2.515
51652W        W52517   8.121   1.705   2.544
51653W        W52518  10.331   3.593   2.373
51654W        W52519  10.122   0.227   3.367
51655W        W52520   7.786   0.377   2.954
51656W        W52521   8.125   1.400   2.007
51657W        W52522   8.494   1.214   0.129
51658W        W52523   7.297   2.973   2.674
51659W        W52524   8.882   1.682   2.117
51660W        W52525   8.705   0.707   0.222
51661W        W52526   7.840   1.523   1.003
51662W        W52527   7.611   3.375   2.440
51663W        W52528  10.406   1.601   0.548
51664W        W52529  10.501   0.517   3.234
51665W        W52530   9.937   2.726   1.197
51666W        W52531   7.535   1.650   3.374
51667W        W52532  10.501   0.114   0.670
51668W        W52533  10.021   2.589   0.681
51669W        W52534   8.923   1.647   0.766
51670W        W52535  10.110   0.451   0.289
51671W        W52536  10.175   1.058   2.475
51672W        W52537   7.884   1.651   1.682
51673W        W52538   8.178   2.590   1.331
51674W        W52539   9.941   1.210   1.296
51675W        W52540   8.964   0.589   1.992
51676W        W52541  10.926   2.500   2.503
51677W        W52542  10.844   0.487   2.064
51678W        W52543   7.383   3.317   1.440
51679W        W52544   7.892   2.504   0.976
51680W        W52545   7.807   0.121   3.529
51681W        W52546   8.926   2.974   3.631
51682W        W52547  10.681   1.942   1.421
51683W        W52548  10.035   2.119   0.301
51684W        W52549   9.330   3.640   2.513
51685W        W52550  10.187   2.362   3.550
51686W        W52551   9.002   0.072   0.830
51687W        W52552   9.715   0.941   1.689
51688W        W52553   7.401   2.528   2.021
51689W        W52554   8.654   0.490   0.662
51690W        W52555   8.458   1.974   3.511
51691W        W52556   9.452   0.955   1.225
51692W        W52557   9.657   2.365   2.347
51693W        W52558   7.811   2.970   2.782
51694W        W52559   8.402   2.953   3.505
51695W        W52560   8.253   0.750   0.519
51696W        W52561   9.770   0.892   0.844
51697W        W52562   9.728   3.000   3.081
51698W        W52563   8.413   1.592   1.680
51699W        W52564   8.068   3.290   2.545
51700W        W52565  10.813   3.407   0.146
51701W        W52566   7.676   2.079   3.142
51702W        W52567   9.671   2.341   1.830
51703W        W52568   8.107   1.990   1.072
51704W        W52569   8.478   2.997   2.467
51705W        W52570   8.856   0.416   1.508
51706W        W52571   7.467   2.400   0.438
51707W        W52572   8.986   1.351   0.308
51708W        W52573   7.632   1.900   1.327
51709W        W52574   8.922   0.542   2.791
51710W        W52575  10.594   0.251   0.218
51711W        W52576  10.687   1.997   3.317
51712W        W52577   9.341   3.254   3.469
51713W        W52578  10.899   2.348   2.991
51714W        W52579  10.307   3.146   3.602
51715W        W52580   8.046   3.602   2.080
51716W        W52581  10.905   2.224   0.954
51717W        W52582   9.435   1.491   1.467
51718W        W52583   9.202   0.103   1.357
51719W        W52584   8.261   3.087   1.194
51720W        W52585   8.760   0.828   2.419
51721W        W52586   8.460   0.197   1.888
51722W        W52587   7.523   3.019   0.436
51723W        W52588   9.339   2.383   1.154
51724W        W52589   8.214   3.178   3.033
51725W        W52590   7.691   2.001   0.729
51726W        W52591   7.576   0.544   1.728
51727W        W52592   9.124   2.509   1.785
51728W        W52593   7.376   0.363   0.805
51729W        W52594  10.040   1.569   2.732
51730W        W52595   9.917   0.955   0.304
51731W        W52596  10.434   2.627   1.952
51732W        W52597   9.095   3.111   1.783
51733W        W52598   8.507   3.215   0.694
51734W        W52599   9.789   0.118   0.124
51735W        W52600   7.589   3.378   1.865
51736W        W52601   9.786   1.136   3.500
51737W        W52602   7.769   0.666   3.499
51738W        W52603   7.500   1.266   0.832
51739W        W52604   8.191   1.255   0.557
51740W        W52605   9.954   1.582   3.374
51741W        W52606   8.297   1.863   2.083
51742W        W52607   9.771   0.149   1.203
51743W        W52608   8.902   3.580   1.706
51744W        W52609  10.116   3.042   2.643
51745W        W52610   9.700   3.191   1.754
51746W        W52611   9.719   2.171   1.348
51747W        W52612   9.181   0.396   0.419
51748W        W52613  10.862   0.024   1.141
51749W        W52614   8.550   1.659   0.304
51750W        W52615  10.716   0.996   1.294
51751W        W52616   9.408   2.166   0.171
51752W        W52617  10.344   2.366   2.919
51753W        W52618   9.998   3.067   0.386
51754W        W52619   8.613   0.742   3.292
51755W        W52620   8.433   1.326   2.533
51756W        W52621  10.525   2.821   2.810
51757W        W52622   9.625   0.771   3.187
51758W        W52623   7.469   1.242   2.964
51759W        W52624   9.229   1.719   2.690
51760W        W52625   7.586   2.477   1.347
51761W        W52626   7.733   1.774   2.237
51762W        W52627  10.050   2.060   2.587
51763W        W52628   9.822   3.440   3.398
51764W        W52629   9.718   1.179   2.951
51765W        W52630   9.995   3.233   1.356
51766W        W52631   8.997   2.953   2.679
51767W        W52632   8.482   3.308   1.948
51768W        W52633  10.287   2.479   2.367
51769W        W52634   9.337   2.551   3.504
51770W        W52635   7.942   2.504   1.843
51771W        W52636  10.288   2.263   1.488
51772W        W52637   9.929   3.329   2.239
51773W        W52638   7.907   3.058   2.109
51774W        W52639   8.928   1.110   3.319
51775W        W52640   9.379   3.276   0.830
51776W        W52641   8.687   2.531   3.468
51777W        W52642   8.813   2.769   0.845
51778W        W52643   8.034   1.509   0.104
51779W        W52644   7.373   3.595   7.003
51780W        W52645   7.749   2.488   6.526
51781W        W52646  10.454   2.218   4.296
51782W        W52647  10.584   3.303   6.323
51783W        W52648   8.502   3.294   3.849
51784W        W52649   8.585   1.446   4.832
51785W        W52650   8.100   1.294   4.996
51786W        W52651   9.091   2.109   4.430
51787W        W52652   8.766   3.201   6.785
51788W        W52653   7.415   0.762   6.748
51789W        W52654   8.177   0.042   6.550
51790W        W52655   9.871   0.430   5.437
51791W        W52656   9.520   1.301   4.007
51792W        W52657  10.090   0.735   7.098
51793W        W52658   7.456   0.527   6.223
51794W        W52659   7.555   3.146   7.244
51795W        W52660   9.077   2.536   3.976
51796W        W52661   7.509   1.319   5.669
51797W        W52662   8.402   1.210   6.906
51798W        W52663  10.861   1.069   5.405
51799W        W52664  10.625   2.112   6.264
51800W        W52665   8.933   1.445   5.291
51801W        W52666   9.479   2.784   5.660
51802W        W52667   7.979   2.218   5.892
51803W        W52668   7.338   1.746   5.463
51804W        W52669   8.374   1.718   6.655
51805W        W52670  10.645   1.501   6.909
51806W        W52671   8.261   2.945   5.354
51807W        W52672   9.382   2.634   6.488
51808W        W52673   8.602   1.274   5.713
51809W        W52674   8.894   2.058   5.356
51810W        W52675   9.891   2.831   7.204
51811W        W52676   8.970   2.151   7.214
51812W        W52677   8.951   1.867   6.692
51813W        W52678   7.360   1.258   7.214
51814W        W52679  10.192   2.793   6.813
51815W        W52680   7.773   0.375   4.811
51816W        W52681   8.300   2.633   5.810
51817W        W52682  10.763   2.416   5.100
51818W        W52683  10.176   0.816   5.667
51819W        W52684  10.461   0.769   3.762
51820W        W52685  10.926   1.570   6.068
51821W        W52686   8.893   3.277   5.821
51822W        W52687  10.667   2.743   4.259
51823W        W52688   7.796   3.529   4.013
51824W        W52689   8.189   3.575   4.689
51825W        W52690   7.986   0.329   6.115
51826W        W52691  10.609   1.347   6.390
51827W        W52692  10.014   1.769   4.849
51828W        W52693   9.980   1.457   3.876
51829W        W52694   9.188   2.601   6.016
51830W        W52695   8.994   0.931   5.215
51831W        W52696   9.594   3.018   6.209
51832W        W52697  10.465   1.809   4.631
51833W        W52698   9.367   0.467   4.647
51834W        W52699   8.024   3.161   4.330
51835W        W52700   7.395   0.660   4.929
51836W        W52701  10.181   1.267   5.403
51837W        W52702   7.639   2.884   5.318
51838W        W52703   8.980   3.234   4.188
51839W        W52704  10.372   1.260   3.652
51840W        W52705   7.395   3.018   5.816
51841W        W52706   8.186   2.590   6.296
51842W        W52707   8.559   1.950   4.915
51843W        W52708   8.581   0.355   6.008
51844W        W52709  10.810   0.117   5.305
51845W        W52710   8.029   1.989   3.773
51846W        W52711   7.684   1.022   3.952
51847W        W52712   7.746   2.978   4.746
51848W        W52713   8.877   2.461   4.994
51849W        W52714  10.209   3.320   6.708
51850W        W52715   9.135   0.962   4.392
51851W        W52716  10.518   3.360   5.164
51852W        W52717  10.195   1.213   6.762
51853W        W52718  10.908   2.869   4.896
51854W        W52719   9.535   2.161   6.380
51855W        W52720   7.301   1.712   4.586
51856W        W52721   8.412   2.127   6.159
51857W        W52722   9.616   1.391   4.537
51858W        W52723   9.493   1.881   4.641
51859W        W52724   7.836   1.301   6.115
51860W        W52725   7.821   1.177   7.037
51861W        W52726   7.711   0.094   5.196
51862W        W52727   9.479   0.441   5.757
51863W        W52728   9.127   0.626   6.920
51864W        W52729   9.482   0.775   4.098
51865W        W52730  10.665   3.168   6.852
51866W        W52731   9.632   0.249   6.891
51867W        W52732  10.651   2.550   7.013
51868W        W52733  10.081   0.717   6.609
51869W        W52734   9.881   0.655   4.879
51870W        W52735  10.274   1.789   7.283
51871W        W52736   8.014   3.365   5.269
51872W        W52737   8.672   1.082   4.255
51873W        W52738   8.241   0.366   6.919
51874W        W52739  10.293   0.850   4.600
51875W        W52740  10.660   1.332   4.545
51876W        W52741   8.403   3.549   7.016
51877W        W52742   8.329   0.085   4.251
51878W        W52743  10.650   0.619   5.286
51879W        W52744  10.800   2.868   3.731
51880W        W52745   7.707   2.071   5.433
51881W        W52746   9.624   0.658   3.663
51882W        W52747  10.758   2.990   5.383
51883W        W52748  10.797   0.184   6.133
51884W        W52749   9.242   1.396   6.687
51885W        W52750   9.335   2.735   4.390
51886W        W52751   9.735   2.029   7.130
51887W        W52752   9.409   0.006   5.439
51888W        W52753   8.021   0.909   5.502
51889W        W52754   7.575   2.109   6.276
51890W        W52755   9.434   3.302   4.982
51891W        W52756  10.628   0.899   5.854
51892W        W52757   9.265   3.246   6.621
51893W        W52758  10.608   2.305   3.826
51894W        W52759   9.043   1.788   4.887
51895W        W52760  10.895   0.299   6.628
51896W        W52761   9.044   2.134   6.222
51897W        W52762   9.261   1.020   5.667
51898W        W52763  10.113   1.318   4.505
51899W        W52764  10.400   1.051   4.147
51900W        W52765  10.209   3.091   4.536
51901W        W52766  10.043   2.694   5.332
51902W        W52767   9.939   1.773   4.310
51903W        W52768   9.372   1.983   5.296
51904W        W52769  10.253   1.771   5.363
51905W        W52770   7.628   0.786   5.787
51906W        W52771  10.406   1.838   6.614
51907W        W52772  10.757   3.456   5.760
51908W        W52773   8.687   2.900   5.162
51909W        W52774   9.694   3.433   6.486
51910W        W52775   9.688   0.763   6.250
51911W        W52776   8.895   3.471   6.311
51912W        W52777  10.592   0.425   4.777
51913W        W52778  10.383   1.744   6.078
51914W        W52779   7.366   1.065   6.116
51915W        W52780  10.226   0.860   5.134
51916W        W52781  10.637   1.011   6.911
51917W        W52782   9.522   2.710   5.129
51918W        W52783   8.778   3.301   4.742
51919W        W52784   7.893   0.481   4.000
51920W        W52785   8.997   0.135   5.810
51921W        W52786   8.025   3.255   3.658
51922W        W52787   8.399   1.721   4.409
51923W        W52788   9.053   2.350   6.722
51924W        W52789   8.883   0.708   4.712
51925W        W52790  10.239   0.305   5.140
51926W        W52791   9.959   3.587   5.468
51927W        W52792   9.371   3.235   5.808
51928W        W52793   8.767   2.272   5.769
51929W        W52794  10.537   2.995   5.895
51930W        W52795   8.231   0.498   4.664
51931W        W52796   8.753   2.795   5.624
51932W        W52797   8.236   0.726   3.689
51933W        W52798   9.037   1.335   6.083
51934W        W52799   9.885   0.201   5.953
51935W        W52800   7.305   2.044   5.838
51936W        W52801   9.009   1.862   3.996
51937W        W52802   8.277   0.177   3.766
51938W        W52803   9.015   1.258   4.817
51939W        W52804   9.985   0.234   6.516
51940W        W52805   8.573   2.246   6.625
51941W        W52806   9.377   2.028   6.842
51942W        W52807   9.994   2.058   6.735
51943W        W52808   9.278   0.198   7.240
51944W        W52809   8.500   0.814   5.633
51945W        W52810   7.926   0.770   5.031
51946W        W52811   7.712   3.482   4.707
51947W        W52812   9.044   2.812   6.832
51948W        W52813   8.079   2.297   4.191
51949W        W52814   9.759   1.682   5.412
51950W        W52815  10.039   1.481   5.811
51951W        W52816   9.244   2.155   5.745
51952W        W52817   9.714   2.529   3.877
51953W        W52818   9.386   0.550   5.205
51954W        W52819  10.865   0.828   4.473
51955W        W52820   7.359   3.417   6.504
51956W        W52821   7.776   2.643   6.036
51957W        W52822   7.343   3.489   4.268
51958W        W52823   9.242   0.759   6.074
51959W        W52824   8.605   2.782   3.923
51960W        W52825  10.510   3.164   4.109
51961W        W52826   9.485   1.817   4.123
51962W        W52827   8.328   1.008   4.640
51963W        W52828   9.160   0.918   3.692
51964W        W52829   9.744   2.483   6.870
51965W        W52830  10.097   0.389   4.487
51966W        W52831   7.427   0.237   3.935
51967W        W52832   8.713   2.556   6.225
51968W        W52833   8.512   2.472   5.317
51969W        W52834   8.254   2.424   3.715
51970W        W52835   7.495   2.665   4.483
51971W        W52836   7.999   1.735   6.925
51972W        W52837   8.703   0.295   7.111
51973W        W52838   9.412   0.437   6.467
51974W        W52839   8.607   0.205   4.748
51975W        W52840   9.666   0.282   4.253
51976W        W52841   7.611   0.214   5.830
51977W        W52842   7.659   1.177   5.200
51978W        W52843  10.348   0.285   5.606
51979W        W52844   7.770   0.783   4.420
51980W        W52845  10.341   0.471   6.036
51981W        W52846  10.737   1.674   3.721
51982W        W52847   8.029   0.432   5.540
51983W        W52848   9.143   1.004   6.480
51984W        W52849   7.291   0.694   3.958
51985W        W52850   8.077   2.083   6.519
51986W        W52851   9.435   1.481   5.698
51987W        W52852   9.302   3.560   3.994
51988W        W52853   7.448   2.067   3.691
51989W        W52854   8.183   2.478   6.817
51990W        W52855   7.704   1.645   6.448
51991W        W52856   8.695   1.750   6.242
51992W        W52857  10.463   0.109   6.504
51993W        W52858  10.861   1.719   6.495
51994W        W52859  10.849   1.919   4.181
51995W        W52860   9.712   2.251   4.280
51996W        W52861  10.186   3.551   3.975
51997W        W52862   9.363   1.541   7.117
51998W        W52863   7.693   2.508   7.157
51999W        W52864  10.899   0.430   7.109
52000W        W52865  10.617   1.358   5.730
52001W        W52866   8.925   3.488   7.207
52002W        W52867   8.780   0.117   3.934
52003W        W52868  10.319   2.716   3.877
52004W        W52869   8.088   0.809   6.763
52005W        W52870   8.522   2.803   6.625
52006W        W52871  10.648   0.794   6.423
52007W        W52872   9.859   3.453   4.391
52008W        W52873  10.098   2.072   5.758
52009W        W52874   8.348   0.488   6.425
52010W        W52875   8.817   1.557   7.182
52011W        W52876   8.320   2.736   4.376
52012W        W52877  10.075   2.234   4.640
52013W        W52878   7.843   0.860   6.364
52014W        W52879   9.172   2.922   4.828
52015W        W52880  10.922   1.482   5.009
52016W        W52881   9.144   0.115   6.728
52017W        W52882   9.924   2.820   5.807
52018W        W52883  10.227   3.164   5.515
52019W        W52884   9.446   2.966   3.943
52020W        W52885   7.456   2.858   6.785
52021W        W52886   8.199   0.850   6.023
52022W        W52887   8.169   0.198   5.133
52023W        W52888   9.790   1.040   5.825
52024W        W52889   8.588   2.211   4.025
52025W        W52890  10.586   2.153   5.524
52026W        W52891   7.913   2.911   6.947
52027W        W52892  10.300   3.593   4.744
52028W        W52893   8.399   0.613   5.189
52029W        W52894   8.168   2.106   5.279
52030W        W52895   8.481   3.517   6.029
52031W        W52896  10.548   3.613   7.061
52032W        W52897   9.707   1.801   5.994
52033W        W52898   7.556   1.599   3.909
52034W        W52899  10.690   3.257   4.606
52035W        W52900  10.527   0.581   4.225
52036W        W52901   8.666   0.100   6.628
52037W        W52902  10.372   2.902   5.086
52038W        W52903  10.401   1.458   4.991
52039W        W52904   8.518   1.131   5.207
52040W        W52905   8.763   1.393   6.531
52041W        W52906   9.874   2.546   6.394
52042W        W52907   8.524   1.000   6.506
52043W        W52908   8.503   3.466   5.122
52044W        W52909   7.820   3.425   6.756
52045W        W52910   7.932   2.786   3.886
52046W        W52911  10.449   2.544   4.696
52047W        W52912   8.053   1.336   6.582
52048W        W52913  10.826   1.266   4.063
52049W        W52914   8.571   2.323   4.534
52050W        W52915   9.670   1.705   6.615
52051W        W52916   9.561   1.333   6.159
52052W        W52917   8.121   1.705   6.188
52053W        W52918  10.331   3.593   6.017
52054W        W52919  10.122   0.227   7.011
52055W        W52920   7.786   0.377   6.598
52056W        W52921   8.125   1.400   5.651
52057W        W52922   8.494   1.214   3.773
52058W        W52923   7.297   2.973   6.318
52059W        W52924   8.882   1.682   5.761
52060W        W52925   8.705   0.707   3.866
52061W        W52926   7.840   1.523   4.647
52062W        W52927   7.611   3.375   6.084
52063W        W52928  10.406   1.601   4.192
52064W        W52929  10.501   0.517   6.878
52065W        W52930   9.937   2.726   4.841
52066W        W52931   7.535   1.650   7.018
52067W        W52932  10.501   0.114   4.314
52068W        W52933  10.021   2.589   4.325
52069W        W52934   8.923   1.647   4.410
52070W        W52935  10.110   0.451   3.933
52071W        W52936  10.175   1.058   6.119
52072W        W52937   7.884   1.651   5.326
52073W        W52938   8.178   2.590   4.975
52074W        W52939   9.941   1.210   4.940
52075W        W52940   8.964   0.589   5.636
52076W        W52941  10.926   2.500   6.147
52077W        W52942  10.844   0.487   5.708
52078W        W52943   7.383   3.317   5.084
52079W        W52944   7.892   2.504   4.620
52080W        W52945   7.807   0.121   7.173
52081W        W52946   8.926   2.974   7.275
52082W        W52947  10.681   1.942   5.065
52083W        W52948  10.035   2.119   3.945
52084W        W52949   9.330   3.640   6.157
52085W        W52950  10.187   2.362   7.194
52086W        W52951   9.002   0.072   4.474
52087W        W52952   9.715   0.941   5.333
52088W        W52953   7.401   2.528   5.665
52089W        W52954   8.654   0.490   4.306
52090W        W52955   8.458   1.974   7.155
52091W        W52956   9.452   0.955   4.869
52092W        W52957   9.657   2.365   5.991
52093W        W52958   7.811   2.970   6.426
52094W        W52959   8.402   2.953   7.149
52095W        W52960   8.253   0.750   4.163
52096W        W52961   9.770   0.892   4.488
52097W        W52962   9.728   3.000   6.725
52098W        W52963   8.413   1.592   5.324
52099W        W52964   8.068   3.290   6.189
52100W        W52965  10.813   3.407   3.790
52101W        W52966   7.676   2.079   6.786
52102W        W52967   9.671   2.341   5.474
52103W        W52968   8.107   1.990   4.716
52104W        W52969   8.478   2.997   6.111
52105W        W52970   8.856   0.416   5.152
52106W        W52971   7.467   2.400   4.082
52107W        W52972   8.986   1.351   3.952
52108W        W52973   7.632   1.900   4.971
52109W        W52974   8.922   0.542   6.435
52110W        W52975  10.594   0.251   3.862
52111W        W52976  10.687   1.997   6.961
52112W        W52977   9.341   3.254   7.113
52113W        W52978  10.899   2.348   6.635
52114W        W52979  10.307   3.146   7.246
52115W        W52980   8.046   3.602   5.724
52116W        W52981  10.905   2.224   4.598
52117W        W52982   9.435   1.491   5.111
52118W        W52983   9.202   0.103   5.001
52119W        W52984   8.261   3.087   4.838
52120W        W52985   8.760   0.828   6.063
52121W        W52986   8.460   0.197   5.532
52122W        W52987   7.523   3.019   4.080
52123W        W52988   9.339   2.383   4.798
52124W        W52989   8.214   3.178   6.677
52125W        W52990   7.691   2.001   4.373
52126W        W52991   7.576   0.544   5.372
52127W        W52992   9.124   2.509   5.429
52128W        W52993   7.376   0.363   4.449
52129W        W52994  10.040   1.569   6.376
52130W        W52995   9.917   0.955   3.948
52131W        W52996  10.434   2.627   5.596
52132W        W52997   9.095   3.111   5.427
52133W        W52998   8.507   3.215   4.338
52134W        W52999   9.789   0.118   3.768
52135W        W53000   7.589   3.378   5.509
52136W        W53001   9.786   1.136   7.144
52137W        W53002   7.769   0.666   7.143
52138W        W53003   7.500   1.266   4.476
52139W        W53004   8.191   1.255   4.201
52140W        W53005   9.954   1.582   7.018
52141W        W53006   8.297   1.863   5.727
52142W        W53007   9.771   0.149   4.847
52143W        W53008   8.902   3.580   5.350
52144W        W53009  10.116   3.042   6.287
52145W        W53010   9.700   3.191   5.398
52146W        W53011   9.719   2.171   4.992
52147W        W53012   9.181   0.396   4.063
52148W        W53013  10.862   0.024   4.785
52149W        W53014   8.550   1.659   3.948
52150W        W53015  10.716   0.996   4.938
52151W        W53016   9.408   2.166   3.815
52152W        W53017  10.344   2.366   6.563
52153W        W53018   9.998   3.067   4.030
52154W        W53019   8.613   0.742   6.936
52155W        W53020   8.433   1.326   6.177
52156W        W53021  10.525   2.821   6.454
52157W        W53022   9.625   0.771   6.831
52158W        W53023   7.469   1.242   6.608
52159W        W53024   9.229   1.719   6.334
52160W        W53025   7.586   2.477   4.991
52161W        W53026   7.733   1.774   5.881
52162W        W53027  10.050   2.060   6.231
52163W        W53028   9.822   3.440   7.042
52164W        W53029   9.718   1.179   6.595
52165W        W53030   9.995   3.233   5.000
52166W        W53031   8.997   2.953   6.323
52167W        W53032   8.482   3.308   5.592
52168W        W53033  10.287   2.479   6.011
52169W        W53034   9.337   2.551   7.148
52170W        W53035   7.942   2.504   5.487
52171W        W53036  10.288   2.263   5.132
52172W        W53037   9.929   3.329   5.883
52173W        W53038   7.907   3.058   5.753
52174W        W53039   8.928   1.110   6.963
52175W        W53040   9.379   3.276   4.474
52176W        W53041   8.687   2.531   7.112
52177W        W53042   8.813   2.769   4.489
52178W        W53043   8.034   1.509   3.748
52179W        W53044   7.373   3.595  10.648
52180W        W53045   7.749   2.488  10.171
52181W        W53046  10.454   2.218   7.941
52182W        W53047  10.584   3.303   9.968
52183W        W53048   8.502   3.294   7.494
52184W        W53049   8.585   1.446   8.477
52185W        W53050   8.100   1.294   8.641
52186W        W53051   9.091   2.109   8.075
52187W        W53052   8.766   3.201  10.430
52188W        W53053   7.415   0.762  10.393
52189W        W53054   8.177   0.042  10.195
52190W        W53055   9.871   0.430   9.082
52191W        W53056   9.520   1.301   7.652
52192W        W53057  10.090   0.735  10.743
52193W        W53058   7.456   0.527   9.868
52194W        W53059   7.555   3.146  10.889
52195W        W53060   9.077   2.536   7.621
52196W        W53061   7.509   1.319   9.314
52197W        W53062   8.402   1.210  10.551
52198W        W53063  10.861   1.069   9.050
52199W        W53064  10.625   2.112   9.909
52200W        W53065   8.933   1.445   8.936
52201W        W53066   9.479   2.784   9.305
52202W        W53067   7.979   2.218   9.537
52203W        W53068   7.338   1.746   9.108
52204W        W53069   8.374   1.718  10.300
52205W        W53070  10.645   1.501  10.554
52206W        W53071   8.261   2.945   8.999
52207W        W53072   9.382   2.634  10.133
52208W        W53073   8.602   1.274   9.358
52209W        W53074   8.894   2.058   9.001
52210W        W53075   9.891   2.831  10.849
52211W        W53076   8.970   2.151  10.859
52212W        W53077   8.951   1.867  10.337
52213W        W53078   7.360   1.258  10.859
52214W        W53079  10.192   2.793  10.458
52215W        W53080   7.773   0.375   8.456
52216W        W53081   8.300   2.633   9.455
52217W        W53082  10.763   2.416   8.745
52218W        W53083  10.176   0.816   9.312
52219W        W53084  10.461   0.769   7.407
52220W        W53085  10.926   1.570   9.713
52221W        W53086   8.893   3.277   9.466
52222W        W53087  10.667   2.743   7.904
52223W        W53088   7.796   3.529   7.658
52224W        W53089   8.189   3.575   8.334
52225W        W53090   7.986   0.329   9.760
52226W        W53091  10.609   1.347  10.035
52227W        W53092  10.014   1.769   8.494
52228W        W53093   9.980   1.457   7.521
52229W        W53094   9.188   2.601   9.661
52230W        W53095   8.994   0.931   8.860
52231W        W53096   9.594   3.018   9.854
52232W        W53097  10.465   1.809   8.276
52233W        W53098   9.367   0.467   8.292
52234W        W53099   8.024   3.161   7.975
52235W        W53100   7.395   0.660   8.574
52236W        W53101  10.181   1.267   9.048
52237W        W53102   7.639   2.884   8.963
52238W        W53103   8.980   3.234   7.833
52239W        W53104  10.372   1.260   7.297
52240W        W53105   7.395   3.018   9.461
52241W        W53106   8.186   2.590   9.941
52242W        W53107   8.559   1.950   8.560
52243W        W53108   8.581   0.355   9.653
52244W        W53109  10.810   0.117   8.950
52245W        W53110   8.029   1.989   7.418
52246W        W53111   7.684   1.022   7.597
52247W        W53112   7.746   2.978   8.391
52248W        W53113   8.877   2.461   8.639
52249W        W53114  10.209   3.320  10.353
52250W        W53115   9.135   0.962   8.037
52251W        W53116  10.518   3.360   8.809
52252W        W53117  10.195   1.213  10.407
52253W        W53118  10.908   2.869   8.541
52254W        W53119   9.535   2.161  10.025
52255W        W53120   7.301   1.712   8.231
52256W        W53121   8.412   2.127   9.804
52257W        W53122   9.616   1.391   8.182
52258W        W53123   9.493   1.881   8.286
52259W        W53124   7.836   1.301   9.760
52260W        W53125   7.821   1.177  10.682
52261W        W53126   7.711   0.094   8.841
52262W        W53127   9.479   0.441   9.402
52263W        W53128   9.127   0.626  10.565
52264W        W53129   9.482   0.775   7.743
52265W        W53130  10.665   3.168  10.497
52266W        W53131   9.632   0.249  10.536
52267W        W53132  10.651   2.550  10.658
52268W        W53133  10.081   0.717  10.254
52269W        W53134   9.881   0.655   8.524
52270W        W53135  10.274   1.789  10.928
52271W        W53136   8.014   3.365   8.914
52272W        W53137   8.672   1.082   7.900
52273W        W53138   8.241   0.366  10.564
52274W        W53139  10.293   0.850   8.245
52275W        W53140  10.660   1.332   8.190
52276W        W53141   8.403   3.549  10.661
52277W        W53142   8.329   0.085   7.896
52278W        W53143  10.650   0.619   8.931
52279W        W53144  10.800   2.868   7.376
52280W        W53145   7.707   2.071   9.078
52281W        W53146   9.624   0.658   7.308
52282W        W53147  10.758   2.990   9.028
52283W        W53148  10.797   0.184   9.778
52284W        W53149   9.242   1.396  10.332
52285W        W53150   9.335   2.735   8.035
52286W        W53151   9.735   2.029  10.775
52287W        W53152   9.409   0.006   9.084
52288W        W53153   8.021   0.909   9.147
52289W        W53154   7.575   2.109   9.921
52290W        W53155   9.434   3.302   8.627
52291W        W53156  10.628   0.899   9.499
52292W        W53157   9.265   3.246  10.266
52293W        W53158  10.608   2.305   7.471
52294W        W53159   9.043   1.788   8.532
52295W        W53160  10.895   0.299  10.273
52296W        W53161   9.044   2.134   9.867
52297W        W53162   9.261   1.020   9.312
52298W        W53163  10.113   1.318   8.150
52299W        W53164  10.400   1.051   7.792
52300W        W53165  10.209   3.091   8.181
52301W        W53166  10.043   2.694   8.977
52302W        W53167   9.939   1.773   7.955
52303W        W53168   9.372   1.983   8.941
52304W        W53169  10.253   1.771   9.008
52305W        W53170   7.628   0.786   9.432
52306W        W53171  10.406   1.838  10.259
52307W        W53172  10.757   3.456   9.405
52308W        W53173   8.687   2.900   8.807
52309W        W53174   9.694   3.433  10.131
52310W        W53175   9.688   0.763   9.895
52311W        W53176   8.895   3.471   9.956
52312W        W53177  10.592   0.425   8.422
52313W        W53178  10.383   1.744   9.723
52314W        W53179   7.366   1.065   9.761
52315W        W53180  10.226   0.860   8.779
52316W        W53181  10.637   1.011  10.556
52317W        W53182   9.522   2.710   8.774
52318W        W53183   8.778   3.301   8.387
52319W        W53184   7.893   0.481   7.645
52320W        W53185   8.997   0.135   9.455
52321W        W53186   8.025   3.255   7.303
52322W        W53187   8.399   1.721   8.054
52323W        W53188   9.053   2.350  10.367
52324W        W53189   8.883   0.708   8.357
52325W        W53190  10.239   0.305   8.785
52326W        W53191   9.959   3.587   9.113
52327W        W53192   9.371   3.235   9.453
52328W        W53193   8.767   2.272   9.414
52329W        W53194  10.537   2.995   9.540
52330W        W53195   8.231   0.498   8.309
52331W        W53196   8.753   2.795   9.269
52332W        W53197   8.236   0.726   7.334
52333W        W53198   9.037   1.335   9.728
52334W        W53199   9.885   0.201   9.598
52335W        W53200   7.305   2.044   9.483
52336W        W53201   9.009   1.862   7.641
52337W        W53202   8.277   0.177   7.411
52338W        W53203   9.015   1.258   8.462
52339W        W53204   9.985   0.234  10.161
52340W        W53205   8.573   2.246  10.270
52341W        W53206   9.377   2.028  10.487
52342W        W53207   9.994   2.058  10.380
52343W        W53208   9.278   0.198  10.885
52344W        W53209   8.500   0.814   9.278
52345W        W53210   7.926   0.770   8.676
52346W        W53211   7.712   3.482   8.352
52347W        W53212   9.044   2.812  10.477
52348W        W53213   8.079   2.297   7.836
52349W        W53214   9.759   1.682   9.057
52350W        W53215  10.039   1.481   9.456
52351W        W53216   9.244   2.155   9.390
52352W        W53217   9.714   2.529   7.522
52353W        W53218   9.386   0.550   8.850
52354W        W53219  10.865   0.828   8.118
52355W        W53220   7.359   3.417  10.149
52356W        W53221   7.776   2.643   9.681
52357W        W53222   7.343   3.489   7.913
52358W        W53223   9.242   0.759   9.719
52359W        W53224   8.605   2.782   7.568
52360W        W53225  10.510   3.164   7.754
52361W        W53226   9.485   1.817   7.768
52362W        W53227   8.328   1.008   8.285
52363W        W53228   9.160   0.918   7.337
52364W        W53229   9.744   2.483  10.515
52365W        W53230  10.097   0.389   8.132
52366W        W53231   7.427   0.237   7.580
52367W        W53232   8.713   2.556   9.870
52368W        W53233   8.512   2.472   8.962
52369W        W53234   8.254   2.424   7.360
52370W        W53235   7.495   2.665   8.128
52371W        W53236   7.999   1.735  10.570
52372W        W53237   8.703   0.295  10.756
52373W        W53238   9.412   0.437  10.112
52374W        W53239   8.607   0.205   8.393
52375W        W53240   9.666   0.282   7.898
52376W        W53241   7.611   0.214   9.475
52377W        W53242   7.659   1.177   8.845
52378W        W53243  10.348   0.285   9.251
52379W        W53244   7.770   0.783   8.065
52380W        W53245  10.341   0.471   9.681
52381W        W53246  10.737   1.674   7.366
52382W        W53247   8.029   0.432   9.185
52383W        W53248   9.143   1.004  10.125
52384W        W53249   7.291   0.694   7.603
52385W        W53250   8.077   2.083  10.164
52386W        W53251   9.435   1.481   9.343
52387W        W53252   9.302   3.560   7.639
52388W        W53253   7.448   2.067   7.336
52389W        W53254   8.183   2.478  10.462
52390W        W53255   7.704   1.645  10.093
52391W        W53256   8.695   1.750   9.887
52392W        W53257  10.463   0.109  10.149
52393W        W53258  10.861   1.719  10.140
52394W        W53259  10.849   1.919   7.826
52395W        W53260   9.712   2.251   7.925
52396W        W53261  10.186   3.551   7.620
52397W        W53262   9.363   1.541  10.762
52398W        W53263   7.693   2.508  10.802
52399W        W53264  10.899   0.430  10.754
52400W        W53265  10.617   1.358   9.375
52401W        W53266   8.925   3.488  10.852
52402W        W53267   8.780   0.117   7.579
52403W        W53268  10.319   2.716   7.522
52404W        W53269   8.088   0.809  10.408
52405W        W53270   8.522   2.803  10.270
52406W        W53271  10.648   0.794  10.068
52407W        W53272   9.859   3.453   8.036
52408W        W53273  10.098   2.072   9.403
52409W        W53274   8.348   0.488  10.070
52410W        W53275   8.817   1.557  10.827
52411W        W53276   8.320   2.736   8.021
52412W        W53277  10.075   2.234   8.285
52413W        W53278   7.843   0.860  10.009
52414W        W53279   9.172   2.922   8.473
52415W        W53280  10.922   1.482   8.654
52416W        W53281   9.144   0.115  10.373
52417W        W53282   9.924   2.820   9.452
52418W        W53283  10.227   3.164   9.160
52419W        W53284   9.446   2.966   7.588
52420W        W53285   7.456   2.858  10.430
52421W        W53286   8.199   0.850   9.668
52422W        W53287   8.169   0.198   8.778
52423W        W53288   9.790   1.040   9.470
52424W        W53289   8.588   2.211   7.670
52425W        W53290  10.586   2.153   9.169
52426W        W53291   7.913   2.911  10.592
52427W        W53292  10.300   3.593   8.389
52428W        W53293   8.399   0.613   8.834
52429W        W53294   8.168   2.106   8.924
52430W        W53295   8.481   3.517   9.674
52431W        W53296  10.548   3.613  10.706
52432W        W53297   9.707   1.801   9.639
52433W        W53298   7.556   1.599   7.554
52434W        W53299  10.690   3.257   8.251
52435W        W53300  10.527   0.581   7.870
52436W        W53301   8.666   0.100  10.273
52437W        W53302  10.372   2.902   8.731
52438W        W53303  10.401   1.458   8.636
52439W        W53304   8.518   1.131   8.852
52440W        W53305   8.763   1.393  10.176
52441W        W53306   9.874   2.546  10.039
52442W        W53307   8.524   1.000  10.151
52443W        W53308   8.503   3.466   8.767
52444W        W53309   7.820   3.425  10.401
52445W        W53310   7.932   2.786   7.531
52446W        W53311  10.449   2.544   8.341
52447W        W53312   8.053   1.336  10.227
52448W        W53313  10.826   1.266   7.708
52449W        W53314   8.571   2.323   8.179
52450W        W53315   9.670   1.705  10.260
52451W        W53316   9.561   1.333   9.804
52452W        W53317   8.121   1.705   9.833
52453W        W53318  10.331   3.593   9.662
52454W        W53319  10.122   0.227  10.656
52455W        W53320   7.786   0.377  10.243
52456W        W53321   8.125   1.400   9.296
52457W        W53322   8.494   1.214   7.418
52458W        W53323   7.297   2.973   9.963
52459W        W53324   8.882   1.682   9.406
52460W        W53325   8.705   0.707   7.511
52461W        W53326   7.840   1.523   8.292
52462W        W53327   7.611   3.375   9.729
52463W        W53328  10.406   1.601   7.837
52464W        W53329  10.501   0.517  10.523
52465W        W53330   9.937   2.726   8.486
52466W        W53331   7.535   1.650  10.663
52467W        W53332  10.501   0.114   7.959
52468W        W53333  10.021   2.589   7.970
52469W        W53334   8.923   1.647   8.055
52470W        W53335  10.110   0.451   7.578
52471W        W53336  10.175   1.058   9.764
52472W        W53337   7.884   1.651   8.971
52473W        W53338   8.178   2.590   8.620
52474W        W53339   9.941   1.210   8.585
52475W        W53340   8.964   0.589   9.281
52476W        W53341  10.926   2.500   9.792
52477W        W53342  10.844   0.487   9.353
52478W        W53343   7.383   3.317   8.729
52479W        W53344   7.892   2.504   8.265
52480W        W53345   7.807   0.121  10.818
52481W        W53346   8.926   2.974  10.920
52482W        W53347  10.681   1.942   8.710
52483W        W53348  10.035   2.119   7.590
52484W        W53349   9.330   3.640   9.802
52485W        W53350  10.187   2.362  10.839
52486W        W53351   9.002   0.072   8.119
52487W        W53352   9.715   0.941   8.978
52488W        W53353   7.401   2.528   9.310
52489W        W53354   8.654   0.490   7.951
52490W        W53355   8.458   1.974  10.800
52491W        W53356   9.452   0.955   8.514
52492W        W53357   9.657   2.365   9.636
52493W        W53358   7.811   2.970  10.071
52494W        W53359   8.402   2.953  10.794
52495W        W53360   8.253   0.750   7.808
52496W        W53361   9.770   0.892   8.133
52497W        W53362   9.728   3.000  10.370
52498W        W53363   8.413   1.592   8.969
52499W        W53364   8.068   3.290   9.834
52500W        W53365  10.813   3.407   7.435
52501W        W53366   7.676   2.079  10.431
52502W        W53367   9.671   2.341   9.119
52503W        W53368   8.107   1.990   8.361
52504W        W53369   8.478   2.997   9.756
52505W        W53370   8.856   0.416   8.797
52506W        W53371   7.467   2.400   7.727
52507W        W53372   8.986   1.351   7.597
52508W        W53373   7.632   1.900   8.616
52509W        W53374   8.922   0.542  10.080
52510W        W53375  10.594   0.251   7.507
52511W        W53376  10.687   1.997  10.606
52512W        W53377   9.341   3.254  10.758
52513W        W53378  10.899   2.348  10.280
52514W        W53379  10.307   3.146  10.891
52515W        W53380   8.046   3.602   9.369
52516W        W53381  10.905   2.224   8.243
52517W        W53382   9.435   1.491   8.756
52518W        W53383   9.202   0.103   8.646
52519W        W53384   8.261   3.087   8.483
52520W        W53385   8.760   0.828   9.708
52521W        W53386   8.460   0.197   9.177
52522W        W53387   7.523   3.019   7.725
52523W        W53388   9.339   2.383   8.443
52524W        W53389   8.214   3.178  10.322
52525W        W53390   7.691   2.001   8.018
52526W        W53391   7.576   0.544   9.017
52527W        W53392   9.124   2.509   9.074
52528W        W53393   7.376   0.363   8.094
52529W        W53394  10.040   1.569  10.021
52530W        W53395   9.917   0.955   7.593
52531W        W53396  10.434   2.627   9.241
52532W        W53397   9.095   3.111   9.072
52533W        W53398   8.507   3.215   7.983
52534W        W53399   9.789   0.118   7.413
52535W        W53400   7.589   3.378   9.154
52536W        W53401   9.786   1.136  10.789
52537W        W53402   7.769   0.666  10.788
52538W        W53403   7.500   1.266   8.121
52539W        W53404   8.191   1.255   7.846
52540W        W53405   9.954   1.582  10.663
52541W        W53406   8.297   1.863   9.372
52542W        W53407   9.771   0.149   8.492
52543W        W53408   8.902   3.580   8.995
52544W        W53409  10.116   3.042   9.932
52545W        W53410   9.700   3.191   9.043
52546W        W53411   9.719   2.171   8.637
52547W        W53412   9.181   0.396   7.708
52548W        W53413  10.862   0.024   8.430
52549W        W53414   8.550   1.659   7.593
52550W        W53415  10.716   0.996   8.583
52551W        W53416   9.408   2.166   7.460
52552W        W53417  10.344   2.366  10.208
52553W        W53418   9.998   3.067   7.675
52554W        W53419   8.613   0.742  10.581
52555W        W53420   8.433   1.326   9.822
52556W        W53421  10.525   2.821  10.099
52557W        W53422   9.625   0.771  10.476
52558W        W53423   7.469   1.242  10.253
52559W        W53424   9.229   1.719   9.979
52560W        W53425   7.586   2.477   8.636
52561W        W53426   7.733   1.774   9.526
52562W        W53427  10.050   2.060   9.876
52563W        W53428   9.822   3.440  10.687
52564W        W53429   9.718   1.179  10.240
52565W        W53430   9.995   3.233   8.645
52566W        W53431   8.997   2.953   9.968
52567W        W53432   8.482   3.308   9.237
52568W        W53433  10.287   2.479   9.656
52569W        W53434   9.337   2.551  10.793
52570W        W53435   7.942   2.504   9.132
52571W        W53436  10.288   2.263   8.777
52572W        W53437   9.929   3.329   9.528
52573W        W53438   7.907   3.058   9.398
52574W        W53439   8.928   1.110  10.608
52575W        W53440   9.379   3.276   8.119
52576W        W53441   8.687   2.531  10.757
52577W        W53442   8.813   2.769   8.134
52578W        W53443   8.034   1.509   7.393
52579W        W53444   7.373   3.595  14.292
52580W        W53445   7.749   2.488  13.815
52581W        W53446  10.454   2.218  11.585
52582W        W53447  10.584   3.303  13.612
52583W        W53448   8.502   3.294  11.138
52584W        W53449   8.585   1.446  12.121
52585W        W53450   8.100   1.294  12.285
52586W        W53451   9.091   2.109  11.719
52587W        W53452   8.766   3.201  14.074
52588W        W53453   7.415   0.762  14.037
52589W        W53454   8.177   0.042  13.839
52590W        W53455   9.871   0.430  12.726
52591W        W53456   9.520   1.301  11.296
52592W        W53457  10.090   0.735  14.387
52593W        W53458   7.456   0.527  13.512
52594W        W53459   7.555   3.146  14.533
52595W        W53460   9.077   2.536  11.265
52596W        W53461   7.509   1.319  12.958
52597W        W53462   8.402   1.210  14.195
52598W        W53463  10.861   1.069  12.694
52599W        W53464  10.625   2.112  13.553
52600W        W53465   8.933   1.445  12.580
52601W        W53466   9.479   2.784  12.949
52602W        W53467   7.979   2.218  13.181
52603W        W53468   7.338   1.746  12.752
52604W        W53469   8.374   1.718  13.944
52605W        W53470  10.645   1.501  14.198
52606W        W53471   8.261   2.945  12.643
52607W        W53472   9.382   2.634  13.777
52608W        W53473   8.602   1.274  13.002
52609W        W53474   8.894   2.058  12.645
52610W        W53475   9.891   2.831  14.493
52611W        W53476   8.970   2.151  14.503
52612W        W53477   8.951   1.867  13.981
52613W        W53478   7.360   1.258  14.503
52614W        W53479  10.192   2.793  14.102
52615W        W53480   7.773   0.375  12.100
52616W        W53481   8.300   2.633  13.099
52617W        W53482  10.763   2.416  12.389
52618W        W53483  10.176   0.816  12.956
52619W        W53484  10.461   0.769  11.051
52620W        W53485  10.926   1.570  13.357
52621W        W53486   8.893   3.277  13.110
52622W        W53487  10.667   2.743  11.548
52623W        W53488   7.796   3.529  11.302
52624W        W53489   8.189   3.575  11.978
52625W        W53490   7.986   0.329  13.404
52626W        W53491  10.609   1.347  13.679
52627W        W53492  10.014   1.769  12.138
52628W        W53493   9.980   1.457  11.165
52629W        W53494   9.188   2.601  13.305
52630W        W53495   8.994   0.931  12.504
52631W        W53496   9.594   3.018  13.498
52632W        W53497  10.465   1.809  11.920
52633W        W53498   9.367   0.467  11.936
52634W        W53499   8.024   3.161  11.619
52635W        W53500   7.395   0.660  12.218
52636W        W53501  10.181   1.267  12.692
52637W        W53502   7.639   2.884  12.607
52638W        W53503   8.980   3.234  11.477
52639W        W53504  10.372   1.260  10.941
52640W        W53505   7.395   3.018  13.105
52641W        W53506   8.186   2.590  13.585
52642W        W53507   8.559   1.950  12.204
52643W        W53508   8.581   0.355  13.297
52644W        W53509  10.810   0.117  12.594
52645W        W53510   8.029   1.989  11.062
52646W        W53511   7.684   1.022  11.241
52647W        W53512   7.746   2.978  12.035
52648W        W53513   8.877   2.461  12.283
52649W        W53514  10.209   3.320  13.997
52650W        W53515   9.135   0.962  11.681
52651W        W53516  10.518   3.360  12.453
52652W        W53517  10.195   1.213  14.051
52653W        W53518  10.908   2.869  12.185
52654W        W53519   9.535   2.161  13.669
52655W        W53520   7.301   1.712  11.875
52656W        W53521   8.412   2.127  13.448
52657W        W53522   9.616   1.391  11.826
52658W        W53523   9.493   1.881  11.930
52659W        W53524   7.836   1.301  13.404
52660W        W53525   7.821   1.177  14.326
52661W        W53526   7.711   0.094  12.485
52662W        W53527   9.479   0.441  13.046
52663W        W53528   9.127   0.626  14.209
52664W        W53529   9.482   0.775  11.387
52665W        W53530  10.665   3.168  14.141
52666W        W53531   9.632   0.249  14.180
52667W        W53532  10.651   2.550  14.302
52668W        W53533  10.081   0.717  13.898
52669W        W53534   9.881   0.655  12.168
52670W        W53535  10.274   1.789  14.572
52671W        W53536   8.014   3.365  12.558
52672W        W53537   8.672   1.082  11.544
52673W        W53538   8.241   0.366  14.208
52674W        W53539  10.293   0.850  11.889
52675W        W53540  10.660   1.332  11.834
52676W        W53541   8.403   3.549  14.305
52677W        W53542   8.329   0.085  11.540
52678W        W53543  10.650   0.619  12.575
52679W        W53544  10.800   2.868  11.020
52680W        W53545   7.707   2.071  12.722
52681W        W53546   9.624   0.658  10.952
52682W        W53547  10.758   2.990  12.672
52683W        W53548  10.797   0.184  13.422
52684W        W53549   9.242   1.396  13.976
52685W        W53550   9.335   2.735  11.679
52686W        W53551   9.735   2.029  14.419
52687W        W53552   9.409   0.006  12.728
52688W        W53553   8.021   0.909  12.791
52689W        W53554   7.575   2.109  13.565
52690W        W53555   9.434   3.302  12.271
52691W        W53556  10.628   0.899  13.143
52692W        W53557   9.265   3.246  13.910
52693W        W53558  10.608   2.305  11.115
52694W        W53559   9.043   1.788  12.176
52695W        W53560  10.895   0.299  13.917
52696W        W53561   9.044   2.134  13.511
52697W        W53562   9.261   1.020  12.956
52698W        W53563  10.113   1.318  11.794
52699W        W53564  10.400   1.051  11.436
52700W        W53565  10.209   3.091  11.825
52701W        W53566  10.043   2.694  12.621
52702W        W53567   9.939   1.773  11.599
52703W        W53568   9.372   1.983  12.585
52704W        W53569  10.253   1.771  12.652
52705W        W53570   7.628   0.786  13.076
52706W        W53571  10.406   1.838  13.903
52707W        W53572  10.757   3.456  13.049
52708W        W53573   8.687   2.900  12.451
52709W        W53574   9.694   3.433  13.775
52710W        W53575   9.688   0.763  13.539
52711W        W53576   8.895   3.471  13.600
52712W        W53577  10.592   0.425  12.066
52713W        W53578  10.383   1.744  13.367
52714W        W53579   7.366   1.065  13.405
52715W        W53580  10.226   0.860  12.423
52716W        W53581  10.637   1.011  14.200
52717W        W53582   9.522   2.710  12.418
52718W        W53583   8.778   3.301  12.031
52719W        W53584   7.893   0.481  11.289
52720W        W53585   8.997   0.135  13.099
52721W        W53586   8.025   3.255  10.947
52722W        W53587   8.399   1.721  11.698
52723W        W53588   9.053   2.350  14.011
52724W        W53589   8.883   0.708  12.001
52725W        W53590  10.239   0.305  12.429
52726W        W53591   9.959   3.587  12.757
52727W        W53592   9.371   3.235  13.097
52728W        W53593   8.767   2.272  13.058
52729W        W53594  10.537   2.995  13.184
52730W        W53595   8.231   0.498  11.953
52731W        W53596   8.753   2.795  12.913
52732W        W53597   8.236   0.726  10.978
52733W        W53598   9.037   1.335  13.372
52734W        W53599   9.885   0.201  13.242
52735W        W53600   7.305   2.044  13.127
52736W        W53601   9.009   1.862  11.285
52737W        W53602   8.277   0.177  11.055
52738W        W53603   9.015   1.258  12.106
52739W        W53604   9.985   0.234  13.805
52740W        W53605   8.573   2.246  13.914
52741W        W53606   9.377   2.028  14.131
52742W        W53607   9.994   2.058  14.024
52743W        W53608   9.278   0.198  14.529
52744W        W53609   8.500   0.814  12.922
52745W        W53610   7.926   0.770  12.320
52746W        W53611   7.712   3.482  11.996
52747W        W53612   9.044   2.812  14.121
52748W        W53613   8.079   2.297  11.480
52749W        W53614   9.759   1.682  12.701
52750W        W53615  10.039   1.481  13.100
52751W        W53616   9.244   2.155  13.034
52752W        W53617   9.714   2.529  11.166
52753W        W53618   9.386   0.550  12.494
52754W        W53619  10.865   0.828  11.762
52755W        W53620   7.359   3.417  13.793
52756W        W53621   7.776   2.643  13.325
52757W        W53622   7.343   3.489  11.557
52758W        W53623   9.242   0.759  13.363
52759W        W53624   8.605   2.782  11.212
52760W        W53625  10.510   3.164  11.398
52761W        W53626   9.485   1.817  11.412
52762W        W53627   8.328   1.008  11.929
52763W        W53628   9.160   0.918  10.981
52764W        W53629   9.744   2.483  14.159
52765W        W53630  10.097   0.389  11.776
52766W        W53631   7.427   0.237  11.224
52767W        W53632   8.713   2.556  13.514
52768W        W53633   8.512   2.472  12.606
52769W        W53634   8.254   2.424  11.004
52770W        W53635   7.495   2.665  11.772
52771W        W53636   7.999   1.735  14.214
52772W        W53637   8.703   0.295  14.400
52773W        W53638   9.412   0.437  13.756
52774W        W53639   8.607   0.205  12.037
52775W        W53640   9.666   0.282  11.542
52776W        W53641   7.611   0.214  13.119
52777W        W53642   7.659   1.177  12.489
52778W        W53643  10.348   0.285  12.895
52779W        W53644   7.770   0.783  11.709
52780W        W53645  10.341   0.471  13.325
52781W        W53646  10.737   1.674  11.010
52782W        W53647   8.029   0.432  12.829
52783W        W53648   9.143   1.004  13.769
52784W        W53649   7.291   0.694  11.247
52785W        W53650   8.077   2.083  13.808
52786W        W53651   9.435   1.481  12.987
52787W        W53652   9.302   3.560  11.283
52788W        W53653   7.448   2.067  10.980
52789W        W53654   8.183   2.478  14.106
52790W        W53655   7.704   1.645  13.737
52791W        W53656   8.695   1.750  13.531
52792W        W53657  10.463   0.109  13.793
52793W        W53658  10.861   1.719  13.784
52794W        W53659  10.849   1.919  11.470
52795W        W53660   9.712   2.251  11.569
52796W        W53661  10.186   3.551  11.264
52797W        W53662   9.363   1.541  14.406
52798W        W53663   7.693   2.508  14.446
52799W        W53664  10.899   0.430  14.398
52800W        W53665  10.617   1.358  13.019
52801W        W53666   8.925   3.488  14.496
52802W        W53667   8.780   0.117  11.223
52803W        W53668  10.319   2.716  11.166
52804W        W53669   8.088   0.809  14.052
52805W        W53670   8.522   2.803  13.914
52806W        W53671  10.648   0.794  13.712
52807W        W53672   9.859   3.453  11.680
52808W        W53673  10.098   2.072  13.047
52809W        W53674   8.348   0.488  13.714
52810W        W53675   8.817   1.557  14.471
52811W        W53676   8.320   2.736  11.665
52812W        W53677  10.075   2.234  11.929
52813W        W53678   7.843   0.860  13.653
52814W        W53679   9.172   2.922  12.117
52815W        W53680  10.922   1.482  12.298
52816W        W53681   9.144   0.115  14.017
52817W        W53682   9.924   2.820  13.096
52818W        W53683  10.227   3.164  12.804
52819W        W53684   9.446   2.966  11.232
52820W        W53685   7.456   2.858  14.074
52821W        W53686   8.199   0.850  13.312
52822W        W53687   8.169   0.198  12.422
52823W        W53688   9.790   1.040  13.114
52824W        W53689   8.588   2.211  11.314
52825W        W53690  10.586   2.153  12.813
52826W        W53691   7.913   2.911  14.236
52827W        W53692  10.300   3.593  12.033
52828W        W53693   8.399   0.613  12.478
52829W        W53694   8.168   2.106  12.568
52830W        W53695   8.481   3.517  13.318
52831W        W53696  10.548   3.613  14.350
52832W        W53697   9.707   1.801  13.283
52833W        W53698   7.556   1.599  11.198
52834W        W53699  10.690   3.257  11.895
52835W        W53700  10.527   0.581  11.514
52836W        W53701   8.666   0.100  13.917
52837W        W53702  10.372   2.902  12.375
52838W        W53703  10.401   1.458  12.280
52839W        W53704   8.518   1.131  12.496
52840W        W53705   8.763   1.393  13.820
52841W        W53706   9.874   2.546  13.683
52842W        W53707   8.524   1.000  13.795
52843W        W53708   8.503   3.466  12.411
52844W        W53709   7.820   3.425  14.045
52845W        W53710   7.932   2.786  11.175
52846W        W53711  10.449   2.544  11.985
52847W        W53712   8.053   1.336  13.871
52848W        W53713  10.826   1.266  11.352
52849W        W53714   8.571   2.323  11.823
52850W        W53715   9.670   1.705  13.904
52851W        W53716   9.561   1.333  13.448
52852W        W53717   8.121   1.705  13.477
52853W        W53718  10.331   3.593  13.306
52854W        W53719  10.122   0.227  14.300
52855W        W53720   7.786   0.377  13.887
52856W        W53721   8.125   1.400  12.940
52857W        W53722   8.494   1.214  11.062
52858W        W53723   7.297   2.973  13.607
52859W        W53724   8.882   1.682  13.050
52860W        W53725   8.705   0.707  11.155
52861W        W53726   7.840   1.523  11.936
52862W        W53727   7.611   3.375  13.373
52863W        W53728  10.406   1.601  11.481
52864W        W53729  10.501   0.517  14.167
52865W        W53730   9.937   2.726  12.130
52866W        W53731   7.535   1.650  14.307
52867W        W53732  10.501   0.114  11.603
52868W        W53733  10.021   2.589  11.614
52869W        W53734   8.923   1.647  11.699
52870W        W53735  10.110   0.451  11.222
52871W        W53736  10.175   1.058  13.408
52872W        W53737   7.884   1.651  12.615
52873W        W53738   8.178   2.590  12.264
52874W        W53739   9.941   1.210  12.229
52875W        W53740   8.964   0.589  12.925
52876W        W53741  10.926   2.500  13.436
52877W        W53742  10.844   0.487  12.997
52878W        W53743   7.383   3.317  12.373
52879W        W53744   7.892   2.504  11.909
52880W        W53745   7.807   0.121  14.462
52881W        W53746   8.926   2.974  14.564
52882W        W53747  10.681   1.942  12.354
52883W        W53748  10.035   2.119  11.234
52884W        W53749   9.330   3.640  13.446
52885W        W53750  10.187   2.362  14.483
52886W        W53751   9.002   0.072  11.763
52887W        W53752   9.715   0.941  12.622
52888W        W53753   7.401   2.528  12.954
52889W        W53754   8.654   0.490  11.595
52890W        W53755   8.458   1.974  14.444
52891W        W53756   9.452   0.955  12.158
52892W        W53757   9.657   2.365  13.280
52893W        W53758   7.811   2.970  13.715
52894W        W53759   8.402   2.953  14.438
52895W        W53760   8.253   0.750  11.452
52896W        W53761   9.770   0.892  11.777
52897W        W53762   9.728   3.000  14.014
52898W        W53763   8.413   1.592  12.613
52899W        W53764   8.068   3.290  13.478
52900W        W53765  10.813   3.407  11.079
52901W        W53766   7.676   2.079  14.075
52902W        W53767   9.671   2.341  12.763
52903W        W53768   8.107   1.990  12.005
52904W        W53769   8.478   2.997  13.400
52905W        W53770   8.856   0.416  12.441
52906W        W53771   7.467   2.400  11.371
52907W        W53772   8.986   1.351  11.241
52908W        W53773   7.632   1.900  12.260
52909W        W53774   8.922   0.542  13.724
52910W        W53775  10.594   0.251  11.151
52911W        W53776  10.687   1.997  14.250
52912W        W53777   9.341   3.254  14.402
52913W        W53778  10.899   2.348  13.924
52914W        W53779  10.307   3.146  14.535
52915W        W53780   8.046   3.602  13.013
52916W        W53781  10.905   2.224  11.887
52917W        W53782   9.435   1.491  12.400
52918W        W53783   9.202   0.103  12.290
52919W        W53784   8.261   3.087  12.127
52920W        W53785   8.760   0.828  13.352
52921W        W53786   8.460   0.197  12.821
52922W        W53787   7.523   3.019  11.369
52923W        W53788   9.339   2.383  12.087
52924W        W53789   8.214   3.178  13.966
52925W        W53790   7.691   2.001  11.662
52926W        W53791   7.576   0.544  12.661
52927W        W53792   9.124   2.509  12.718
52928W        W53793   7.376   0.363  11.738
52929W        W53794  10.040   1.569  13.665
52930W        W53795   9.917   0.955  11.237
52931W        W53796  10.434   2.627  12.885
52932W        W53797   9.095   3.111  12.716
52933W        W53798   8.507   3.215  11.627
52934W        W53799   9.789   0.118  11.057
52935W        W53800   7.589   3.378  12.798
52936W        W53801   9.786   1.136  14.433
52937W        W53802   7.769   0.666  14.432
52938W        W53803   7.500   1.266  11.765
52939W        W53804   8.191   1.255  11.490
52940W        W53805   9.954   1.582  14.307
52941W        W53806   8.297   1.863  13.016
52942W        W53807   9.771   0.149  12.136
52943W        W53808   8.902   3.580  12.639
52944W        W53809  10.116   3.042  13.576
52945W        W53810   9.700   3.191  12.687
52946W        W53811   9.719   2.171  12.281
52947W        W53812   9.181   0.396  11.352
52948W        W53813  10.862   0.024  12.074
52949W        W53814   8.550   1.659  11.237
52950W        W53815  10.716   0.996  12.227
52951W        W53816   9.408   2.166  11.104
52952W        W53817  10.344   2.366  13.852
52953W        W53818   9.998   3.067  11.319
52954W        W53819   8.613   0.742  14.225
52955W        W53820   8.433   1.326  13.466
52956W        W53821  10.525   2.821  13.743
52957W        W53822   9.625   0.771  14.120
52958W        W53823   7.469   1.242  13.897
52959W        W53824   9.229   1.719  13.623
52960W        W53825   7.586   2.477  12.280
52961W        W53826   7.733   1.774  13.170
52962W        W53827  10.050   2.060  13.520
52963W        W53828   9.822   3.440  14.331
52964W        W53829   9.718   1.179  13.884
52965W        W53830   9.995   3.233  12.289
52966W        W53831   8.997   2.953  13.612
52967W        W53832   8.482   3.308  12.881
52968W        W53833  10.287   2.479  13.300
52969W        W53834   9.337   2.551  14.437
52970W        W53835   7.942   2.504  12.776
52971W        W53836  10.288   2.263  12.421
52972W        W53837   9.929   3.329  13.172
52973W        W53838   7.907   3.058  13.042
52974W        W53839   8.928   1.110  14.252
52975W        W53840   9.379   3.276  11.763
52976W        W53841   8.687   2.531  14.401
52977W        W53842   8.813   2.769  11.778
52978W        W53843   8.034   1.509  11.037
52979W        W53844   7.373   3.595  17.936
52980W        W53845   7.749   2.488  17.459
52981W        W53846  10.454   2.218  15.229
52982W        W53847  10.584   3.303  17.256
52983W        W53848   8.502   3.294  14.782
52984W        W53849   8.585   1.446  15.765
52985W        W53850   8.100   1.294  15.929
52986W        W53851   9.091   2.109  15.363
52987W        W53852   8.766   3.201  17.718
52988W        W53853   7.415   0.762  17.681
52989W        W53854   8.177   0.042  17.483
52990W        W53855   9.871   0.430  16.370
52991W        W53856   9.520   1.301  14.940
52992W        W53857  10.090   0.735  18.031
52993W        W53858   7.456   0.527  17.156
52994W        W53859   7.555   3.146  18.177
52995W        W53860   9.077   2.536  14.909
52996W        W53861   7.509   1.319  16.602
52997W        W53862   8.402   1.210  17.839
52998W        W53863  10.861   1.069  16.338
52999W        W53864  10.625   2.112  17.197
53000W        W53865   8.933   1.445  16.224
53001W        W53866   9.479   2.784  16.593
53002W        W53867   7.979   2.218  16.825
53003W        W53868   7.338   1.746  16.396
53004W        W53869   8.374   1.718  17.588
53005W        W53870  10.645   1.501  17.842
53006W        W53871   8.261   2.945  16.287
53007W        W53872   9.382   2.634  17.421
53008W        W53873   8.602   1.274  16.646
53009W        W53874   8.894   2.058  16.289
53010W        W53875   9.891   2.831  18.137
53011W        W53876   8.970   2.151  18.147
53012W        W53877   8.951   1.867  17.625
53013W        W53878   7.360   1.258  18.147
53014W        W53879  10.192   2.793  17.746
53015W        W53880   7.773   0.375  15.744
53016W        W53881   8.300   2.633  16.743
53017W        W53882  10.763   2.416  16.033
53018W        W53883  10.176   0.816  16.600
53019W        W53884  10.461   0.769  14.695
53020W        W53885  10.926   1.570  17.001
53021W        W53886   8.893   3.277  16.754
53022W        W53887  10.667   2.743  15.192
53023W        W53888   7.796   3.529  14.946
53024W        W53889   8.189   3.575  15.622
53025W        W53890   7.986   0.329  17.048
53026W        W53891  10.609   1.347  17.323
53027W        W53892  10.014   1.769  15.782
53028W        W53893   9.980   1.457  14.809
53029W        W53894   9.188   2.601  16.949
53030W        W53895   8.994   0.931  16.148
53031W        W53896   9.594   3.018  17.142
53032W        W53897  10.465   1.809  15.564
53033W        W53898   9.367   0.467  15.580
53034W        W53899   8.024   3.161  15.263
53035W        W53900   7.395   0.660  15.862
53036W        W53901  10.181   1.267  16.336
53037W        W53902   7.639   2.884  16.251
53038W        W53903   8.980   3.234  15.121
53039W        W53904  10.372   1.260  14.585
53040W        W53905   7.395   3.018  16.749
53041W        W53906   8.186   2.590  17.229
53042W        W53907   8.559   1.950  15.848
53043W        W53908   8.581   0.355  16.941
53044W        W53909  10.810   0.117  16.238
53045W        W53910   8.029   1.989  14.706
53046W        W53911   7.684   1.022  14.885
53047W        W53912   7.746   2.978  15.679
53048W        W53913   8.877   2.461  15.927
53049W        W53914  10.209   3.320  17.641
53050W        W53915   9.135   0.962  15.325
53051W        W53916  10.518   3.360  16.097
53052W        W53917  10.195   1.213  17.695
53053W        W53918  10.908   2.869  15.829
53054W        W53919   9.535   2.161  17.313
53055W        W53920   7.301   1.712  15.519
53056W        W53921   8.412   2.127  17.092
53057W        W53922   9.616   1.391  15.470
53058W        W53923   9.493   1.881  15.574
53059W        W53924   7.836   1.301  17.048
53060W        W53925   7.821   1.177  17.970
53061W        W53926   7.711   0.094  16.129
53062W        W53927   9.479   0.441  16.690
53063W        W53928   9.127   0.626  17.853
53064W        W53929   9.482   0.775  15.031
53065W        W53930  10.665   3.168  17.785
53066W        W53931   9.632   0.249  17.824
53067W        W53932  10.651   2.550  17.946
53068W        W53933  10.081   0.717  17.542
53069W        W53934   9.881   0.655  15.812
53070W        W53935  10.274   1.789  18.216
53071W        W53936   8.014   3.365  16.202
53072W        W53937   8.672   1.082  15.188
53073W        W53938   8.241   0.366  17.852
53074W        W53939  10.293   0.850  15.533
53075W        W53940  10.660   1.332  15.478
53076W        W53941   8.403   3.549  17.949
53077W        W53942   8.329   0.085  15.184
53078W        W53943  10.650   0.619  16.219
53079W        W53944  10.800   2.868  14.664
53080W        W53945   7.707   2.071  16.366
53081W        W53946   9.624   0.658  14.596
53082W        W53947  10.758   2.990  16.316
53083W        W53948  10.797   0.184  17.066
53084W        W53949   9.242   1.396  17.620
53085W        W53950   9.335   2.735  15.323
53086W        W53951   9.735   2.029  18.063
53087W        W53952   9.409   0.006  16.372
53088W        W53953   8.021   0.909  16.435
53089W        W53954   7.575   2.109  17.209
53090W        W53955   9.434   3.302  15.915
53091W        W53956  10.628   0.899  16.787
53092W        W53957   9.265   3.246  17.554
53093W        W53958  10.608   2.305  14.759
53094W        W53959   9.043   1.788  15.820
53095W        W53960  10.895   0.299  17.561
53096W        W53961   9.044   2.134  17.155
53097W        W53962   9.261   1.020  16.600
53098W        W53963  10.113   1.318  15.438
53099W        W53964  10.400   1.051  15.080
53100W        W53965  10.209   3.091  15.469
53101W        W53966  10.043   2.694  16.265
53102W        W53967   9.939   1.773  15.243
53103W        W53968   9.372   1.983  16.229
53104W        W53969  10.253   1.771  16.296
53105W        W53970   7.628   0.786  16.720
53106W        W53971  10.406   1.838  17.547
53107W        W53972  10.757   3.456  16.693
53108W        W53973   8.687   2.900  16.095
53109W        W53974   9.694   3.433  17.419
53110W        W53975   9.688   0.763  17.183
53111W        W53976   8.895   3.471  17.244
53112W        W53977  10.592   0.425  15.710
53113W        W53978  10.383   1.744  17.011
53114W        W53979   7.366   1.065  17.049
53115W        W53980  10.226   0.860  16.067
53116W        W53981  10.637   1.011  17.844
53117W        W53982   9.522   2.710  16.062
53118W        W53983   8.778   3.301  15.675
53119W        W53984   7.893   0.481  14.933
53120W        W53985   8.997   0.135  16.743
53121W        W53986   8.025   3.255  14.591
53122W        W53987   8.399   1.721  15.342
53123W        W53988   9.053   2.350  17.655
53124W        W53989   8.883   0.708  15.645
53125W        W53990  10.239   0.305  16.073
53126W        W53991   9.959   3.587  16.401
53127W        W53992   9.371   3.235  16.741
53128W        W53993   8.767   2.272  16.702
53129W        W53994  10.537   2.995  16.828
53130W        W53995   8.231   0.498  15.597
53131W        W53996   8.753   2.795  16.557
53132W        W53997   8.236   0.726  14.622
53133W        W53998   9.037   1.335  17.016
53134W        W53999   9.885   0.201  16.886
53135W        W54000   7.305   2.044  16.771
53136W        W54001   9.009   1.862  14.929
53137W        W54002   8.277   0.177  14.699
53138W        W54003   9.015   1.258  15.750
53139W        W54004   9.985   0.234  17.449
53140W        W54005   8.573   2.246  17.558
53141W        W54006   9.377   2.028  17.775
53142W        W54007   9.994   2.058  17.668
53143W        W54008   9.278   0.198  18.173
53144W        W54009   8.500   0.814  16.566
53145W        W54010   7.926   0.770  15.964
53146W        W54011   7.712   3.482  15.640
53147W        W54012   9.044   2.812  17.765
53148W        W54013   8.079   2.297  15.124
53149W        W54014   9.759   1.682  16.345
53150W        W54015  10.039   1.481  16.744
53151W        W54016   9.244   2.155  16.678
53152W        W54017   9.714   2.529  14.810
53153W        W54018   9.386   0.550  16.138
53154W        W54019  10.865   0.828  15.406
53155W        W54020   7.359   3.417  17.437
53156W        W54021   7.776   2.643  16.969
53157W        W54022   7.343   3.489  15.201
53158W        W54023   9.242   0.759  17.007
53159W        W54024   8.605   2.782  14.856
53160W        W54025  10.510   3.164  15.042
53161W        W54026   9.485   1.817  15.056
53162W        W54027   8.328   1.008  15.573
53163W        W54028   9.160   0.918  14.625
53164W        W54029   9.744   2.483  17.803
53165W        W54030  10.097   0.389  15.420
53166W        W54031   7.427   0.237  14.868
53167W        W54032   8.713   2.556  17.158
53168W        W54033   8.512   2.472  16.250
53169W        W54034   8.254   2.424  14.648
53170W        W54035   7.495   2.665  15.416
53171W        W54036   7.999   1.735  17.858
53172W        W54037   8.703   0.295  18.044
53173W        W54038   9.412   0.437  17.400
53174W        W54039   8.607   0.205  15.681
53175W        W54040   9.666   0.282  15.186
53176W        W54041   7.611   0.214  16.763
53177W        W54042   7.659   1.177  16.133
53178W        W54043  10.348   0.285  16.539
53179W        W54044   7.770   0.783  15.353
53180W        W54045  10.341   0.471  16.969
53181W        W54046  10.737   1.674  14.654
53182W        W54047   8.029   0.432  16.473
53183W        W54048   9.143   1.004  17.413
53184W        W54049   7.291   0.694  14.891
53185W        W54050   8.077   2.083  17.452
53186W        W54051   9.435   1.481  16.631
53187W        W54052   9.302   3.560  14.927
53188W        W54053   7.448   2.067  14.624
53189W        W54054   8.183   2.478  17.750
53190W        W54055   7.704   1.645  17.381
53191W        W54056   8.695   1.750  17.175
53192W        W54057  10.463   0.109  17.437
53193W        W54058  10.861   1.719  17.428
53194W        W54059  10.849   1.919  15.114
53195W        W54060   9.712   2.251  15.213
53196W        W54061  10.186   3.551  14.908
53197W        W54062   9.363   1.541  18.050
53198W        W54063   7.693   2.508  18.090
53199W        W54064  10.899   0.430  18.042
53200W        W54065  10.617   1.358  16.663
53201W        W54066   8.925   3.488  18.140
53202W        W54067   8.780   0.117  14.867
53203W        W54068  10.319   2.716  14.810
53204W        W54069   8.088   0.809  17.696
53205W        W54070   8.522   2.803  17.558
53206W        W54071  10.648   0.794  17.356
53207W        W54072   9.859   3.453  15.324
53208W        W54073  10.098   2.072  16.691
53209W        W54074   8.348   0.488  17.358
53210W        W54075   8.817   1.557  18.115
53211W        W54076   8.320   2.736  15.309
53212W        W54077  10.075   2.234  15.573
53213W        W54078   7.843   0.860  17.297
53214W        W54079   9.172   2.922  15.761
53215W        W54080  10.922   1.482  15.942
53216W        W54081   9.144   0.115  17.661
53217W        W54082   9.924   2.820  16.740
53218W        W54083  10.227   3.164  16.448
53219W        W54084   9.446   2.966  14.876
53220W        W54085   7.456   2.858  17.718
53221W        W54086   8.199   0.850  16.956
53222W        W54087   8.169   0.198  16.066
53223W        W54088   9.790   1.040  16.758
53224W        W54089   8.588   2.211  14.958
53225W        W54090  10.586   2.153  16.457
53226W        W54091   7.913   2.911  17.880
53227W        W54092  10.300   3.593  15.677
53228W        W54093   8.399   0.613  16.122
53229W        W54094   8.168   2.106  16.212
53230W        W54095   8.481   3.517  16.962
53231W        W54096  10.548   3.613  17.994
53232W        W54097   9.707   1.801  16.927
53233W        W54098   7.556   1.599  14.842
53234W        W54099  10.690   3.257  15.539
53235W        W54100  10.527   0.581  15.158
53236W        W54101   8.666   0.100  17.561
53237W        W54102  10.372   2.902  16.019
53238W        W54103  10.401   1.458  15.924
53239W        W54104   8.518   1.131  16.140
53240W        W54105   8.763   1.393  17.464
53241W        W54106   9.874   2.546  17.327
53242W        W54107   8.524   1.000  17.439
53243W        W54108   8.503   3.466  16.055
53244W        W54109   7.820   3.425  17.689
53245W        W54110   7.932   2.786  14.819
53246W        W54111  10.449   2.544  15.629
53247W        W54112   8.053   1.336  17.515
53248W        W54113  10.826   1.266  14.996
53249W        W54114   8.571   2.323  15.467
53250W        W54115   9.670   1.705  17.548
53251W        W54116   9.561   1.333  17.092
53252W        W54117   8.121   1.705  17.121
53253W        W54118  10.331   3.593  16.950
53254W        W54119  10.122   0.227  17.944
53255W        W54120   7.786   0.377  17.531
53256W        W54121   8.125   1.400  16.584
53257W        W54122   8.494   1.214  14.706
53258W        W54123   7.297   2.973  17.251
53259W        W54124   8.882   1.682  16.694
53260W        W54125   8.705   0.707  14.799
53261W        W54126   7.840   1.523  15.580
53262W        W54127   7.611   3.375  17.017
53263W        W54128  10.406   1.601  15.125
53264W        W54129  10.501   0.517  17.811
53265W        W54130   9.937   2.726  15.774
53266W        W54131   7.535   1.650  17.951
53267W        W54132  10.501   0.114  15.247
53268W        W54133  10.021   2.589  15.258
53269W        W54134   8.923   1.647  15.343
53270W        W54135  10.110   0.451  14.866
53271W        W54136  10.175   1.058  17.052
53272W        W54137   7.884   1.651  16.259
53273W        W54138   8.178   2.590  15.908
53274W        W54139   9.941   1.210  15.873
53275W        W54140   8.964   0.589  16.569
53276W        W54141  10.926   2.500  17.080
53277W        W54142  10.844   0.487  16.641
53278W        W54143   7.383   3.317  16.017
53279W        W54144   7.892   2.504  15.553
53280W        W54145   7.807   0.121  18.106
53281W        W54146   8.926   2.974  18.208
53282W        W54147  10.681   1.942  15.998
53283W        W54148  10.035   2.119  14.878
53284W        W54149   9.330   3.640  17.090
53285W        W54150  10.187   2.362  18.127
53286W        W54151   9.002   0.072  15.407
53287W        W54152   9.715   0.941  16.266
53288W        W54153   7.401   2.528  16.598
53289W        W54154   8.654   0.490  15.239
53290W        W54155   8.458   1.974  18.088
53291W        W54156   9.452   0.955  15.802
53292W        W54157   9.657   2.365  16.924
53293W        W54158   7.811   2.970  17.359
53294W        W54159   8.402   2.953  18.082
53295W        W54160   8.253   0.750  15.096
53296W        W54161   9.770   0.892  15.421
53297W        W54162   9.728   3.000  17.658
53298W        W54163   8.413   1.592  16.257
53299W        W54164   8.068   3.290  17.122
53300W        W54165  10.813   3.407  14.723
53301W        W54166   7.676   2.079  17.719
53302W        W54167   9.671   2.341  16.407
53303W        W54168   8.107   1.990  15.649
53304W        W54169   8.478   2.997  17.044
53305W        W54170   8.856   0.416  16.085
53306W        W54171   7.467   2.400  15.015
53307W        W54172   8.986   1.351  14.885
53308W        W54173   7.632   1.900  15.904
53309W        W54174   8.922   0.542  17.368
53310W        W54175  10.594   0.251  14.795
53311W        W54176  10.687   1.997  17.894
53312W        W54177   9.341   3.254  18.046
53313W        W54178  10.899   2.348  17.568
53314W        W54179  10.307   3.146  18.179
53315W        W54180   8.046   3.602  16.657
53316W        W54181  10.905   2.224  15.531
53317W        W54182   9.435   1.491  16.044
53318W        W54183   9.202   0.103  15.934
53319W        W54184   8.261   3.087  15.771
53320W        W54185   8.760   0.828  16.996
53321W        W54186   8.460   0.197  16.465
53322W        W54187   7.523   3.019  15.013
53323W        W54188   9.339   2.383  15.731
53324W        W54189   8.214   3.178  17.610
53325W        W54190   7.691   2.001  15.306
53326W        W54191   7.576   0.544  16.305
53327W        W54192   9.124   2.509  16.362
53328W        W54193   7.376   0.363  15.382
53329W        W54194  10.040   1.569  17.309
53330W        W54195   9.917   0.955  14.881
53331W        W54196  10.434   2.627  16.529
53332W        W54197   9.095   3.111  16.360
53333W        W54198   8.507   3.215  15.271
53334W        W54199   9.789   0.118  14.701
53335W        W54200   7.589   3.378  16.442
53336W        W54201   9.786   1.136  18.077
53337W        W54202   7.769   0.666  18.076
53338W        W54203   7.500   1.266  15.409
53339W        W54204   8.191   1.255  15.134
53340W        W54205   9.954   1.582  17.951
53341W        W54206   8.297   1.863  16.660
53342W        W54207   9.771   0.149  15.780
53343W        W54208   8.902   3.580  16.283
53344W        W54209  10.116   3.042  17.220
53345W        W54210   9.700   3.191  16.331
53346W        W54211   9.719   2.171  15.925
53347W        W54212   9.181   0.396  14.996
53348W        W54213  10.862   0.024  15.718
53349W        W54214   8.550   1.659  14.881
53350W        W54215  10.716   0.996  15.871
53351W        W54216   9.408   2.166  14.748
53352W        W54217  10.344   2.366  17.496
53353W        W54218   9.998   3.067  14.963
53354W        W54219   8.613   0.742  17.869
53355W        W54220   8.433   1.326  17.110
53356W        W54221  10.525   2.821  17.387
53357W        W54222   9.625   0.771  17.764
53358W        W54223   7.469   1.242  17.541
53359W        W54224   9.229   1.719  17.267
53360W        W54225   7.586   2.477  15.924
53361W        W54226   7.733   1.774  16.814
53362W        W54227  10.050   2.060  17.164
53363W        W54228   9.822   3.440  17.975
53364W        W54229   9.718   1.179  17.528
53365W        W54230   9.995   3.233  15.933
53366W        W54231   8.997   2.953  17.256
53367W        W54232   8.482   3.308  16.525
53368W        W54233  10.287   2.479  16.944
53369W        W54234   9.337   2.551  18.081
53370W        W54235   7.942   2.504  16.420
53371W        W54236  10.288   2.263  16.065
53372W        W54237   9.929   3.329  16.816
53373W        W54238   7.907   3.058  16.686
53374W        W54239   8.928   1.110  17.896
53375W        W54240   9.379   3.276  15.407
53376W        W54241   8.687   2.531  18.045
53377W        W54242   8.813   2.769  15.422
53378W        W54243   8.034   1.509  14.681
53379W        W54244   7.373   3.595  21.580
53380W        W54245   7.749   2.488  21.103
53381W        W54246  10.454   2.218  18.873
53382W        W54247  10.584   3.303  20.900
53383W        W54248   8.502   3.294  18.426
53384W        W54249   8.585   1.446  19.409
53385W        W54250   8.100   1.294  19.573
53386W        W54251   9.091   2.109  19.007
53387W        W54252   8.766   3.201  21.362
53388W        W54253   7.415   0.762  21.325
53389W        W54254   8.177   0.042  21.127
53390W        W54255   9.871   0.430  20.014
53391W        W54256   9.520   1.301  18.584
53392W        W54257  10.090   0.735  21.675
53393W        W54258   7.456   0.527  20.800
53394W        W54259   7.555   3.146  21.821
53395W        W54260   9.077   2.536  18.553
53396W        W54261   7.509   1.319  20.246
53397W        W54262   8.402   1.210  21.483
53398W        W54263  10.861   1.069  19.982
53399W        W54264  10.625   2.112  20.841
53400W        W54265   8.933   1.445  19.868
53401W        W54266   9.479   2.784  20.237
53402W        W54267   7.979   2.218  20.469
53403W        W54268   7.338   1.746  20.040
53404W        W54269   8.374   1.718  21.232
53405W        W54270  10.645   1.501  21.486
53406W        W54271   8.261   2.945  19.931
53407W        W54272   9.382   2.634  21.065
53408W        W54273   8.602   1.274  20.290
53409W        W54274   8.894   2.058  19.933
53410W        W54275   9.891   2.831  21.781
53411W        W54276   8.970   2.151  21.791
53412W        W54277   8.951   1.867  21.269
53413W        W54278   7.360   1.258  21.791
53414W        W54279  10.192   2.793  21.390
53415W        W54280   7.773   0.375  19.388
53416W        W54281   8.300   2.633  20.387
53417W        W54282  10.763   2.416  19.677
53418W        W54283  10.176   0.816  20.244
53419W        W54284  10.461   0.769  18.339
53420W        W54285  10.926   1.570  20.645
53421W        W54286   8.893   3.277  20.398
53422W        W54287  10.667   2.743  18.836
53423W        W54288   7.796   3.529  18.590
53424W        W54289   8.189   3.575  19.266
53425W        W54290   7.986   0.329  20.692
53426W        W54291  10.609   1.347  20.967
53427W        W54292  10.014   1.769  19.426
53428W        W54293   9.980   1.457  18.453
53429W        W54294   9.188   2.601  20.593
53430W        W54295   8.994   0.931  19.792
53431W        W54296   9.594   3.018  20.786
53432W        W54297  10.465   1.809  19.208
53433W        W54298   9.367   0.467  19.224
53434W        W54299   8.024   3.161  18.907
53435W        W54300   7.395   0.660  19.506
53436W        W54301  10.181   1.267  19.980
53437W        W54302   7.639   2.884  19.895
53438W        W54303   8.980   3.234  18.765
53439W        W54304  10.372   1.260  18.229
53440W        W54305   7.395   3.018  20.393
53441W        W54306   8.186   2.590  20.873
53442W        W54307   8.559   1.950  19.492
53443W        W54308   8.581   0.355  20.585
53444W        W54309  10.810   0.117  19.882
53445W        W54310   8.029   1.989  18.350
53446W        W54311   7.684   1.022  18.529
53447W        W54312   7.746   2.978  19.323
53448W        W54313   8.877   2.461  19.571
53449W        W54314  10.209   3.320  21.285
53450W        W54315   9.135   0.962  18.969
53451W        W54316  10.518   3.360  19.741
53452W        W54317  10.195   1.213  21.339
53453W        W54318  10.908   2.869  19.473
53454W        W54319   9.535   2.161  20.957
53455W        W54320   7.301   1.712  19.163
53456W        W54321   8.412   2.127  20.736
53457W        W54322   9.616   1.391  19.114
53458W        W54323   9.493   1.881  19.218
53459W        W54324   7.836   1.301  20.692
53460W        W54325   7.821   1.177  21.614
53461W        W54326   7.711   0.094  19.773
53462W        W54327   9.479   0.441  20.334
53463W        W54328   9.127   0.626  21.497
53464W        W54329   9.482   0.775  18.675
53465W        W54330  10.665   3.168  21.429
53466W        W54331   9.632   0.249  21.468
53467W        W54332  10.651   2.550  21.590
53468W        W54333  10.081   0.717  21.186
53469W        W54334   9.881   0.655  19.456
53470W        W54335  10.274   1.789  21.860
53471W        W54336   8.014   3.365  19.846
53472W        W54337   8.672   1.082  18.832
53473W        W54338   8.241   0.366  21.496
53474W        W54339  10.293   0.850  19.177
53475W        W54340  10.660   1.332  19.122
53476W        W54341   8.403   3.549  21.593
53477W        W54342   8.329   0.085  18.828
53478W        W54343  10.650   0.619  19.863
53479W        W54344  10.800   2.868  18.308
53480W        W54345   7.707   2.071  20.010
53481W        W54346   9.624   0.658  18.240
53482W        W54347  10.758   2.990  19.960
53483W        W54348  10.797   0.184  20.710
53484W        W54349   9.242   1.396  21.264
53485W        W54350   9.335   2.735  18.967
53486W        W54351   9.735   2.029  21.707
53487W        W54352   9.409   0.006  20.016
53488W        W54353   8.021   0.909  20.079
53489W        W54354   7.575   2.109  20.853
53490W        W54355   9.434   3.302  19.559
53491W        W54356  10.628   0.899  20.431
53492W        W54357   9.265   3.246  21.198
53493W        W54358  10.608   2.305  18.403
53494W        W54359   9.043   1.788  19.464
53495W        W54360  10.895   0.299  21.205
53496W        W54361   9.044   2.134  20.799
53497W        W54362   9.261   1.020  20.244
53498W        W54363  10.113   1.318  19.082
53499W        W54364  10.400   1.051  18.724
53500W        W54365  10.209   3.091  19.113
53501W        W54366  10.043   2.694  19.909
53502W        W54367   9.939   1.773  18.887
53503W        W54368   9.372   1.983  19.873
53504W        W54369  10.253   1.771  19.940
53505W        W54370   7.628   0.786  20.364
53506W        W54371  10.406   1.838  21.191
53507W        W54372  10.757   3.456  20.337
53508W        W54373   8.687   2.900  19.739
53509W        W54374   9.694   3.433  21.063
53510W        W54375   9.688   0.763  20.827
53511W        W54376   8.895   3.471  20.888
53512W        W54377  10.592   0.425  19.354
53513W        W54378  10.383   1.744  20.655
53514W        W54379   7.366   1.065  20.693
53515W        W54380  10.226   0.860  19.711
53516W        W54381  10.637   1.011  21.488
53517W        W54382   9.522   2.710  19.706
53518W        W54383   8.778   3.301  19.319
53519W        W54384   7.893   0.481  18.577
53520W        W54385   8.997   0.135  20.387
53521W        W54386   8.025   3.255  18.235
53522W        W54387   8.399   1.721  18.986
53523W        W54388   9.053   2.350  21.299
53524W        W54389   8.883   0.708  19.289
53525W        W54390  10.239   0.305  19.717
53526W        W54391   9.959   3.587  20.045
53527W        W54392   9.371   3.235  20.385
53528W        W54393   8.767   2.272  20.346
53529W        W54394  10.537   2.995  20.472
53530W        W54395   8.231   0.498  19.241
53531W        W54396   8.753   2.795  20.201
53532W        W54397   8.236   0.726  18.266
53533W        W54398   9.037   1.335  20.660
53534W        W54399   9.885   0.201  20.530
53535W        W54400   7.305   2.044  20.415
53536W        W54401   9.009   1.862  18.573
53537W        W54402   8.277   0.177  18.343
53538W        W54403   9.015   1.258  19.394
53539W        W54404   9.985   0.234  21.093
53540W        W54405   8.573   2.246  21.202
53541W        W54406   9.377   2.028  21.419
53542W        W54407   9.994   2.058  21.312
53543W        W54408   9.278   0.198  21.817
53544W        W54409   8.500   0.814  20.210
53545W        W54410   7.926   0.770  19.608
53546W        W54411   7.712   3.482  19.284
53547W        W54412   9.044   2.812  21.409
53548W        W54413   8.079   2.297  18.768
53549W        W54414   9.759   1.682  19.989
53550W        W54415  10.039   1.481  20.388
53551W        W54416   9.244   2.155  20.322
53552W        W54417   9.714   2.529  18.454
53553W        W54418   9.386   0.550  19.782
53554W        W54419  10.865   0.828  19.050
53555W        W54420   7.359   3.417  21.081
53556W        W54421   7.776   2.643  20.613
53557W        W54422   7.343   3.489  18.845
53558W        W54423   9.242   0.759  20.651
53559W        W54424   8.605   2.782  18.500
53560W        W54425  10.510   3.164  18.686
53561W        W54426   9.485   1.817  18.700
53562W        W54427   8.328   1.008  19.217
53563W        W54428   9.160   0.918  18.269
53564W        W54429   9.744   2.483  21.447
53565W        W54430  10.097   0.389  19.064
53566W        W54431   7.427   0.237  18.512
53567W        W54432   8.713   2.556  20.802
53568W        W54433   8.512   2.472  19.894
53569W        W54434   8.254   2.424  18.292
53570W        W54435   7.495   2.665  19.060
53571W        W54436   7.999   1.735  21.502
53572W        W54437   8.703   0.295  21.688
53573W        W54438   9.412   0.437  21.044
53574W        W54439   8.607   0.205  19.325
53575W        W54440   9.666   0.282  18.830
53576W        W54441   7.611   0.214  20.407
53577W        W54442   7.659   1.177  19.777
53578W        W54443  10.348   0.285  20.183
53579W        W54444   7.770   0.783  18.997
53580W        W54445  10.341   0.471  20.613
53581W        W54446  10.737   1.674  18.298
53582W        W54447   8.029   0.432  20.117
53583W        W54448   9.143   1.004  21.057
53584W        W54449   7.291   0.694  18.535
53585W        W54450   8.077   2.083  21.096
53586W        W54451   9.435   1.481  20.275
53587W        W54452   9.302   3.560  18.571
53588W        W54453   7.448   2.067  18.268
53589W        W54454   8.183   2.478  21.394
53590W        W54455   7.704   1.645  21.025
53591W        W54456   8.695   1.750  20.819
53592W        W54457  10.463   0.109  21.081
53593W        W54458  10.861   1.719  21.072
53594W        W54459  10.849   1.919  18.758
53595W        W54460   9.712   2.251  18.857
53596W        W54461  10.186   3.551  18.552
53597W        W54462   9.363   1.541  21.694
53598W        W54463   7.693   2.508  21.734
53599W        W54464  10.899   0.430  21.686
53600W        W54465  10.617   1.358  20.307
53601W        W54466   8.925   3.488  21.784
53602W        W54467   8.780   0.117  18.511
53603W        W54468  10.319   2.716  18.454
53604W        W54469   8.088   0.809  21.340
53605W        W54470   8.522   2.803  21.202
53606W        W54471  10.648   0.794  21.000
53607W        W54472   9.859   3.453  18.968
53608W        W54473  10.098   2.072  20.335
53609W        W54474   8.348   0.488  21.002
53610W        W54475   8.817   1.557  21.759
53611W        W54476   8.320   2.736  18.953
53612W        W54477  10.075   2.234  19.217
53613W        W54478   7.843   0.860  20.941
53614W        W54479   9.172   2.922  19.405
53615W        W54480  10.922   1.482  19.586
53616W        W54481   9.144   0.115  21.305
53617W        W54482   9.924   2.820  20.384
53618W        W54483  10.227   3.164  20.092
53619W        W54484   9.446   2.966  18.520
53620W        W54485   7.456   2.858  21.362
53621W        W54486   8.199   0.850  20.600
53622W        W54487   8.169   0.198  19.710
53623W        W54488   9.790   1.040  20.402
53624W        W54489   8.588   2.211  18.602
53625W        W54490  10.586   2.153  20.101
53626W        W54491   7.913   2.911  21.524
53627W        W54492  10.300   3.593  19.321
53628W        W54493   8.399   0.613  19.766
53629W        W54494   8.168   2.106  19.856
53630W        W54495   8.481   3.517  20.606
53631W        W54496  10.548   3.613  21.638
53632W        W54497   9.707   1.801  20.571
53633W        W54498   7.556   1.599  18.486
53634W        W54499  10.690   3.257  19.183
53635W        W54500  10.527   0.581  18.802
53636W        W54501   8.666   0.100  21.205
53637W        W54502  10.372   2.902  19.663
53638W        W54503  10.401   1.458  19.568
53639W        W54504   8.518   1.131  19.784
53640W        W54505   8.763   1.393  21.108
53641W        W54506   9.874   2.546  20.971
53642W        W54507   8.524   1.000  21.083
53643W        W54508   8.503   3.466  19.699
53644W        W54509   7.820   3.425  21.333
53645W        W54510   7.932   2.786  18.463
53646W        W54511  10.449   2.544  19.273
53647W        W54512   8.053   1.336  21.159
53648W        W54513  10.826   1.266  18.640
53649W        W54514   8.571   2.323  19.111
53650W        W54515   9.670   1.705  21.192
53651W        W54516   9.561   1.333  20.736
53652W        W54517   8.121   1.705  20.765
53653W        W54518  10.331   3.593  20.594
53654W        W54519  10.122   0.227  21.588
53655W        W54520   7.786   0.377  21.175
53656W        W54521   8.125   1.400  20.228
53657W        W54522   8.494   1.214  18.350
53658W        W54523   7.297   2.973  20.895
53659W        W54524   8.882   1.682  20.338
53660W        W54525   8.705   0.707  18.443
53661W        W54526   7.840   1.523  19.224
53662W        W54527   7.611   3.375  20.661
53663W        W54528  10.406   1.601  18.769
53664W        W54529  10.501   0.517  21.455
53665W        W54530   9.937   2.726  19.418
53666W        W54531   7.535   1.650  21.595
53667W        W54532  10.501   0.114  18.891
53668W        W54533  10.021   2.589  18.902
53669W        W54534   8.923   1.647  18.987
53670W        W54535  10.110   0.451  18.510
53671W        W54536  10.175   1.058  20.696
53672W        W54537   7.884   1.651  19.903
53673W        W54538   8.178   2.590  19.552
53674W        W54539   9.941   1.210  19.517
53675W        W54540   8.964   0.589  20.213
53676W        W54541  10.926   2.500  20.724
53677W        W54542  10.844   0.487  20.285
53678W        W54543   7.383   3.317  19.661
53679W        W54544   7.892   2.504  19.197
53680W        W54545   7.807   0.121  21.750
53681W        W54546   8.926   2.974  21.852
53682W        W54547  10.681   1.942  19.642
53683W        W54548  10.035   2.119  18.522
53684W        W54549   9.330   3.640  20.734
53685W        W54550  10.187   2.362  21.771
53686W        W54551   9.002   0.072  19.051
53687W        W54552   9.715   0.941  19.910
53688W        W54553   7.401   2.528  20.242
53689W        W54554   8.654   0.490  18.883
53690W        W54555   8.458   1.974  21.732
53691W        W54556   9.452   0.955  19.446
53692W        W54557   9.657   2.365  20.568
53693W        W54558   7.811   2.970  21.003
53694W        W54559   8.402   2.953  21.726
53695W        W54560   8.253   0.750  18.740
53696W        W54561   9.770   0.892  19.065
53697W        W54562   9.728   3.000  21.302
53698W        W54563   8.413   1.592  19.901
53699W        W54564   8.068   3.290  20.766
53700W        W54565  10.813   3.407  18.367
53701W        W54566   7.676   2.079  21.363
53702W        W54567   9.671   2.341  20.051
53703W        W54568   8.107   1.990  19.293
53704W        W54569   8.478   2.997  20.688
53705W        W54570   8.856   0.416  19.729
53706W        W54571   7.467   2.400  18.659
53707W        W54572   8.986   1.351  18.529
53708W        W54573   7.632   1.900  19.548
53709W        W54574   8.922   0.542  21.012
53710W        W54575  10.594   0.251  18.439
53711W        W54576  10.687   1.997  21.538
53712W        W54577   9.341   3.254  21.690
53713W        W54578  10.899   2.348  21.212
53714W        W54579  10.307   3.146  21.823
53715W        W54580   8.046   3.602  20.301
53716W        W54581  10.905   2.224  19.175
53717W        W54582   9.435   1.491  19.688
53718W        W54583   9.202   0.103  19.578
53719W        W54584   8.261   3.087  19.415
53720W        W54585   8.760   0.828  20.640
53721W        W54586   8.460   0.197  20.109
53722W        W54587   7.523   3.019  18.657
53723W        W54588   9.339   2.383  19.375
53724W        W54589   8.214   3.178  21.254
53725W        W54590   7.691   2.001  18.950
53726W        W54591   7.576   0.544  19.949
53727W        W54592   9.124   2.509  20.006
53728W        W54593   7.376   0.363  19.026
53729W        W54594  10.040   1.569  20.953
53730W        W54595   9.917   0.955  18.525
53731W        W54596  10.434   2.627  20.173
53732W        W54597   9.095   3.111  20.004
53733W        W54598   8.507   3.215  18.915
53734W        W54599   9.789   0.118  18.345
53735W        W54600   7.589   3.378  20.086
53736W        W54601   9.786   1.136  21.721
53737W        W54602   7.769   0.666  21.720
53738W        W54603   7.500   1.266  19.053
53739W        W54604   8.191   1.255  18.778
53740W        W54605   9.954   1.582  21.595
53741W        W54606   8.297   1.863  20.304
53742W        W54607   9.771   0.149  19.424
53743W        W54608   8.902   3.580  19.927
53744W        W54609  10.116   3.042  20.864
53745W        W54610   9.700   3.191  19.975
53746W        W54611   9.719   2.171  19.569
53747W        W54612   9.181   0.396  18.640
53748W        W54613  10.862   0.024  19.362
53749W        W54614   8.550   1.659  18.525
53750W        W54615  10.716   0.996  19.515
53751W        W54616   9.408   2.166  18.392
53752W        W54617  10.344   2.366  21.140
53753W        W54618   9.998   3.067  18.607
53754W        W54619   8.613   0.742  21.513
53755W        W54620   8.433   1.326  20.754
53756W        W54621  10.525   2.821  21.031
53757W        W54622   9.625   0.771  21.408
53758W        W54623   7.469   1.242  21.185
53759W        W54624   9.229   1.719  20.911
53760W        W54625   7.586   2.477  19.568
53761W        W54626   7.733   1.774  20.458
53762W        W54627  10.050   2.060  20.808
53763W        W54628   9.822   3.440  21.619
53764W        W54629   9.718   1.179  21.172
53765W        W54630   9.995   3.233  19.577
53766W        W54631   8.997   2.953  20.900
53767W        W54632   8.482   3.308  20.169
53768W        W54633  10.287   2.479  20.588
53769W        W54634   9.337   2.551  21.725
53770W        W54635   7.942   2.504  20.064
53771W        W54636  10.288   2.263  19.709
53772W        W54637   9.929   3.329  20.460
53773W        W54638   7.907   3.058  20.330
53774W        W54639   8.928   1.110  21.540
53775W        W54640   9.379   3.276  19.051
53776W        W54641   8.687   2.531  21.689
53777W        W54642   8.813   2.769  19.066
53778W        W54643   8.034   1.509  18.325
53779W        W54644   7.373   3.595  25.225
53780W        W54645   7.749   2.488  24.748
53781W        W54646  10.454   2.218  22.518
53782W        W54647  10.584   3.303  24.545
53783W        W54648   8.502   3.294  22.071
53784W        W54649   8.585   1.446  23.054
53785W        W54650   8.100   1.294  23.218
53786W        W54651   9.091   2.109  22.652
53787W        W54652   8.766   3.201  25.007
53788W        W54653   7.415   0.762  24.970
53789W        W54654   8.177   0.042  24.772
53790W        W54655   9.871   0.430  23.659
53791W        W54656   9.520   1.301  22.229
53792W        W54657  10.090   0.735  25.320
53793W        W54658   7.456   0.527  24.445
53794W        W54659   7.555   3.146  25.466
53795W        W54660   9.077   2.536  22.198
53796W        W54661   7.509   1.319  23.891
53797W        W54662   8.402   1.210  25.128
53798W        W54663  10.861   1.069  23.627
53799W        W54664  10.625   2.112  24.486
53800W        W54665   8.933   1.445  23.513
53801W        W54666   9.479   2.784  23.882
53802W        W54667   7.979   2.218  24.114
53803W        W54668   7.338   1.746  23.685
53804W        W54669   8.374   1.718  24.877
53805W        W54670  10.645   1.501  25.131
53806W        W54671   8.261   2.945  23.576
53807W        W54672   9.382   2.634  24.710
53808W        W54673   8.602   1.274  23.935
53809W        W54674   8.894   2.058  23.578
53810W        W54675   9.891   2.831  25.426
53811W        W54676   8.970   2.151  25.436
53812W        W54677   8.951   1.867  24.914
53813W        W54678   7.360   1.258  25.436
53814W        W54679  10.192   2.793  25.035
53815W        W54680   7.773   0.375  23.033
53816W        W54681   8.300   2.633  24.032
53817W        W54682  10.763   2.416  23.322
53818W        W54683  10.176   0.816  23.889
53819W        W54684  10.461   0.769  21.984
53820W        W54685  10.926   1.570  24.290
53821W        W54686   8.893   3.277  24.043
53822W        W54687  10.667   2.743  22.481
53823W        W54688   7.796   3.529  22.235
53824W        W54689   8.189   3.575  22.911
53825W        W54690   7.986   0.329  24.337
53826W        W54691  10.609   1.347  24.612
53827W        W54692  10.014   1.769  23.071
53828W        W54693   9.980   1.457  22.098
53829W        W54694   9.188   2.601  24.238
53830W        W54695   8.994   0.931  23.437
53831W        W54696   9.594   3.018  24.431
53832W        W54697  10.465   1.809  22.853
53833W        W54698   9.367   0.467  22.869
53834W        W54699   8.024   3.161  22.552
53835W        W54700   7.395   0.660  23.151
53836W        W54701  10.181   1.267  23.625
53837W        W54702   7.639   2.884  23.540
53838W        W54703   8.980   3.234  22.410
53839W        W54704  10.372   1.260  21.874
53840W        W54705   7.395   3.018  24.038
53841W        W54706   8.186   2.590  24.518
53842W        W54707   8.559   1.950  23.137
53843W        W54708   8.581   0.355  24.230
53844W        W54709  10.810   0.117  23.527
53845W        W54710   8.029   1.989  21.995
53846W        W54711   7.684   1.022  22.174
53847W        W54712   7.746   2.978  22.968
53848W        W54713   8.877   2.461  23.216
53849W        W54714  10.209   3.320  24.930
53850W        W54715   9.135   0.962  22.614
53851W        W54716  10.518   3.360  23.386
53852W        W54717  10.195   1.213  24.984
53853W        W54718  10.908   2.869  23.118
53854W        W54719   9.535   2.161  24.602
53855W        W54720   7.301   1.712  22.808
53856W        W54721   8.412   2.127  24.381
53857W        W54722   9.616   1.391  22.759
53858W        W54723   9.493   1.881  22.863
53859W        W54724   7.836   1.301  24.337
53860W        W54725   7.821   1.177  25.259
53861W        W54726   7.711   0.094  23.418
53862W        W54727   9.479   0.441  23.979
53863W        W54728   9.127   0.626  25.142
53864W        W54729   9.482   0.775  22.320
53865W        W54730  10.665   3.168  25.074
53866W        W54731   9.632   0.249  25.113
53867W        W54732  10.651   2.550  25.235
53868W        W54733  10.081   0.717  24.831
53869W        W54734   9.881   0.655  23.101
53870W        W54735  10.274   1.789  25.505
53871W        W54736   8.014   3.365  23.491
53872W        W54737   8.672   1.082  22.477
53873W        W54738   8.241   0.366  25.141
53874W        W54739  10.293   0.850  22.822
53875W        W54740  10.660   1.332  22.767
53876W        W54741   8.403   3.549  25.238
53877W        W54742   8.329   0.085  22.473
53878W        W54743  10.650   0.619  23.508
53879W        W54744  10.800   2.868  21.953
53880W        W54745   7.707   2.071  23.655
53881W        W54746   9.624   0.658  21.885
53882W        W54747  10.758   2.990  23.605
53883W        W54748  10.797   0.184  24.355
53884W        W54749   9.242   1.396  24.909
53885W        W54750   9.335   2.735  22.612
53886W        W54751   9.735   2.029  25.352
53887W        W54752   9.409   0.006  23.661
53888W        W54753   8.021   0.909  23.724
53889W        W54754   7.575   2.109  24.498
53890W        W54755   9.434   3.302  23.204
53891W        W54756  10.628   0.899  24.076
53892W        W54757   9.265   3.246  24.843
53893W        W54758  10.608   2.305  22.048
53894W        W54759   9.043   1.788  23.109
53895W        W54760  10.895   0.299  24.850
53896W        W54761   9.044   2.134  24.444
53897W        W54762   9.261   1.020  23.889
53898W        W54763  10.113   1.318  22.727
53899W        W54764  10.400   1.051  22.369
53900W        W54765  10.209   3.091  22.758
53901W        W54766  10.043   2.694  23.554
53902W        W54767   9.939   1.773  22.532
53903W        W54768   9.372   1.983  23.518
53904W        W54769  10.253   1.771  23.585
53905W        W54770   7.628   0.786  24.009
53906W        W54771  10.406   1.838  24.836
53907W        W54772  10.757   3.456  23.982
53908W        W54773   8.687   2.900  23.384
53909W        W54774   9.694   3.433  24.708
53910W        W54775   9.688   0.763  24.472
53911W        W54776   8.895   3.471  24.533
53912W        W54777  10.592   0.425  22.999
53913W        W54778  10.383   1.744  24.300
53914W        W54779   7.366   1.065  24.338
53915W        W54780  10.226   0.860  23.356
53916W        W54781  10.637   1.011  25.133
53917W        W54782   9.522   2.710  23.351
53918W        W54783   8.778   3.301  22.964
53919W        W54784   7.893   0.481  22.222
53920W        W54785   8.997   0.135  24.032
53921W        W54786   8.025   3.255  21.880
53922W        W54787   8.399   1.721  22.631
53923W        W54788   9.053   2.350  24.944
53924W        W54789   8.883   0.708  22.934
53925W        W54790  10.239   0.305  23.362
53926W        W54791   9.959   3.587  23.690
53927W        W54792   9.371   3.235  24.030
53928W        W54793   8.767   2.272  23.991
53929W        W54794  10.537   2.995  24.117
53930W        W54795   8.231   0.498  22.886
53931W        W54796   8.753   2.795  23.846
53932W        W54797   8.236   0.726  21.911
53933W        W54798   9.037   1.335  24.305
53934W        W54799   9.885   0.201  24.175
53935W        W54800   7.305   2.044  24.060
53936W        W54801   9.009   1.862  22.218
53937W        W54802   8.277   0.177  21.988
53938W        W54803   9.015   1.258  23.039
53939W        W54804   9.985   0.234  24.738
53940W        W54805   8.573   2.246  24.847
53941W        W54806   9.377   2.028  25.064
53942W        W54807   9.994   2.058  24.957
53943W        W54808   9.278   0.198  25.462
53944W        W54809   8.500   0.814  23.855
53945W        W54810   7.926   0.770  23.253
53946W        W54811   7.712   3.482  22.929
53947W        W54812   9.044   2.812  25.054
53948W        W54813   8.079   2.297  22.413
53949W        W54814   9.759   1.682  23.634
53950W        W54815  10.039   1.481  24.033
53951W        W54816   9.244   2.155  23.967
53952W        W54817   9.714   2.529  22.099
53953W        W54818   9.386   0.550  23.427
53954W        W54819  10.865   0.828  22.695
53955W        W54820   7.359   3.417  24.726
53956W        W54821   7.776   2.643  24.258
53957W        W54822   7.343   3.489  22.490
53958W        W54823   9.242   0.759  24.296
53959W        W54824   8.605   2.782  22.145
53960W        W54825  10.510   3.164  22.331
53961W        W54826   9.485   1.817  22.345
53962W        W54827   8.328   1.008  22.862
53963W        W54828   9.160   0.918  21.914
53964W        W54829   9.744   2.483  25.092
53965W        W54830  10.097   0.389  22.709
53966W        W54831   7.427   0.237  22.157
53967W        W54832   8.713   2.556  24.447
53968W        W54833   8.512   2.472  23.539
53969W        W54834   8.254   2.424  21.937
53970W        W54835   7.495   2.665  22.705
53971W        W54836   7.999   1.735  25.147
53972W        W54837   8.703   0.295  25.333
53973W        W54838   9.412   0.437  24.689
53974W        W54839   8.607   0.205  22.970
53975W        W54840   9.666   0.282  22.475
53976W        W54841   7.611   0.214  24.052
53977W        W54842   7.659   1.177  23.422
53978W        W54843  10.348   0.285  23.828
53979W        W54844   7.770   0.783  22.642
53980W        W54845  10.341   0.471  24.258
53981W        W54846  10.737   1.674  21.943
53982W        W54847   8.029   0.432  23.762
53983W        W54848   9.143   1.004  24.702
53984W        W54849   7.291   0.694  22.180
53985W        W54850   8.077   2.083  24.741
53986W        W54851   9.435   1.481  23.920
53987W        W54852   9.302   3.560  22.216
53988W        W54853   7.448   2.067  21.913
53989W        W54854   8.183   2.478  25.039
53990W        W54855   7.704   1.645  24.670
53991W        W54856   8.695   1.750  24.464
53992W        W54857  10.463   0.109  24.726
53993W        W54858  10.861   1.719  24.717
53994W        W54859  10.849   1.919  22.403
53995W        W54860   9.712   2.251  22.502
53996W        W54861  10.186   3.551  22.197
53997W        W54862   9.363   1.541  25.339
53998W        W54863   7.693   2.508  25.379
53999W        W54864  10.899   0.430  25.331
54000W        W54865  10.617   1.358  23.952
54001W        W54866   8.925   3.488  25.429
54002W        W54867   8.780   0.117  22.156
54003W        W54868  10.319   2.716  22.099
54004W        W54869   8.088   0.809  24.985
54005W        W54870   8.522   2.803  24.847
54006W        W54871  10.648   0.794  24.645
54007W        W54872   9.859   3.453  22.613
54008W        W54873  10.098   2.072  23.980
54009W        W54874   8.348   0.488  24.647
54010W        W54875   8.817   1.557  25.404
54011W        W54876   8.320   2.736  22.598
54012W        W54877  10.075   2.234  22.862
54013W        W54878   7.843   0.860  24.586
54014W        W54879   9.172   2.922  23.050
54015W        W54880  10.922   1.482  23.231
54016W        W54881   9.144   0.115  24.950
54017W        W54882   9.924   2.820  24.029
54018W        W54883  10.227   3.164  23.737
54019W        W54884   9.446   2.966  22.165
54020W        W54885   7.456   2.858  25.007
54021W        W54886   8.199   0.850  24.245
54022W        W54887   8.169   0.198  23.355
54023W        W54888   9.790   1.040  24.047
54024W        W54889   8.588   2.211  22.247
54025W        W54890  10.586   2.153  23.746
54026W        W54891   7.913   2.911  25.169
54027W        W54892  10.300   3.593  22.966
54028W        W54893   8.399   0.613  23.411
54029W        W54894   8.168   2.106  23.501
54030W        W54895   8.481   3.517  24.251
54031W        W54896  10.548   3.613  25.283
54032W        W54897   9.707   1.801  24.216
54033W        W54898   7.556   1.599  22.131
54034W        W54899  10.690   3.257  22.828
54035W        W54900  10.527   0.581  22.447
54036W        W54901   8.666   0.100  24.850
54037W        W54902  10.372   2.902  23.308
54038W        W54903  10.401   1.458  23.213
54039W        W54904   8.518   1.131  23.429
54040W        W54905   8.763   1.393  24.753
54041W        W54906   9.874   2.546  24.616
54042W        W54907   8.524   1.000  24.728
54043W        W54908   8.503   3.466  23.344
54044W        W54909   7.820   3.425  24.978
54045W        W54910   7.932   2.786  22.108
54046W        W54911  10.449   2.544  22.918
54047W        W54912   8.053   1.336  24.804
54048W        W54913  10.826   1.266  22.285
54049W        W54914   8.571   2.323  22.756
54050W        W54915   9.670   1.705  24.837
54051W        W54916   9.561   1.333  24.381
54052W        W54917   8.121   1.705  24.410
54053W        W54918  10.331   3.593  24.239
54054W        W54919  10.122   0.227  25.233
54055W        W54920   7.786   0.377  24.820
54056W        W54921   8.125   1.400  23.873
54057W        W54922   8.494   1.214  21.995
54058W        W54923   7.297   2.973  24.540
54059W        W54924   8.882   1.682  23.983
54060W        W54925   8.705   0.707  22.088
54061W        W54926   7.840   1.523  22.869
54062W        W54927   7.611   3.375  24.306
54063W        W54928  10.406   1.601  22.414
54064W        W54929  10.501   0.517  25.100
54065W        W54930   9.937   2.726  23.063
54066W        W54931   7.535   1.650  25.240
54067W        W54932  10.501   0.114  22.536
54068W        W54933  10.021   2.589  22.547
54069W        W54934   8.923   1.647  22.632
54070W        W54935  10.110   0.451  22.155
54071W        W54936  10.175   1.058  24.341
54072W        W54937   7.884   1.651  23.548
54073W        W54938   8.178   2.590  23.197
54074W        W54939   9.941   1.210  23.162
54075W        W54940   8.964   0.589  23.858
54076W        W54941  10.926   2.500  24.369
54077W        W54942  10.844   0.487  23.930
54078W        W54943   7.383   3.317  23.306
54079W        W54944   7.892   2.504  22.842
54080W        W54945   7.807   0.121  25.395
54081W        W54946   8.926   2.974  25.497
54082W        W54947  10.681   1.942  23.287
54083W        W54948  10.035   2.119  22.167
54084W        W54949   9.330   3.640  24.379
54085W        W54950  10.187   2.362  25.416
54086W        W54951   9.002   0.072  22.696
54087W        W54952   9.715   0.941  23.555
54088W        W54953   7.401   2.528  23.887
54089W        W54954   8.654   0.490  22.528
54090W        W54955   8.458   1.974  25.377
54091W        W54956   9.452   0.955  23.091
54092W        W54957   9.657   2.365  24.213
54093W        W54958   7.811   2.970  24.648
54094W        W54959   8.402   2.953  25.371
54095W        W54960   8.253   0.750  22.385
54096W        W54961   9.770   0.892  22.710
54097W        W54962   9.728   3.000  24.947
54098W        W54963   8.413   1.592  23.546
54099W        W54964   8.068   3.290  24.411
54100W        W54965  10.813   3.407  22.012
54101W        W54966   7.676   2.079  25.008
54102W        W54967   9.671   2.341  23.696
54103W        W54968   8.107   1.990  22.938
54104W        W54969   8.478   2.997  24.333
54105W        W54970   8.856   0.416  23.374
54106W        W54971   7.467   2.400  22.304
54107W        W54972   8.986   1.351  22.174
54108W        W54973   7.632   1.900  23.193
54109W        W54974   8.922   0.542  24.657
54110W        W54975  10.594   0.251  22.084
54111W        W54976  10.687   1.997  25.183
54112W        W54977   9.341   3.254  25.335
54113W        W54978  10.899   2.348  24.857
54114W        W54979  10.307   3.146  25.468
54115W        W54980   8.046   3.602  23.946
54116W        W54981  10.905   2.224  22.820
54117W        W54982   9.435   1.491  23.333
54118W        W54983   9.202   0.103  23.223
54119W        W54984   8.261   3.087  23.060
54120W        W54985   8.760   0.828  24.285
54121W        W54986   8.460   0.197  23.754
54122W        W54987   7.523   3.019  22.302
54123W        W54988   9.339   2.383  23.020
54124W        W54989   8.214   3.178  24.899
54125W        W54990   7.691   2.001  22.595
54126W        W54991   7.576   0.544  23.594
54127W        W54992   9.124   2.509  23.651
54128W        W54993   7.376   0.363  22.671
54129W        W54994  10.040   1.569  24.598
54130W        W54995   9.917   0.955  22.170
54131W        W54996  10.434   2.627  23.818
54132W        W54997   9.095   3.111  23.649
54133W        W54998   8.507   3.215  22.560
54134W        W54999   9.789   0.118  21.990
54135W        W55000   7.589   3.378  23.731
54136W        W55001   9.786   1.136  25.366
54137W        W55002   7.769   0.666  25.365
54138W        W55003   7.500   1.266  22.698
54139W        W55004   8.191   1.255  22.423
54140W        W55005   9.954   1.582  25.240
54141W        W55006   8.297   1.863  23.949
54142W        W55007   9.771   0.149  23.069
54143W        W55008   8.902   3.580  23.572
54144W        W55009  10.116   3.042  24.509
54145W        W55010   9.700   3.191  23.620
54146W        W55011   9.719   2.171  23.214
54147W        W55012   9.181   0.396  22.285
54148W        W55013  10.862   0.024  23.007
54149W        W55014   8.550   1.659  22.170
54150W        W55015  10.716   0.996  23.160
54151W        W55016   9.408   2.166  22.037
54152W        W55017  10.344   2.366  24.785
54153W        W55018   9.998   3.067  22.252
54154W        W55019   8.613   0.742  25.158
54155W        W55020   8.433   1.326  24.399
54156W        W55021  10.525   2.821  24.676
54157W        W55022   9.625   0.771  25.053
54158W        W55023   7.469   1.242  24.830
54159W        W55024   9.229   1.719  24.556
54160W        W55025   7.586   2.477  23.213
54161W        W55026   7.733   1.774  24.103
54162W        W55027  10.050   2.060  24.453
54163W        W55028   9.822   3.440  25.264
54164W        W55029   9.718   1.179  24.817
54165W        W55030   9.995   3.233  23.222
54166W        W55031   8.997   2.953  24.545
54167W        W55032   8.482   3.308  23.814
54168W        W55033  10.287   2.479  24.233
54169W        W55034   9.337   2.551  25.370
54170W        W55035   7.942   2.504  23.709
54171W        W55036  10.288   2.263  23.354
54172W        W55037   9.929   3.329  24.105
54173W        W55038   7.907   3.058  23.975
54174W        W55039   8.928   1.110  25.185
54175W        W55040   9.379   3.276  22.696
54176W        W55041   8.687   2.531  25.334
54177W        W55042   8.813   2.769  22.711
54178W        W55043   8.034   1.509  21.970
54179W        W55044   7.373   3.595  28.869
54180W        W55045   7.749   2.488  28.392
54181W        W55046  10.454   2.218  26.162
54182W        W55047  10.584   3.303  28.189
54183W        W55048   8.502   3.294  25.715
54184W        W55049   8.585   1.446  26.698
54185W        W55050   8.100   1.294  26.862
54186W        W55051   9.091   2.109  26.296
54187W        W55052   8.766   3.201  28.651
54188W        W55053   7.415   0.762  28.614
54189W        W55054   8.177   0.042  28.416
54190W        W55055   9.871   0.430  27.303
54191W        W55056   9.520   1.301  25.873
54192W        W55057  10.090   0.735  28.964
54193W        W55058   7.456   0.527  28.089
54194W        W55059   7.555   3.146  29.110
54195W        W55060   9.077   2.536  25.842
54196W        W55061   7.509   1.319  27.535
54197W        W55062   8.402   1.210  28.772
54198W        W55063  10.861   1.069  27.271
54199W        W55064  10.625   2.112  28.130
54200W        W55065   8.933   1.445  27.157
54201W        W55066   9.479   2.784  27.526
54202W        W55067   7.979   2.218  27.758
54203W        W55068   7.338   1.746  27.329
54204W        W55069   8.374   1.718  28.521
54205W        W55070  10.645   1.501  28.775
54206W        W55071   8.261   2.945  27.220
54207W        W55072   9.382   2.634  28.354
54208W        W55073   8.602   1.274  27.579
54209W        W55074   8.894   2.058  27.222
54210W        W55075   9.891   2.831  29.070
54211W        W55076   8.970   2.151  29.080
54212W        W55077   8.951   1.867  28.558
54213W        W55078   7.360   1.258  29.080
54214W        W55079  10.192   2.793  28.679
54215W        W55080   7.773   0.375  26.677
54216W        W55081   8.300   2.633  27.676
54217W        W55082  10.763   2.416  26.966
54218W        W55083  10.176   0.816  27.533
54219W        W55084  10.461   0.769  25.628
54220W        W55085  10.926   1.570  27.934
54221W        W55086   8.893   3.277  27.687
54222W        W55087  10.667   2.743  26.125
54223W        W55088   7.796   3.529  25.879
54224W        W55089   8.189   3.575  26.555
54225W        W55090   7.986   0.329  27.981
54226W        W55091  10.609   1.347  28.256
54227W        W55092  10.014   1.769  26.715
54228W        W55093   9.980   1.457  25.742
54229W        W55094   9.188   2.601  27.882
54230W        W55095   9.594   3.018  28.075
54231W        W55096  10.465   1.809  26.497
54232W        W55097   9.367   0.467  26.513
54233W        W55098   8.024   3.161  26.196
54234W        W55099  10.181   1.267  27.269
54235W        W55100   7.639   2.884  27.184
54236W        W55101   8.980   3.234  26.054
54237W        W55102  10.372   1.260  25.518
54238W        W55103   7.395   3.018  27.682
54239W        W55104   8.186   2.590  28.162
54240W        W55105   8.559   1.950  26.781
54241W        W55106   8.581   0.355  27.874
54242W        W55107  10.810   0.117  27.171
54243W        W55108   8.029   1.989  25.639
54244W        W55109   7.684   1.022  25.818
54245W        W55110   7.746   2.978  26.612
54246W        W55111   8.877   2.461  26.860
54247W        W55112  10.209   3.320  28.574
54248W        W55113   9.135   0.962  26.258
54249W        W55114  10.518   3.360  27.030
54250W        W55115  10.195   1.213  28.628
54251W        W55116  10.908   2.869  26.762
54252W        W55117   9.535   2.161  28.246
54253W        W55118   7.301   1.712  26.452
54254W        W55119   8.412   2.127  28.025
54255W        W55120   9.616   1.391  26.403
54256W        W55121   9.493   1.881  26.507
54257W        W55122   7.836   1.301  27.981
54258W        W55123   7.821   1.177  28.903
54259W        W55124   7.711   0.094  27.062
54260W        W55125   9.479   0.441  27.623
54261W        W55126   9.127   0.626  28.786
54262W        W55127   9.482   0.775  25.964
54263W        W55128  10.665   3.168  28.718
54264W        W55129   9.632   0.249  28.757
54265W        W55130  10.651   2.550  28.879
54266W        W55131  10.081   0.717  28.475
54267W        W55132   9.881   0.655  26.745
54268W        W55133  10.274   1.789  29.149
54269W        W55134   8.014   3.365  27.135
54270W        W55135   8.672   1.082  26.121
54271W        W55136   8.241   0.366  28.785
54272W        W55137  10.293   0.850  26.466
54273W        W55138  10.660   1.332  26.411
54274W        W55139   8.403   3.549  28.882
54275W        W55140   8.329   0.085  26.117
54276W        W55141  10.650   0.619  27.152
54277W        W55142  10.800   2.868  25.597
54278W        W55143   7.707   2.071  27.299
54279W        W55144   9.624   0.658  25.529
54280W        W55145  10.758   2.990  27.249
54281W        W55146  10.797   0.184  27.999
54282W        W55147   9.242   1.396  28.553
54283W        W55148   9.335   2.735  26.256
54284W        W55149   9.735   2.029  28.996
54285W        W55150   9.409   0.006  27.305
54286W        W55151   8.021   0.909  27.368
54287W        W55152   7.575   2.109  28.142
54288W        W55153   9.434   3.302  26.848
54289W        W55154  10.628   0.899  27.720
54290W        W55155   9.265   3.246  28.487
54291W        W55156  10.608   2.305  25.692
54292W        W55157   9.043   1.788  26.753
54293W        W55158  10.895   0.299  28.494
54294W        W55159   9.044   2.134  28.088
54295W        W55160   9.261   1.020  27.533
54296W        W55161  10.113   1.318  26.371
54297W        W55162  10.400   1.051  26.013
54298W        W55163  10.209   3.091  26.402
54299W        W55164  10.043   2.694  27.198
54300W        W55165   9.939   1.773  26.176
54301W        W55166   9.372   1.983  27.162
54302W        W55167  10.253   1.771  27.229
54303W        W55168   7.628   0.786  27.653
54304W        W55169  10.406   1.838  28.480
54305W        W55170  10.757   3.456  27.626
54306W        W55171   8.687   2.900  27.028
54307W        W55172   9.694   3.433  28.352
54308W        W55173   9.688   0.763  28.116
54309W        W55174   8.895   3.471  28.177
54310W        W55175  10.592   0.425  26.643
54311W        W55176  10.383   1.744  27.944
54312W        W55177   7.366   1.065  27.982
54313W        W55178  10.226   0.860  27.000
54314W        W55179  10.637   1.011  28.777
54315W        W55180   9.522   2.710  26.995
54316W        W55181   8.778   3.301  26.608
54317W        W55182   7.893   0.481  25.866
54318W        W55183   8.997   0.135  27.676
54319W        W55184   8.025   3.255  25.524
54320W        W55185   8.399   1.721  26.275
54321W        W55186   9.053   2.350  28.588
54322W        W55187   8.883   0.708  26.578
54323W        W55188  10.239   0.305  27.006
54324W        W55189   9.959   3.587  27.334
54325W        W55190   9.371   3.235  27.674
54326W        W55191   8.767   2.272  27.635
54327W        W55192  10.537   2.995  27.761
54328W        W55193   8.231   0.498  26.530
54329W        W55194   8.753   2.795  27.490
54330W        W55195   8.236   0.726  25.555
54331W        W55196   9.037   1.335  27.949
54332W        W55197   9.885   0.201  27.819
54333W        W55198   7.305   2.044  27.704
54334W        W55199   9.009   1.862  25.862
54335W        W55200   8.277   0.177  25.632
54336W        W55201   9.015   1.258  26.683
54337W        W55202   9.985   0.234  28.382
54338W        W55203   8.573   2.246  28.491
54339W        W55204   9.377   2.028  28.708
54340W        W55205   9.994   2.058  28.601
54341W        W55206   9.278   0.198  29.106
54342W        W55207   8.500   0.814  27.499
54343W        W55208   7.926   0.770  26.897
54344W        W55209   7.712   3.482  26.573
54345W        W55210   9.044   2.812  28.698
54346W        W55211   8.079   2.297  26.057
54347W        W55212   9.759   1.682  27.278
54348W        W55213  10.039   1.481  27.677
54349W        W55214   9.244   2.155  27.611
54350W        W55215   9.714   2.529  25.743
54351W        W55216   9.386   0.550  27.071
54352W        W55217  10.865   0.828  26.339
54353W        W55218   7.359   3.417  28.370
54354W        W55219   7.776   2.643  27.902
54355W        W55220   7.343   3.489  26.134
54356W        W55221   9.242   0.759  27.940
54357W        W55222   8.605   2.782  25.789
54358W        W55223  10.510   3.164  25.975
54359W        W55224   9.485   1.817  25.989
54360W        W55225   8.328   1.008  26.506
54361W        W55226   9.160   0.918  25.558
54362W        W55227   9.744   2.483  28.736
54363W        W55228  10.097   0.389  26.353
54364W        W55229   7.427   0.237  25.801
54365W        W55230   8.713   2.556  28.091
54366W        W55231   8.512   2.472  27.183
54367W        W55232   8.254   2.424  25.581
54368W        W55233   7.495   2.665  26.349
54369W        W55234   7.999   1.735  28.791
54370W        W55235   8.703   0.295  28.977
54371W        W55236   9.412   0.437  28.333
54372W        W55237   8.607   0.205  26.614
54373W        W55238   9.666   0.282  26.119
54374W        W55239   7.611   0.214  27.696
54375W        W55240   7.659   1.177  27.066
54376W        W55241  10.348   0.285  27.472
54377W        W55242   7.770   0.783  26.286
54378W        W55243  10.737   1.674  25.587
54379W        W55244   8.029   0.432  27.406
54380W        W55245   9.143   1.004  28.346
54381W        W55246   7.291   0.694  25.824
54382W        W55247   8.077   2.083  28.385
54383W        W55248   9.435   1.481  27.564
54384W        W55249   9.302   3.560  25.860
54385W        W55250   7.448   2.067  25.557
54386W        W55251   8.183   2.478  28.683
54387W        W55252   7.704   1.645  28.314
54388W        W55253   8.695   1.750  28.108
54389W        W55254  10.463   0.109  28.370
54390W        W55255  10.861   1.719  28.361
54391W        W55256  10.849   1.919  26.047
54392W        W55257   9.712   2.251  26.146
54393W        W55258  10.186   3.551  25.841
54394W        W55259   9.363   1.541  28.983
54395W        W55260   7.693   2.508  29.023
54396W        W55261  10.899   0.430  28.975
54397W        W55262  10.617   1.358  27.596
54398W        W55263   8.925   3.488  29.073
54399W        W55264   8.780   0.117  25.800
54400W        W55265  10.319   2.716  25.743
54401W        W55266   8.088   0.809  28.629
54402W        W55267   8.522   2.803  28.491
54403W        W55268  10.648   0.794  28.289
54404W        W55269   9.859   3.453  26.257
54405W        W55270  10.098   2.072  27.624
54406W        W55271   8.348   0.488  28.291
54407W        W55272   8.817   1.557  29.048
54408W        W55273   8.320   2.736  26.242
54409W        W55274  10.075   2.234  26.506
54410W        W55275   7.843   0.860  28.230
54411W        W55276   9.172   2.922  26.694
54412W        W55277  10.922   1.482  26.875
54413W        W55278   9.144   0.115  28.594
54414W        W55279   9.924   2.820  27.673
54415W        W55280  10.227   3.164  27.381
54416W        W55281   9.446   2.966  25.809
54417W        W55282   7.456   2.858  28.651
54418W        W55283   8.199   0.850  27.889
54419W        W55284   8.169   0.198  26.999
54420W        W55285   9.790   1.040  27.691
54421W        W55286   8.588   2.211  25.891
54422W        W55287  10.586   2.153  27.390
54423W        W55288   7.913   2.911  28.813
54424W        W55289  10.300   3.593  26.610
54425W        W55290   8.399   0.613  27.055
54426W        W55291   8.168   2.106  27.145
54427W        W55292   8.481   3.517  27.895
54428W        W55293  10.548   3.613  28.927
54429W        W55294   9.707   1.801  27.860
54430W        W55295   7.556   1.599  25.775
54431W        W55296  10.690   3.257  26.472
54432W        W55297  10.527   0.581  26.091
54433W        W55298   8.666   0.100  28.494
54434W        W55299  10.372   2.902  26.952
54435W        W55300  10.401   1.458  26.857
54436W        W55301   8.518   1.131  27.073
54437W        W55302   8.763   1.393  28.397
54438W        W55303   9.874   2.546  28.260
54439W        W55304   8.524   1.000  28.372
54440W        W55305   8.503   3.466  26.988
54441W        W55306   7.820   3.425  28.622
54442W        W55307   7.932   2.786  25.752
54443W        W55308  10.449   2.544  26.562
54444W        W55309   8.053   1.336  28.448
54445W        W55310  10.826   1.266  25.929
54446W        W55311   8.571   2.323  26.400
54447W        W55312   9.670   1.705  28.481
54448W        W55313   9.561   1.333  28.025
54449W        W55314   8.121   1.705  28.054
54450W        W55315  10.331   3.593  27.883
54451W        W55316  10.122   0.227  28.877
54452W        W55317   7.786   0.377  28.464
54453W        W55318   8.125   1.400  27.517
54454W        W55319   8.494   1.214  25.639
54455W        W55320   7.297   2.973  28.184
54456W        W55321   8.882   1.682  27.627
54457W        W55322   8.705   0.707  25.732
54458W        W55323   7.840   1.523  26.513
54459W        W55324   7.611   3.375  27.950
54460W        W55325  10.406   1.601  26.058
54461W        W55326  10.501   0.517  28.744
54462W        W55327   9.937   2.726  26.707
54463W        W55328   7.535   1.650  28.884
54464W        W55329  10.501   0.114  26.180
54465W        W55330  10.021   2.589  26.191
54466W        W55331   8.923   1.647  26.276
54467W        W55332  10.110   0.451  25.799
54468W        W55333  10.175   1.058  27.985
54469W        W55334   7.884   1.651  27.192
54470W        W55335   8.178   2.590  26.841
54471W        W55336   9.941   1.210  26.806
54472W        W55337   8.964   0.589  27.502
54473W        W55338  10.926   2.500  28.013
54474W        W55339  10.844   0.487  27.574
54475W        W55340   7.383   3.317  26.950
54476W        W55341   7.892   2.504  26.486
54477W        W55342   7.807   0.121  29.039
54478W        W55343   8.926   2.974  29.141
54479W        W55344  10.681   1.942  26.931
54480W        W55345  10.035   2.119  25.811
54481W        W55346   9.330   3.640  28.023
54482W        W55347  10.187   2.362  29.060
54483W        W55348   9.002   0.072  26.340
54484W        W55349   9.715   0.941  27.199
54485W        W55350   7.401   2.528  27.531
54486W        W55351   8.654   0.490  26.172
54487W        W55352   8.458   1.974  29.021
54488W        W55353   9.452   0.955  26.735
54489W        W55354   9.657   2.365  27.857
54490W        W55355   7.811   2.970  28.292
54491W        W55356   8.402   2.953  29.015
54492W        W55357   8.253   0.750  26.029
54493W        W55358   9.770   0.892  26.354
54494W        W55359   9.728   3.000  28.591
54495W        W55360   8.413   1.592  27.190
54496W        W55361   8.068   3.290  28.055
54497W        W55362  10.813   3.407  25.656
54498W        W55363   7.676   2.079  28.652
54499W        W55364   9.671   2.341  27.340
54500W        W55365   8.107   1.990  26.582
54501W        W55366   8.478   2.997  27.977
54502W        W55367   8.856   0.416  27.018
54503W        W55368   7.467   2.400  25.948
54504W        W55369   8.986   1.351  25.818
54505W        W55370   7.632   1.900  26.837
54506W        W55371   8.922   0.542  28.301
54507W        W55372  10.594   0.251  25.728
54508W        W55373  10.687   1.997  28.827
54509W        W55374   9.341   3.254  28.979
54510W        W55375  10.899   2.348  28.501
54511W        W55376  10.307   3.146  29.112
54512W        W55377   8.046   3.602  27.590
54513W        W55378  10.905   2.224  26.464
54514W        W55379   9.435   1.491  26.977
54515W        W55380   9.202   0.103  26.867
54516W        W55381   8.261   3.087  26.704
54517W        W55382   8.760   0.828  27.929
54518W        W55383   8.460   0.197  27.398
54519W        W55384   7.523   3.019  25.946
54520W        W55385   9.339   2.383  26.664
54521W        W55386   8.214   3.178  28.543
54522W        W55387   7.691   2.001  26.239
54523W        W55388   7.576   0.544  27.238
54524W        W55389   9.124   2.509  27.295
54525W        W55390   7.376   0.363  26.315
54526W        W55391  10.040   1.569  28.242
54527W        W55392   9.917   0.955  25.814
54528W        W55393  10.434   2.627  27.462
54529W        W55394   9.095   3.111  27.293
54530W        W55395   8.507   3.215  26.204
54531W        W55396   9.789   0.118  25.634
54532W        W55397   7.589   3.378  27.375
54533W        W55398   9.786   1.136  29.010
54534W        W55399   7.769   0.666  29.009
54535W        W55400   7.500   1.266  26.342
54536W        W55401   8.191   1.255  26.067
54537W        W55402   9.954   1.582  28.884
54538W        W55403   8.297   1.863  27.593
54539W        W55404   9.771   0.149  26.713
54540W        W55405   8.902   3.580  27.216
54541W        W55406  10.116   3.042  28.153
54542W        W55407   9.700   3.191  27.264
54543W        W55408   9.719   2.171  26.858
54544W        W55409   9.181   0.396  25.929
54545W        W55410  10.862   0.024  26.651
54546W        W55411   8.550   1.659  25.814
54547W        W55412  10.716   0.996  26.804
54548W        W55413   9.408   2.166  25.681
54549W        W55414  10.344   2.366  28.429
54550W        W55415   9.998   3.067  25.896
54551W        W55416   8.613   0.742  28.802
54552W        W55417   8.433   1.326  28.043
54553W        W55418  10.525   2.821  28.320
54554W        W55419   9.625   0.771  28.697
54555W        W55420   7.469   1.242  28.474
54556W        W55421   9.229   1.719  28.200
54557W        W55422   7.586   2.477  26.857
54558W        W55423   7.733   1.774  27.747
54559W        W55424  10.050   2.060  28.097
54560W        W55425   9.822   3.440  28.908
54561W        W55426   9.718   1.179  28.461
54562W        W55427   9.995   3.233  26.866
54563W        W55428   8.997   2.953  28.189
54564W        W55429   8.482   3.308  27.458
54565W        W55430  10.287   2.479  27.877
54566W        W55431   9.337   2.551  29.014
54567W        W55432   7.942   2.504  27.353
54568W        W55433  10.288   2.263  26.998
54569W        W55434   9.929   3.329  27.749
54570W        W55435   7.907   3.058  27.619
54571W        W55436   8.928   1.110  28.829
54572W        W55437   9.379   3.276  26.340
54573W        W55438   8.687   2.531  28.978
54574W        W55439   8.813   2.769  26.355
54575W        W55440   8.034   1.509  25.614
54576W        W55441   7.373   7.239   3.359
54577W        W55442   7.749   6.132   2.882
54578W        W55443  10.454   5.862   0.652
54579W        W55444  10.584   6.947   2.679
54580W        W55445   8.502   6.938   0.205
54581W        W55446   8.585   5.090   1.188
54582W        W55447   8.100   4.938   1.352
54583W        W55448   9.091   5.753   0.786
54584W        W55449   8.766   6.845   3.141
54585W        W55450   7.415   4.406   3.104
54586W        W55451   8.177   3.686   2.906
54587W        W55452   9.871   4.074   1.793
54588W        W55453   9.520   4.945   0.363
54589W        W55454  10.090   4.379   3.454
54590W        W55455   7.456   4.171   2.579
54591W        W55456   7.555   6.790   3.600
54592W        W55457   9.077   6.180   0.332
54593W        W55458   7.509   4.963   2.025
54594W        W55459   8.402   4.854   3.262
54595W        W55460  10.861   4.713   1.761
54596W        W55461  10.625   5.756   2.620
54597W        W55462   8.933   5.089   1.647
54598W        W55463   9.479   6.428   2.016
54599W        W55464   7.979   5.862   2.248
54600W        W55465   7.338   5.390   1.819
54601W        W55466   8.374   5.362   3.011
54602W        W55467  10.645   5.145   3.265
54603W        W55468   8.261   6.589   1.710
54604W        W55469   9.382   6.278   2.844
54605W        W55470   8.602   4.918   2.069
54606W        W55471   8.894   5.702   1.712
54607W        W55472   9.891   6.475   3.560
54608W        W55473   8.970   5.795   3.570
54609W        W55474   8.951   5.511   3.048
54610W        W55475   7.360   4.902   3.570
54611W        W55476  10.192   6.437   3.169
54612W        W55477   7.773   4.019   1.167
54613W        W55478   8.300   6.277   2.166
54614W        W55479  10.763   6.060   1.456
54615W        W55480  10.176   4.460   2.023
54616W        W55481  10.461   4.413   0.118
54617W        W55482  10.926   5.214   2.424
54618W        W55483   8.893   6.921   2.177
54619W        W55484  10.667   6.387   0.615
54620W        W55485   7.796   7.173   0.369
54621W        W55486   8.189   7.219   1.045
54622W        W55487   7.986   3.973   2.471
54623W        W55488  10.609   4.991   2.746
54624W        W55489  10.014   5.413   1.205
54625W        W55490   9.980   5.101   0.232
54626W        W55491   9.188   6.245   2.372
54627W        W55492   8.994   4.575   1.571
54628W        W55493   9.594   6.662   2.565
54629W        W55494  10.465   5.453   0.987
54630W        W55495   9.367   4.111   1.003
54631W        W55496   8.024   6.805   0.686
54632W        W55497   7.395   4.304   1.285
54633W        W55498  10.181   4.911   1.759
54634W        W55499   7.639   6.528   1.674
54635W        W55500   8.980   6.878   0.544
54636W        W55501  10.372   4.904   0.008
54637W        W55502   7.395   6.662   2.172
54638W        W55503   8.186   6.234   2.652
54639W        W55504   8.559   5.594   1.271
54640W        W55505   8.581   3.999   2.364
54641W        W55506  10.810   3.761   1.661
54642W        W55507   8.029   5.633   0.129
54643W        W55508   7.684   4.666   0.308
54644W        W55509   7.746   6.622   1.102
54645W        W55510   8.877   6.105   1.350
54646W        W55511  10.209   6.964   3.064
54647W        W55512   9.135   4.606   0.748
54648W        W55513  10.518   7.004   1.520
54649W        W55514  10.195   4.857   3.118
54650W        W55515  10.908   6.513   1.252
54651W        W55516   9.535   5.805   2.736
54652W        W55517   7.301   5.356   0.942
54653W        W55518   8.412   5.771   2.515
54654W        W55519   9.616   5.035   0.893
54655W        W55520   9.493   5.525   0.997
54656W        W55521   7.836   4.945   2.471
54657W        W55522   7.821   4.821   3.393
54658W        W55523   7.711   3.738   1.552
54659W        W55524   9.479   4.085   2.113
54660W        W55525   9.127   4.270   3.276
54661W        W55526   9.482   4.419   0.454
54662W        W55527  10.665   6.812   3.208
54663W        W55528   9.632   3.893   3.247
54664W        W55529  10.651   6.194   3.369
54665W        W55530  10.081   4.361   2.965
54666W        W55531   9.881   4.299   1.235
54667W        W55532  10.274   5.433   3.639
54668W        W55533   8.014   7.009   1.625
54669W        W55534   8.672   4.726   0.611
54670W        W55535   8.241   4.010   3.275
54671W        W55536  10.293   4.494   0.956
54672W        W55537  10.660   4.976   0.901
54673W        W55538   8.403   7.193   3.372
54674W        W55539   8.329   3.729   0.607
54675W        W55540  10.650   4.263   1.642
54676W        W55541  10.800   6.512   0.087
54677W        W55542   7.707   5.715   1.789
54678W        W55543   9.624   4.302   0.019
54679W        W55544  10.758   6.634   1.739
54680W        W55545  10.797   3.828   2.489
54681W        W55546   9.242   5.040   3.043
54682W        W55547   9.335   6.379   0.746
54683W        W55548   9.735   5.673   3.486
54684W        W55549   9.409   3.650   1.795
54685W        W55550   8.021   4.553   1.858
54686W        W55551   7.575   5.753   2.632
54687W        W55552   9.434   6.946   1.338
54688W        W55553  10.628   4.543   2.210
54689W        W55554   9.265   6.890   2.977
54690W        W55555  10.608   5.949   0.182
54691W        W55556   9.043   5.432   1.243
54692W        W55557  10.895   3.943   2.984
54693W        W55558   9.044   5.778   2.578
54694W        W55559   9.261   4.664   2.023
54695W        W55560  10.113   4.962   0.861
54696W        W55561  10.400   4.695   0.503
54697W        W55562  10.209   6.735   0.892
54698W        W55563  10.043   6.338   1.688
54699W        W55564   9.939   5.417   0.666
54700W        W55565   9.372   5.627   1.652
54701W        W55566  10.253   5.415   1.719
54702W        W55567   7.628   4.430   2.143
54703W        W55568  10.406   5.482   2.970
54704W        W55569  10.757   7.100   2.116
54705W        W55570   8.687   6.544   1.518
54706W        W55571   9.694   7.077   2.842
54707W        W55572   9.688   4.407   2.606
54708W        W55573   8.895   7.115   2.667
54709W        W55574  10.592   4.069   1.133
54710W        W55575  10.383   5.388   2.434
54711W        W55576   7.366   4.709   2.472
54712W        W55577  10.226   4.504   1.490
54713W        W55578  10.637   4.655   3.267
54714W        W55579   9.522   6.354   1.485
54715W        W55580   8.778   6.945   1.098
54716W        W55581   7.893   4.125   0.356
54717W        W55582   8.997   3.779   2.166
54718W        W55583   8.025   6.899   0.014
54719W        W55584   8.399   5.365   0.765
54720W        W55585   9.053   5.994   3.078
54721W        W55586   8.883   4.352   1.068
54722W        W55587  10.239   3.949   1.496
54723W        W55588   9.959   7.231   1.824
54724W        W55589   9.371   6.879   2.164
54725W        W55590   8.767   5.916   2.125
54726W        W55591  10.537   6.639   2.251
54727W        W55592   8.231   4.142   1.020
54728W        W55593   8.753   6.439   1.980
54729W        W55594   8.236   4.370   0.045
54730W        W55595   9.037   4.979   2.439
54731W        W55596   9.885   3.845   2.309
54732W        W55597   7.305   5.688   2.194
54733W        W55598   9.009   5.506   0.352
54734W        W55599   8.277   3.821   0.122
54735W        W55600   9.015   4.902   1.173
54736W        W55601   9.985   3.878   2.872
54737W        W55602   8.573   5.890   2.981
54738W        W55603   9.377   5.672   3.198
54739W        W55604   9.994   5.702   3.091
54740W        W55605   9.278   3.842   3.596
54741W        W55606   8.500   4.458   1.989
54742W        W55607   7.926   4.414   1.387
54743W        W55608   7.712   7.126   1.063
54744W        W55609   9.044   6.456   3.188
54745W        W55610   8.079   5.941   0.547
54746W        W55611   9.759   5.326   1.768
54747W        W55612  10.039   5.125   2.167
54748W        W55613   9.244   5.799   2.101
54749W        W55614   9.714   6.173   0.233
54750W        W55615   9.386   4.194   1.561
54751W        W55616  10.865   4.472   0.829
54752W        W55617   7.359   7.061   2.860
54753W        W55618   7.776   6.287   2.392
54754W        W55619   7.343   7.133   0.624
54755W        W55620   9.242   4.403   2.430
54756W        W55621   8.605   6.426   0.279
54757W        W55622  10.510   6.808   0.465
54758W        W55623   9.485   5.461   0.479
54759W        W55624   8.328   4.652   0.996
54760W        W55625   9.160   4.562   0.048
54761W        W55626   9.744   6.127   3.226
54762W        W55627  10.097   4.033   0.843
54763W        W55628   7.427   3.881   0.291
54764W        W55629   8.713   6.200   2.581
54765W        W55630   8.512   6.116   1.673
54766W        W55631   8.254   6.068   0.071
54767W        W55632   7.495   6.309   0.839
54768W        W55633   7.999   5.379   3.281
54769W        W55634   8.703   3.939   3.467
54770W        W55635   9.412   4.081   2.823
54771W        W55636   8.607   3.849   1.104
54772W        W55637   9.666   3.926   0.609
54773W        W55638   7.611   3.858   2.186
54774W        W55639   7.659   4.821   1.556
54775W        W55640  10.348   3.929   1.962
54776W        W55641   7.770   4.427   0.776
54777W        W55642  10.341   4.115   2.392
54778W        W55643  10.737   5.318   0.077
54779W        W55644   8.029   4.076   1.896
54780W        W55645   9.143   4.648   2.836
54781W        W55646   7.291   4.338   0.314
54782W        W55647   8.077   5.727   2.875
54783W        W55648   9.435   5.125   2.054
54784W        W55649   9.302   7.204   0.350
54785W        W55650   7.448   5.711   0.047
54786W        W55651   8.183   6.122   3.173
54787W        W55652   7.704   5.289   2.804
54788W        W55653   8.695   5.394   2.598
54789W        W55654  10.463   3.753   2.860
54790W        W55655  10.861   5.363   2.851
54791W        W55656  10.849   5.563   0.537
54792W        W55657   9.712   5.895   0.636
54793W        W55658  10.186   7.195   0.331
54794W        W55659   9.363   5.185   3.473
54795W        W55660   7.693   6.152   3.513
54796W        W55661  10.899   4.074   3.465
54797W        W55662  10.617   5.002   2.086
54798W        W55663   8.925   7.132   3.563
54799W        W55664   8.780   3.761   0.290
54800W        W55665  10.319   6.360   0.233
54801W        W55666   8.088   4.453   3.119
54802W        W55667   8.522   6.447   2.981
54803W        W55668  10.648   4.438   2.779
54804W        W55669   9.859   7.097   0.747
54805W        W55670  10.098   5.716   2.114
54806W        W55671   8.348   4.132   2.781
54807W        W55672   8.817   5.201   3.538
54808W        W55673   8.320   6.380   0.732
54809W        W55674  10.075   5.878   0.996
54810W        W55675   7.843   4.504   2.720
54811W        W55676   9.172   6.566   1.184
54812W        W55677  10.922   5.126   1.365
54813W        W55678   9.144   3.759   3.084
54814W        W55679   9.924   6.464   2.163
54815W        W55680  10.227   6.808   1.871
54816W        W55681   9.446   6.610   0.299
54817W        W55682   7.456   6.502   3.141
54818W        W55683   8.199   4.494   2.379
54819W        W55684   8.169   3.842   1.489
54820W        W55685   9.790   4.684   2.181
54821W        W55686   8.588   5.855   0.381
54822W        W55687  10.586   5.797   1.880
54823W        W55688   7.913   6.555   3.303
54824W        W55689  10.300   7.237   1.100
54825W        W55690   8.399   4.257   1.545
54826W        W55691   8.168   5.750   1.635
54827W        W55692   8.481   7.161   2.385
54828W        W55693  10.548   7.257   3.417
54829W        W55694   9.707   5.445   2.350
54830W        W55695   7.556   5.243   0.265
54831W        W55696  10.690   6.901   0.962
54832W        W55697  10.527   4.225   0.581
54833W        W55698   8.666   3.744   2.984
54834W        W55699  10.372   6.546   1.442
54835W        W55700  10.401   5.102   1.347
54836W        W55701   8.518   4.775   1.563
54837W        W55702   8.763   5.037   2.887
54838W        W55703   9.874   6.190   2.750
54839W        W55704   8.524   4.644   2.862
54840W        W55705   8.503   7.110   1.478
54841W        W55706   7.820   7.069   3.112
54842W        W55707   7.932   6.430   0.242
54843W        W55708  10.449   6.188   1.052
54844W        W55709   8.053   4.980   2.938
54845W        W55710  10.826   4.910   0.419
54846W        W55711   8.571   5.967   0.890
54847W        W55712   9.670   5.349   2.971
54848W        W55713   9.561   4.977   2.515
54849W        W55714   8.121   5.349   2.544
54850W        W55715  10.331   7.237   2.373
54851W        W55716  10.122   3.871   3.367
54852W        W55717   7.786   4.021   2.954
54853W        W55718   8.125   5.044   2.007
54854W        W55719   8.494   4.858   0.129
54855W        W55720   7.297   6.617   2.674
54856W        W55721   8.882   5.326   2.117
54857W        W55722   8.705   4.351   0.222
54858W        W55723   7.840   5.167   1.003
54859W        W55724   7.611   7.019   2.440
54860W        W55725  10.406   5.245   0.548
54861W        W55726  10.501   4.161   3.234
54862W        W55727   9.937   6.370   1.197
54863W        W55728   7.535   5.294   3.374
54864W        W55729  10.501   3.758   0.670
54865W        W55730  10.021   6.233   0.681
54866W        W55731   8.923   5.291   0.766
54867W        W55732  10.110   4.095   0.289
54868W        W55733  10.175   4.702   2.475
54869W        W55734   7.884   5.295   1.682
54870W        W55735   8.178   6.234   1.331
54871W        W55736   9.941   4.854   1.296
54872W        W55737   8.964   4.233   1.992
54873W        W55738  10.926   6.144   2.503
54874W        W55739  10.844   4.131   2.064
54875W        W55740   7.383   6.961   1.440
54876W        W55741   7.892   6.148   0.976
54877W        W55742   7.807   3.765   3.529
54878W        W55743   8.926   6.618   3.631
54879W        W55744  10.681   5.586   1.421
54880W        W55745  10.035   5.763   0.301
54881W        W55746   9.330   7.284   2.513
54882W        W55747  10.187   6.006   3.550
54883W        W55748   9.002   3.716   0.830
54884W        W55749   9.715   4.585   1.689
54885W        W55750   7.401   6.172   2.021
54886W        W55751   8.654   4.134   0.662
54887W        W55752   8.458   5.618   3.511
54888W        W55753   9.452   4.599   1.225
54889W        W55754   9.657   6.009   2.347
54890W        W55755   7.811   6.614   2.782
54891W        W55756   8.402   6.597   3.505
54892W        W55757   8.253   4.394   0.519
54893W        W55758   9.770   4.536   0.844
54894W        W55759   9.728   6.644   3.081
54895W        W55760   8.413   5.236   1.680
54896W        W55761   8.068   6.934   2.545
54897W        W55762  10.813   7.051   0.146
54898W        W55763   7.676   5.723   3.142
54899W        W55764   9.671   5.985   1.830
54900W        W55765   8.107   5.634   1.072
54901W        W55766   8.478   6.641   2.467
54902W        W55767   8.856   4.060   1.508
54903W        W55768   7.467   6.044   0.438
54904W        W55769   8.986   4.995   0.308
54905W        W55770   7.632   5.544   1.327
54906W        W55771   8.922   4.186   2.791
54907W        W55772  10.594   3.895   0.218
54908W        W55773  10.687   5.641   3.317
54909W        W55774   9.341   6.898   3.469
54910W        W55775  10.899   5.992   2.991
54911W        W55776  10.307   6.790   3.602
54912W        W55777   8.046   7.246   2.080
54913W        W55778  10.905   5.868   0.954
54914W        W55779   9.435   5.135   1.467
54915W        W55780   9.202   3.747   1.357
54916W        W55781   8.261   6.731   1.194
54917W        W55782   8.760   4.472   2.419
54918W        W55783   8.460   3.841   1.888
54919W        W55784   7.523   6.663   0.436
54920W        W55785   9.339   6.027   1.154
54921W        W55786   8.214   6.822   3.033
54922W        W55787   7.691   5.645   0.729
54923W        W55788   7.576   4.188   1.728
54924W        W55789   9.124   6.153   1.785
54925W        W55790   7.376   4.007   0.805
54926W        W55791  10.040   5.213   2.732
54927W        W55792   9.917   4.599   0.304
54928W        W55793  10.434   6.271   1.952
54929W        W55794   9.095   6.755   1.783
54930W        W55795   8.507   6.859   0.694
54931W        W55796   9.789   3.762   0.124
54932W        W55797   7.589   7.022   1.865
54933W        W55798   9.786   4.780   3.500
54934W        W55799   7.769   4.310   3.499
54935W        W55800   7.500   4.910   0.832
54936W        W55801   8.191   4.899   0.557
54937W        W55802   9.954   5.226   3.374
54938W        W55803   8.297   5.507   2.083
54939W        W55804   9.771   3.793   1.203
54940W        W55805   8.902   7.224   1.706
54941W        W55806  10.116   6.686   2.643
54942W        W55807   9.700   6.835   1.754
54943W        W55808   9.719   5.815   1.348
54944W        W55809   9.181   4.040   0.419
54945W        W55810  10.862   3.668   1.141
54946W        W55811   8.550   5.303   0.304
54947W        W55812  10.716   4.640   1.294
54948W        W55813   9.408   5.810   0.171
54949W        W55814  10.344   6.010   2.919
54950W        W55815   9.998   6.711   0.386
54951W        W55816   8.613   4.386   3.292
54952W        W55817   8.433   4.970   2.533
54953W        W55818  10.525   6.465   2.810
54954W        W55819   9.625   4.415   3.187
54955W        W55820   7.469   4.886   2.964
54956W        W55821   9.229   5.363   2.690
54957W        W55822   7.586   6.121   1.347
54958W        W55823   7.733   5.418   2.237
54959W        W55824  10.050   5.704   2.587
54960W        W55825   9.822   7.084   3.398
54961W        W55826   9.718   4.823   2.951
54962W        W55827   9.995   6.877   1.356
54963W        W55828   8.997   6.597   2.679
54964W        W55829   8.482   6.952   1.948
54965W        W55830  10.287   6.123   2.367
54966W        W55831   9.337   6.195   3.504
54967W        W55832   7.942   6.148   1.843
54968W        W55833  10.288   5.907   1.488
54969W        W55834   9.929   6.973   2.239
54970W        W55835   7.907   6.702   2.109
54971W        W55836   8.928   4.754   3.319
54972W        W55837   9.379   6.920   0.830
54973W        W55838   8.687   6.175   3.468
54974W        W55839   8.813   6.413   0.845
54975W        W55840   8.034   5.153   0.104
54976W        W55841   7.373   7.239   7.003
54977W        W55842   7.749   6.132   6.526
54978W        W55843  10.454   5.862   4.296
54979W        W55844  10.584   6.947   6.323
54980W        W55845   8.502   6.938   3.849
54981W        W55846   8.585   5.090   4.832
54982W        W55847   8.100   4.938   4.996
54983W        W55848   9.091   5.753   4.430
54984W        W55849   8.766   6.845   6.785
54985W        W55850   7.415   4.406   6.748
54986W        W55851   8.177   3.686   6.550
54987W        W55852   9.871   4.074   5.437
54988W        W55853   9.520   4.945   4.007
54989W        W55854  10.090   4.379   7.098
54990W        W55855   7.456   4.171   6.223
54991W        W55856   7.555   6.790   7.244
54992W        W55857   9.077   6.180   3.976
54993W        W55858   7.509   4.963   5.669
54994W        W55859   8.402   4.854   6.906
54995W        W55860  10.861   4.713   5.405
54996W        W55861  10.625   5.756   6.264
54997W        W55862   8.933   5.089   5.291
54998W        W55863   9.479   6.428   5.660
54999W        W55864   7.979   5.862   5.892
55000W        W55865   7.338   5.390   5.463
55001W        W55866   8.374   5.362   6.655
55002W        W55867  10.645   5.145   6.909
55003W        W55868   8.261   6.589   5.354
55004W        W55869   9.382   6.278   6.488
55005W        W55870   8.602   4.918   5.713
55006W        W55871   8.894   5.702   5.356
55007W        W55872   9.891   6.475   7.204
55008W        W55873   8.970   5.795   7.214
55009W        W55874   8.951   5.511   6.692
55010W        W55875   7.360   4.902   7.214
55011W        W55876  10.192   6.437   6.813
55012W        W55877   7.773   4.019   4.811
55013W        W55878   8.300   6.277   5.810
55014W        W55879  10.763   6.060   5.100
55015W        W55880  10.176   4.460   5.667
55016W        W55881  10.461   4.413   3.762
55017W        W55882  10.926   5.214   6.068
55018W        W55883   8.893   6.921   5.821
55019W        W55884  10.667   6.387   4.259
55020W        W55885   7.796   7.173   4.013
55021W        W55886   8.189   7.219   4.689
55022W        W55887   7.986   3.973   6.115
55023W        W55888  10.609   4.991   6.390
55024W        W55889  10.014   5.413   4.849
55025W        W55890   9.980   5.101   3.876
55026W        W55891   9.188   6.245   6.016
55027W        W55892   8.994   4.575   5.215
55028W        W55893   9.594   6.662   6.209
55029W        W55894  10.465   5.453   4.631
55030W        W55895   9.367   4.111   4.647
55031W        W55896   8.024   6.805   4.330
55032W        W55897   7.395   4.304   4.929
55033W        W55898  10.181   4.911   5.403
55034W        W55899   7.639   6.528   5.318
55035W        W55900   8.980   6.878   4.188
55036W        W55901  10.372   4.904   3.652
55037W        W55902   7.395   6.662   5.816
55038W        W55903   8.186   6.234   6.296
55039W        W55904   8.559   5.594   4.915
55040W        W55905   8.581   3.999   6.008
55041W        W55906  10.810   3.761   5.305
55042W        W55907   8.029   5.633   3.773
55043W        W55908   7.684   4.666   3.952
55044W        W55909   7.746   6.622   4.746
55045W        W55910   8.877   6.105   4.994
55046W        W55911  10.209   6.964   6.708
55047W        W55912   9.135   4.606   4.392
55048W        W55913  10.518   7.004   5.164
55049W        W55914  10.195   4.857   6.762
55050W        W55915  10.908   6.513   4.896
55051W        W55916   9.535   5.805   6.380
55052W        W55917   7.301   5.356   4.586
55053W        W55918   8.412   5.771   6.159
55054W        W55919   9.616   5.035   4.537
55055W        W55920   9.493   5.525   4.641
55056W        W55921   7.836   4.945   6.115
55057W        W55922   7.821   4.821   7.037
55058W        W55923   7.711   3.738   5.196
55059W        W55924   9.479   4.085   5.757
55060W        W55925   9.127   4.270   6.920
55061W        W55926   9.482   4.419   4.098
55062W        W55927  10.665   6.812   6.852
55063W        W55928   9.632   3.893   6.891
55064W        W55929  10.651   6.194   7.013
55065W        W55930  10.081   4.361   6.609
55066W        W55931   9.881   4.299   4.879
55067W        W55932  10.274   5.433   7.283
55068W        W55933   8.014   7.009   5.269
55069W        W55934   8.672   4.726   4.255
55070W        W55935   8.241   4.010   6.919
55071W        W55936  10.293   4.494   4.600
55072W        W55937  10.660   4.976   4.545
55073W        W55938   8.403   7.193   7.016
55074W        W55939   8.329   3.729   4.251
55075W        W55940  10.650   4.263   5.286
55076W        W55941  10.800   6.512   3.731
55077W        W55942   7.707   5.715   5.433
55078W        W55943   9.624   4.302   3.663
55079W        W55944  10.758   6.634   5.383
55080W        W55945  10.797   3.828   6.133
55081W        W55946   9.242   5.040   6.687
55082W        W55947   9.335   6.379   4.390
55083W        W55948   9.735   5.673   7.130
55084W        W55949   9.409   3.650   5.439
55085W        W55950   8.021   4.553   5.502
55086W        W55951   7.575   5.753   6.276
55087W        W55952   9.434   6.946   4.982
55088W        W55953  10.628   4.543   5.854
55089W        W55954   9.265   6.890   6.621
55090W        W55955  10.608   5.949   3.826
55091W        W55956   9.043   5.432   4.887
55092W        W55957  10.895   3.943   6.628
55093W        W55958   9.044   5.778   6.222
55094W        W55959   9.261   4.664   5.667
55095W        W55960  10.113   4.962   4.505
55096W        W55961  10.400   4.695   4.147
55097W        W55962  10.209   6.735   4.536
55098W        W55963  10.043   6.338   5.332
55099W        W55964   9.939   5.417   4.310
55100W        W55965   9.372   5.627   5.296
55101W        W55966  10.253   5.415   5.363
55102W        W55967   7.628   4.430   5.787
55103W        W55968  10.406   5.482   6.614
55104W        W55969  10.757   7.100   5.760
55105W        W55970   8.687   6.544   5.162
55106W        W55971   9.694   7.077   6.486
55107W        W55972   9.688   4.407   6.250
55108W        W55973   8.895   7.115   6.311
55109W        W55974  10.592   4.069   4.777
55110W        W55975  10.383   5.388   6.078
55111W        W55976   7.366   4.709   6.116
55112W        W55977  10.226   4.504   5.134
55113W        W55978  10.637   4.655   6.911
55114W        W55979   9.522   6.354   5.129
55115W        W55980   8.778   6.945   4.742
55116W        W55981   7.893   4.125   4.000
55117W        W55982   8.997   3.779   5.810
55118W        W55983   8.025   6.899   3.658
55119W        W55984   8.399   5.365   4.409
55120W        W55985   9.053   5.994   6.722
55121W        W55986   8.883   4.352   4.712
55122W        W55987  10.239   3.949   5.140
55123W        W55988   9.959   7.231   5.468
55124W        W55989   9.371   6.879   5.808
55125W        W55990   8.767   5.916   5.769
55126W        W55991  10.537   6.639   5.895
55127W        W55992   8.231   4.142   4.664
55128W        W55993   8.753   6.439   5.624
55129W        W55994   8.236   4.370   3.689
55130W        W55995   9.037   4.979   6.083
55131W        W55996   9.885   3.845   5.953
55132W        W55997   7.305   5.688   5.838
55133W        W55998   9.009   5.506   3.996
55134W        W55999   8.277   3.821   3.766
55135W        W56000   9.015   4.902   4.817
55136W        W56001   9.985   3.878   6.516
55137W        W56002   8.573   5.890   6.625
55138W        W56003   9.377   5.672   6.842
55139W        W56004   9.994   5.702   6.735
55140W        W56005   9.278   3.842   7.240
55141W        W56006   8.500   4.458   5.633
55142W        W56007   7.926   4.414   5.031
55143W        W56008   7.712   7.126   4.707
55144W        W56009   9.044   6.456   6.832
55145W        W56010   8.079   5.941   4.191
55146W        W56011   9.759   5.326   5.412
55147W        W56012  10.039   5.125   5.811
55148W        W56013   9.244   5.799   5.745
55149W        W56014   9.714   6.173   3.877
55150W        W56015   9.386   4.194   5.205
55151W        W56016  10.865   4.472   4.473
55152W        W56017   7.359   7.061   6.504
55153W        W56018   7.776   6.287   6.036
55154W        W56019   7.343   7.133   4.268
55155W        W56020   9.242   4.403   6.074
55156W        W56021   8.605   6.426   3.923
55157W        W56022  10.510   6.808   4.109
55158W        W56023   9.485   5.461   4.123
55159W        W56024   8.328   4.652   4.640
55160W        W56025   9.160   4.562   3.692
55161W        W56026   9.744   6.127   6.870
55162W        W56027  10.097   4.033   4.487
55163W        W56028   7.427   3.881   3.935
55164W        W56029   8.713   6.200   6.225
55165W        W56030   8.512   6.116   5.317
55166W        W56031   8.254   6.068   3.715
55167W        W56032   7.495   6.309   4.483
55168W        W56033   7.999   5.379   6.925
55169W        W56034   8.703   3.939   7.111
55170W        W56035   9.412   4.081   6.467
55171W        W56036   8.607   3.849   4.748
55172W        W56037   9.666   3.926   4.253
55173W        W56038   7.611   3.858   5.830
55174W        W56039   7.659   4.821   5.200
55175W        W56040  10.348   3.929   5.606
55176W        W56041   7.770   4.427   4.420
55177W        W56042  10.341   4.115   6.036
55178W        W56043  10.737   5.318   3.721
55179W        W56044   8.029   4.076   5.540
55180W        W56045   9.143   4.648   6.480
55181W        W56046   7.291   4.338   3.958
55182W        W56047   8.077   5.727   6.519
55183W        W56048   9.435   5.125   5.698
55184W        W56049   9.302   7.204   3.994
55185W        W56050   7.448   5.711   3.691
55186W        W56051   8.183   6.122   6.817
55187W        W56052   7.704   5.289   6.448
55188W        W56053   8.695   5.394   6.242
55189W        W56054  10.463   3.753   6.504
55190W        W56055  10.861   5.363   6.495
55191W        W56056  10.849   5.563   4.181
55192W        W56057   9.712   5.895   4.280
55193W        W56058  10.186   7.195   3.975
55194W        W56059   9.363   5.185   7.117
55195W        W56060   7.693   6.152   7.157
55196W        W56061  10.899   4.074   7.109
55197W        W56062  10.617   5.002   5.730
55198W        W56063   8.925   7.132   7.207
55199W        W56064   8.780   3.761   3.934
55200W        W56065  10.319   6.360   3.877
55201W        W56066   8.088   4.453   6.763
55202W        W56067   8.522   6.447   6.625
55203W        W56068  10.648   4.438   6.423
55204W        W56069   9.859   7.097   4.391
55205W        W56070  10.098   5.716   5.758
55206W        W56071   8.348   4.132   6.425
55207W        W56072   8.817   5.201   7.182
55208W        W56073   8.320   6.380   4.376
55209W        W56074  10.075   5.878   4.640
55210W        W56075   7.843   4.504   6.364
55211W        W56076   9.172   6.566   4.828
55212W        W56077  10.922   5.126   5.009
55213W        W56078   9.144   3.759   6.728
55214W        W56079   9.924   6.464   5.807
55215W        W56080  10.227   6.808   5.515
55216W        W56081   9.446   6.610   3.943
55217W        W56082   7.456   6.502   6.785
55218W        W56083   8.199   4.494   6.023
55219W        W56084   8.169   3.842   5.133
55220W        W56085   9.790   4.684   5.825
55221W        W56086   8.588   5.855   4.025
55222W        W56087  10.586   5.797   5.524
55223W        W56088   7.913   6.555   6.947
55224W        W56089  10.300   7.237   4.744
55225W        W56090   8.399   4.257   5.189
55226W        W56091   8.168   5.750   5.279
55227W        W56092   8.481   7.161   6.029
55228W        W56093  10.548   7.257   7.061
55229W        W56094   9.707   5.445   5.994
55230W        W56095   7.556   5.243   3.909
55231W        W56096  10.690   6.901   4.606
55232W        W56097  10.527   4.225   4.225
55233W        W56098   8.666   3.744   6.628
55234W        W56099  10.372   6.546   5.086
55235W        W56100  10.401   5.102   4.991
55236W        W56101   8.518   4.775   5.207
55237W        W56102   8.763   5.037   6.531
55238W        W56103   9.874   6.190   6.394
55239W        W56104   8.524   4.644   6.506
55240W        W56105   8.503   7.110   5.122
55241W        W56106   7.820   7.069   6.756
55242W        W56107   7.932   6.430   3.886
55243W        W56108  10.449   6.188   4.696
55244W        W56109   8.053   4.980   6.582
55245W        W56110  10.826   4.910   4.063
55246W        W56111   8.571   5.967   4.534
55247W        W56112   9.670   5.349   6.615
55248W        W56113   9.561   4.977   6.159
55249W        W56114   8.121   5.349   6.188
55250W        W56115  10.331   7.237   6.017
55251W        W56116  10.122   3.871   7.011
55252W        W56117   7.786   4.021   6.598
55253W        W56118   8.125   5.044   5.651
55254W        W56119   8.494   4.858   3.773
55255W        W56120   7.297   6.617   6.318
55256W        W56121   8.882   5.326   5.761
55257W        W56122   8.705   4.351   3.866
55258W        W56123   7.840   5.167   4.647
55259W        W56124   7.611   7.019   6.084
55260W        W56125  10.406   5.245   4.192
55261W        W56126  10.501   4.161   6.878
55262W        W56127   9.937   6.370   4.841
55263W        W56128   7.535   5.294   7.018
55264W        W56129  10.501   3.758   4.314
55265W        W56130  10.021   6.233   4.325
55266W        W56131   8.923   5.291   4.410
55267W        W56132  10.110   4.095   3.933
55268W        W56133  10.175   4.702   6.119
55269W        W56134   7.884   5.295   5.326
55270W        W56135   8.178   6.234   4.975
55271W        W56136   9.941   4.854   4.940
55272W        W56137   8.964   4.233   5.636
55273W        W56138  10.926   6.144   6.147
55274W        W56139  10.844   4.131   5.708
55275W        W56140   7.383   6.961   5.084
55276W        W56141   7.892   6.148   4.620
55277W        W56142   7.807   3.765   7.173
55278W        W56143   8.926   6.618   7.275
55279W        W56144  10.681   5.586   5.065
55280W        W56145  10.035   5.763   3.945
55281W        W56146   9.330   7.284   6.157
55282W        W56147  10.187   6.006   7.194
55283W        W56148   9.002   3.716   4.474
55284W        W56149   9.715   4.585   5.333
55285W        W56150   7.401   6.172   5.665
55286W        W56151   8.654   4.134   4.306
55287W        W56152   8.458   5.618   7.155
55288W        W56153   9.452   4.599   4.869
55289W        W56154   9.657   6.009   5.991
55290W        W56155   7.811   6.614   6.426
55291W        W56156   8.402   6.597   7.149
55292W        W56157   8.253   4.394   4.163
55293W        W56158   9.770   4.536   4.488
55294W        W56159   9.728   6.644   6.725
55295W        W56160   8.413   5.236   5.324
55296W        W56161   8.068   6.934   6.189
55297W        W56162  10.813   7.051   3.790
55298W        W56163   7.676   5.723   6.786
55299W        W56164   9.671   5.985   5.474
55300W        W56165   8.107   5.634   4.716
55301W        W56166   8.478   6.641   6.111
55302W        W56167   8.856   4.060   5.152
55303W        W56168   7.467   6.044   4.082
55304W        W56169   8.986   4.995   3.952
55305W        W56170   7.632   5.544   4.971
55306W        W56171   8.922   4.186   6.435
55307W        W56172  10.594   3.895   3.862
55308W        W56173  10.687   5.641   6.961
55309W        W56174   9.341   6.898   7.113
55310W        W56175  10.899   5.992   6.635
55311W        W56176  10.307   6.790   7.246
55312W        W56177   8.046   7.246   5.724
55313W        W56178  10.905   5.868   4.598
55314W        W56179   9.435   5.135   5.111
55315W        W56180   9.202   3.747   5.001
55316W        W56181   8.261   6.731   4.838
55317W        W56182   8.760   4.472   6.063
55318W        W56183   8.460   3.841   5.532
55319W        W56184   7.523   6.663   4.080
55320W        W56185   9.339   6.027   4.798
55321W        W56186   8.214   6.822   6.677
55322W        W56187   7.691   5.645   4.373
55323W        W56188   7.576   4.188   5.372
55324W        W56189   9.124   6.153   5.429
55325W        W56190   7.376   4.007   4.449
55326W        W56191  10.040   5.213   6.376
55327W        W56192   9.917   4.599   3.948
55328W        W56193  10.434   6.271   5.596
55329W        W56194   9.095   6.755   5.427
55330W        W56195   8.507   6.859   4.338
55331W        W56196   9.789   3.762   3.768
55332W        W56197   7.589   7.022   5.509
55333W        W56198   9.786   4.780   7.144
55334W        W56199   7.769   4.310   7.143
55335W        W56200   7.500   4.910   4.476
55336W        W56201   8.191   4.899   4.201
55337W        W56202   9.954   5.226   7.018
55338W        W56203   8.297   5.507   5.727
55339W        W56204   9.771   3.793   4.847
55340W        W56205   8.902   7.224   5.350
55341W        W56206  10.116   6.686   6.287
55342W        W56207   9.700   6.835   5.398
55343W        W56208   9.719   5.815   4.992
55344W        W56209   9.181   4.040   4.063
55345W        W56210  10.862   3.668   4.785
55346W        W56211   8.550   5.303   3.948
55347W        W56212  10.716   4.640   4.938
55348W        W56213   9.408   5.810   3.815
55349W        W56214  10.344   6.010   6.563
55350W        W56215   9.998   6.711   4.030
55351W        W56216   8.613   4.386   6.936
55352W        W56217   8.433   4.970   6.177
55353W        W56218  10.525   6.465   6.454
55354W        W56219   9.625   4.415   6.831
55355W        W56220   7.469   4.886   6.608
55356W        W56221   9.229   5.363   6.334
55357W        W56222   7.586   6.121   4.991
55358W        W56223   7.733   5.418   5.881
55359W        W56224  10.050   5.704   6.231
55360W        W56225   9.822   7.084   7.042
55361W        W56226   9.718   4.823   6.595
55362W        W56227   9.995   6.877   5.000
55363W        W56228   8.997   6.597   6.323
55364W        W56229   8.482   6.952   5.592
55365W        W56230  10.287   6.123   6.011
55366W        W56231   9.337   6.195   7.148
55367W        W56232   7.942   6.148   5.487
55368W        W56233  10.288   5.907   5.132
55369W        W56234   9.929   6.973   5.883
55370W        W56235   7.907   6.702   5.753
55371W        W56236   8.928   4.754   6.963
55372W        W56237   9.379   6.920   4.474
55373W        W56238   8.687   6.175   7.112
55374W        W56239   8.813   6.413   4.489
55375W        W56240   8.034   5.153   3.748
55376W        W56241   7.373   7.239  10.648
55377W        W56242   7.749   6.132  10.171
55378W        W56243  10.454   5.862   7.941
55379W        W56244  10.584   6.947   9.968
55380W        W56245   8.502   6.938   7.494
55381W        W56246   8.585   5.090   8.477
55382W        W56247   8.100   4.938   8.641
55383W        W56248   9.091   5.753   8.075
55384W        W56249   8.766   6.845  10.430
55385W        W56250   7.415   4.406  10.393
55386W        W56251   8.177   3.686  10.195
55387W        W56252   9.871   4.074   9.082
55388W        W56253   9.520   4.945   7.652
55389W        W56254  10.090   4.379  10.743
55390W        W56255   7.456   4.171   9.868
55391W        W56256   7.555   6.790  10.889
55392W        W56257   9.077   6.180   7.621
55393W        W56258   7.509   4.963   9.314
55394W        W56259   8.402   4.854  10.551
55395W        W56260  10.861   4.713   9.050
55396W        W56261  10.625   5.756   9.909
55397W        W56262   8.933   5.089   8.936
55398W        W56263   9.479   6.428   9.305
55399W        W56264   7.979   5.862   9.537
55400W        W56265   7.338   5.390   9.108
55401W        W56266   8.374   5.362  10.300
55402W        W56267  10.645   5.145  10.554
55403W        W56268   8.261   6.589   8.999
55404W        W56269   9.382   6.278  10.133
55405W        W56270   8.602   4.918   9.358
55406W        W56271   8.894   5.702   9.001
55407W        W56272   9.891   6.475  10.849
55408W        W56273   8.970   5.795  10.859
55409W        W56274   8.951   5.511  10.337
55410W        W56275   7.360   4.902  10.859
55411W        W56276  10.192   6.437  10.458
55412W        W56277   7.773   4.019   8.456
55413W        W56278   8.300   6.277   9.455
55414W        W56279  10.763   6.060   8.745
55415W        W56280  10.176   4.460   9.312
55416W        W56281  10.461   4.413   7.407
55417W        W56282  10.926   5.214   9.713
55418W        W56283   8.893   6.921   9.466
55419W        W56284  10.667   6.387   7.904
55420W        W56285   7.796   7.173   7.658
55421W        W56286   8.189   7.219   8.334
55422W        W56287   7.986   3.973   9.760
55423W        W56288  10.609   4.991  10.035
55424W        W56289  10.014   5.413   8.494
55425W        W56290   9.980   5.101   7.521
55426W        W56291   9.188   6.245   9.661
55427W        W56292   8.994   4.575   8.860
55428W        W56293   9.594   6.662   9.854
55429W        W56294  10.465   5.453   8.276
55430W        W56295   9.367   4.111   8.292
55431W        W56296   8.024   6.805   7.975
55432W        W56297   7.395   4.304   8.574
55433W        W56298  10.181   4.911   9.048
55434W        W56299   7.639   6.528   8.963
55435W        W56300   8.980   6.878   7.833
55436W        W56301  10.372   4.904   7.297
55437W        W56302   7.395   6.662   9.461
55438W        W56303   8.186   6.234   9.941
55439W        W56304   8.559   5.594   8.560
55440W        W56305   8.581   3.999   9.653
55441W        W56306  10.810   3.761   8.950
55442W        W56307   8.029   5.633   7.418
55443W        W56308   7.684   4.666   7.597
55444W        W56309   7.746   6.622   8.391
55445W        W56310   8.877   6.105   8.639
55446W        W56311  10.209   6.964  10.353
55447W        W56312   9.135   4.606   8.037
55448W        W56313  10.518   7.004   8.809
55449W        W56314  10.195   4.857  10.407
55450W        W56315  10.908   6.513   8.541
55451W        W56316   9.535   5.805  10.025
55452W        W56317   7.301   5.356   8.231
55453W        W56318   8.412   5.771   9.804
55454W        W56319   9.616   5.035   8.182
55455W        W56320   9.493   5.525   8.286
55456W        W56321   7.836   4.945   9.760
55457W        W56322   7.821   4.821  10.682
55458W        W56323   7.711   3.738   8.841
55459W        W56324   9.479   4.085   9.402
55460W        W56325   9.127   4.270  10.565
55461W        W56326   9.482   4.419   7.743
55462W        W56327  10.665   6.812  10.497
55463W        W56328   9.632   3.893  10.536
55464W        W56329  10.651   6.194  10.658
55465W        W56330  10.081   4.361  10.254
55466W        W56331   9.881   4.299   8.524
55467W        W56332  10.274   5.433  10.928
55468W        W56333   8.014   7.009   8.914
55469W        W56334   8.672   4.726   7.900
55470W        W56335   8.241   4.010  10.564
55471W        W56336  10.293   4.494   8.245
55472W        W56337  10.660   4.976   8.190
55473W        W56338   8.403   7.193  10.661
55474W        W56339   8.329   3.729   7.896
55475W        W56340  10.650   4.263   8.931
55476W        W56341  10.800   6.512   7.376
55477W        W56342   7.707   5.715   9.078
55478W        W56343   9.624   4.302   7.308
55479W        W56344  10.758   6.634   9.028
55480W        W56345  10.797   3.828   9.778
55481W        W56346   9.242   5.040  10.332
55482W        W56347   9.335   6.379   8.035
55483W        W56348   9.735   5.673  10.775
55484W        W56349   9.409   3.650   9.084
55485W        W56350   8.021   4.553   9.147
55486W        W56351   7.575   5.753   9.921
55487W        W56352   9.434   6.946   8.627
55488W        W56353  10.628   4.543   9.499
55489W        W56354   9.265   6.890  10.266
55490W        W56355  10.608   5.949   7.471
55491W        W56356   9.043   5.432   8.532
55492W        W56357  10.895   3.943  10.273
55493W        W56358   9.044   5.778   9.867
55494W        W56359   9.261   4.664   9.312
55495W        W56360  10.113   4.962   8.150
55496W        W56361  10.400   4.695   7.792
55497W        W56362  10.209   6.735   8.181
55498W        W56363  10.043   6.338   8.977
55499W        W56364   9.939   5.417   7.955
55500W        W56365   9.372   5.627   8.941
55501W        W56366  10.253   5.415   9.008
55502W        W56367   7.628   4.430   9.432
55503W        W56368  10.406   5.482  10.259
55504W        W56369  10.757   7.100   9.405
55505W        W56370   8.687   6.544   8.807
55506W        W56371   9.694   7.077  10.131
55507W        W56372   9.688   4.407   9.895
55508W        W56373   8.895   7.115   9.956
55509W        W56374  10.592   4.069   8.422
55510W        W56375  10.383   5.388   9.723
55511W        W56376   7.366   4.709   9.761
55512W        W56377  10.226   4.504   8.779
55513W        W56378  10.637   4.655  10.556
55514W        W56379   9.522   6.354   8.774
55515W        W56380   8.778   6.945   8.387
55516W        W56381   7.893   4.125   7.645
55517W        W56382   8.997   3.779   9.455
55518W        W56383   8.025   6.899   7.303
55519W        W56384   8.399   5.365   8.054
55520W        W56385   9.053   5.994  10.367
55521W        W56386   8.883   4.352   8.357
55522W        W56387  10.239   3.949   8.785
55523W        W56388   9.959   7.231   9.113
55524W        W56389   9.371   6.879   9.453
55525W        W56390   8.767   5.916   9.414
55526W        W56391  10.537   6.639   9.540
55527W        W56392   8.231   4.142   8.309
55528W        W56393   8.753   6.439   9.269
55529W        W56394   8.236   4.370   7.334
55530W        W56395   9.037   4.979   9.728
55531W        W56396   9.885   3.845   9.598
55532W        W56397   7.305   5.688   9.483
55533W        W56398   9.009   5.506   7.641
55534W        W56399   8.277   3.821   7.411
55535W        W56400   9.015   4.902   8.462
55536W        W56401   9.985   3.878  10.161
55537W        W56402   8.573   5.890  10.270
55538W        W56403   9.377   5.672  10.487
55539W        W56404   9.994   5.702  10.380
55540W        W56405   9.278   3.842  10.885
55541W        W56406   8.500   4.458   9.278
55542W        W56407   7.926   4.414   8.676
55543W        W56408   7.712   7.126   8.352
55544W        W56409   9.044   6.456  10.477
55545W        W56410   8.079   5.941   7.836
55546W        W56411   9.759   5.326   9.057
55547W        W56412  10.039   5.125   9.456
55548W        W56413   9.244   5.799   9.390
55549W        W56414   9.714   6.173   7.522
55550W        W56415   9.386   4.194   8.850
55551W        W56416  10.865   4.472   8.118
55552W        W56417   7.359   7.061  10.149
55553W        W56418   7.776   6.287   9.681
55554W        W56419   7.343   7.133   7.913
55555W        W56420   9.242   4.403   9.719
55556W        W56421   8.605   6.426   7.568
55557W        W56422  10.510   6.808   7.754
55558W        W56423   9.485   5.461   7.768
55559W        W56424   8.328   4.652   8.285
55560W        W56425   9.160   4.562   7.337
55561W        W56426   9.744   6.127  10.515
55562W        W56427  10.097   4.033   8.132
55563W        W56428   7.427   3.881   7.580
55564W        W56429   8.713   6.200   9.870
55565W        W56430   8.512   6.116   8.962
55566W        W56431   8.254   6.068   7.360
55567W        W56432   7.495   6.309   8.128
55568W        W56433   7.999   5.379  10.570
55569W        W56434   8.703   3.939  10.756
55570W        W56435   9.412   4.081  10.112
55571W        W56436   8.607   3.849   8.393
55572W        W56437   9.666   3.926   7.898
55573W        W56438   7.611   3.858   9.475
55574W        W56439   7.659   4.821   8.845
55575W        W56440  10.348   3.929   9.251
55576W        W56441   7.770   4.427   8.065
55577W        W56442  10.341   4.115   9.681
55578W        W56443  10.737   5.318   7.366
55579W        W56444   8.029   4.076   9.185
55580W        W56445   9.143   4.648  10.125
55581W        W56446   7.291   4.338   7.603
55582W        W56447   8.077   5.727  10.164
55583W        W56448   9.435   5.125   9.343
55584W        W56449   9.302   7.204   7.639
55585W        W56450   7.448   5.711   7.336
55586W        W56451   8.183   6.122  10.462
55587W        W56452   7.704   5.289  10.093
55588W        W56453   8.695   5.394   9.887
55589W        W56454  10.463   3.753  10.149
55590W        W56455  10.861   5.363  10.140
55591W        W56456  10.849   5.563   7.826
55592W        W56457   9.712   5.895   7.925
55593W        W56458  10.186   7.195   7.620
55594W        W56459   9.363   5.185  10.762
55595W        W56460   7.693   6.152  10.802
55596W        W56461  10.899   4.074  10.754
55597W        W56462  10.617   5.002   9.375
55598W        W56463   8.925   7.132  10.852
55599W        W56464   8.780   3.761   7.579
55600W        W56465  10.319   6.360   7.522
55601W        W56466   8.088   4.453  10.408
55602W        W56467   8.522   6.447  10.270
55603W        W56468  10.648   4.438  10.068
55604W        W56469   9.859   7.097   8.036
55605W        W56470  10.098   5.716   9.403
55606W        W56471   8.348   4.132  10.070
55607W        W56472   8.817   5.201  10.827
55608W        W56473   8.320   6.380   8.021
55609W        W56474  10.075   5.878   8.285
55610W        W56475   7.843   4.504  10.009
55611W        W56476   9.172   6.566   8.473
55612W        W56477  10.922   5.126   8.654
55613W        W56478   9.144   3.759  10.373
55614W        W56479   9.924   6.464   9.452
55615W        W56480  10.227   6.808   9.160
55616W        W56481   9.446   6.610   7.588
55617W        W56482   7.456   6.502  10.430
55618W        W56483   8.199   4.494   9.668
55619W        W56484   8.169   3.842   8.778
55620W        W56485   9.790   4.684   9.470
55621W        W56486   8.588   5.855   7.670
55622W        W56487  10.586   5.797   9.169
55623W        W56488   7.913   6.555  10.592
55624W        W56489  10.300   7.237   8.389
55625W        W56490   8.399   4.257   8.834
55626W        W56491   8.168   5.750   8.924
55627W        W56492   8.481   7.161   9.674
55628W        W56493  10.548   7.257  10.706
55629W        W56494   9.707   5.445   9.639
55630W        W56495   7.556   5.243   7.554
55631W        W56496  10.690   6.901   8.251
55632W        W56497  10.527   4.225   7.870
55633W        W56498   8.666   3.744  10.273
55634W        W56499  10.372   6.546   8.731
55635W        W56500  10.401   5.102   8.636
55636W        W56501   8.518   4.775   8.852
55637W        W56502   8.763   5.037  10.176
55638W        W56503   9.874   6.190  10.039
55639W        W56504   8.524   4.644  10.151
55640W        W56505   8.503   7.110   8.767
55641W        W56506   7.820   7.069  10.401
55642W        W56507   7.932   6.430   7.531
55643W        W56508  10.449   6.188   8.341
55644W        W56509   8.053   4.980  10.227
55645W        W56510  10.826   4.910   7.708
55646W        W56511   8.571   5.967   8.179
55647W        W56512   9.670   5.349  10.260
55648W        W56513   9.561   4.977   9.804
55649W        W56514   8.121   5.349   9.833
55650W        W56515  10.331   7.237   9.662
55651W        W56516  10.122   3.871  10.656
55652W        W56517   7.786   4.021  10.243
55653W        W56518   8.125   5.044   9.296
55654W        W56519   8.494   4.858   7.418
55655W        W56520   7.297   6.617   9.963
55656W        W56521   8.882   5.326   9.406
55657W        W56522   8.705   4.351   7.511
55658W        W56523   7.840   5.167   8.292
55659W        W56524   7.611   7.019   9.729
55660W        W56525  10.406   5.245   7.837
55661W        W56526  10.501   4.161  10.523
55662W        W56527   9.937   6.370   8.486
55663W        W56528   7.535   5.294  10.663
55664W        W56529  10.501   3.758   7.959
55665W        W56530  10.021   6.233   7.970
55666W        W56531   8.923   5.291   8.055
55667W        W56532  10.110   4.095   7.578
55668W        W56533  10.175   4.702   9.764
55669W        W56534   7.884   5.295   8.971
55670W        W56535   8.178   6.234   8.620
55671W        W56536   9.941   4.854   8.585
55672W        W56537   8.964   4.233   9.281
55673W        W56538  10.926   6.144   9.792
55674W        W56539  10.844   4.131   9.353
55675W        W56540   7.383   6.961   8.729
55676W        W56541   7.892   6.148   8.265
55677W        W56542   7.807   3.765  10.818
55678W        W56543   8.926   6.618  10.920
55679W        W56544  10.681   5.586   8.710
55680W        W56545  10.035   5.763   7.590
55681W        W56546   9.330   7.284   9.802
55682W        W56547  10.187   6.006  10.839
55683W        W56548   9.002   3.716   8.119
55684W        W56549   9.715   4.585   8.978
55685W        W56550   7.401   6.172   9.310
55686W        W56551   8.654   4.134   7.951
55687W        W56552   8.458   5.618  10.800
55688W        W56553   9.452   4.599   8.514
55689W        W56554   9.657   6.009   9.636
55690W        W56555   7.811   6.614  10.071
55691W        W56556   8.402   6.597  10.794
55692W        W56557   8.253   4.394   7.808
55693W        W56558   9.770   4.536   8.133
55694W        W56559   9.728   6.644  10.370
55695W        W56560   8.413   5.236   8.969
55696W        W56561   8.068   6.934   9.834
55697W        W56562  10.813   7.051   7.435
55698W        W56563   7.676   5.723  10.431
55699W        W56564   9.671   5.985   9.119
55700W        W56565   8.107   5.634   8.361
55701W        W56566   8.478   6.641   9.756
55702W        W56567   8.856   4.060   8.797
55703W        W56568   7.467   6.044   7.727
55704W        W56569   8.986   4.995   7.597
55705W        W56570   7.632   5.544   8.616
55706W        W56571   8.922   4.186  10.080
55707W        W56572  10.594   3.895   7.507
55708W        W56573  10.687   5.641  10.606
55709W        W56574   9.341   6.898  10.758
55710W        W56575  10.899   5.992  10.280
55711W        W56576  10.307   6.790  10.891
55712W        W56577   8.046   7.246   9.369
55713W        W56578  10.905   5.868   8.243
55714W        W56579   9.435   5.135   8.756
55715W        W56580   9.202   3.747   8.646
55716W        W56581   8.261   6.731   8.483
55717W        W56582   8.760   4.472   9.708
55718W        W56583   8.460   3.841   9.177
55719W        W56584   7.523   6.663   7.725
55720W        W56585   9.339   6.027   8.443
55721W        W56586   8.214   6.822  10.322
55722W        W56587   7.691   5.645   8.018
55723W        W56588   7.576   4.188   9.017
55724W        W56589   9.124   6.153   9.074
55725W        W56590   7.376   4.007   8.094
55726W        W56591  10.040   5.213  10.021
55727W        W56592   9.917   4.599   7.593
55728W        W56593  10.434   6.271   9.241
55729W        W56594   9.095   6.755   9.072
55730W        W56595   8.507   6.859   7.983
55731W        W56596   9.789   3.762   7.413
55732W        W56597   7.589   7.022   9.154
55733W        W56598   9.786   4.780  10.789
55734W        W56599   7.769   4.310  10.788
55735W        W56600   7.500   4.910   8.121
55736W        W56601   8.191   4.899   7.846
55737W        W56602   9.954   5.226  10.663
55738W        W56603   8.297   5.507   9.372
55739W        W56604   9.771   3.793   8.492
55740W        W56605   8.902   7.224   8.995
55741W        W56606  10.116   6.686   9.932
55742W        W56607   9.700   6.835   9.043
55743W        W56608   9.719   5.815   8.637
55744W        W56609   9.181   4.040   7.708
55745W        W56610  10.862   3.668   8.430
55746W        W56611   8.550   5.303   7.593
55747W        W56612  10.716   4.640   8.583
55748W        W56613   9.408   5.810   7.460
55749W        W56614  10.344   6.010  10.208
55750W        W56615   9.998   6.711   7.675
55751W        W56616   8.613   4.386  10.581
55752W        W56617   8.433   4.970   9.822
55753W        W56618  10.525   6.465  10.099
55754W        W56619   9.625   4.415  10.476
55755W        W56620   7.469   4.886  10.253
55756W        W56621   9.229   5.363   9.979
55757W        W56622   7.586   6.121   8.636
55758W        W56623   7.733   5.418   9.526
55759W        W56624  10.050   5.704   9.876
55760W        W56625   9.822   7.084  10.687
55761W        W56626   9.718   4.823  10.240
55762W        W56627   9.995   6.877   8.645
55763W        W56628   8.997   6.597   9.968
55764W        W56629   8.482   6.952   9.237
55765W        W56630  10.287   6.123   9.656
55766W        W56631   9.337   6.195  10.793
55767W        W56632   7.942   6.148   9.132
55768W        W56633  10.288   5.907   8.777
55769W        W56634   9.929   6.973   9.528
55770W        W56635   7.907   6.702   9.398
55771W        W56636   8.928   4.754  10.608
55772W        W56637   9.379   6.920   8.119
55773W        W56638   8.687   6.175  10.757
55774W        W56639   8.813   6.413   8.134
55775W        W56640   8.034   5.153   7.393
55776W        W56641   7.373   7.239  14.292
55777W        W56642   7.749   6.132  13.815
55778W        W56643  10.454   5.862  11.585
55779W        W56644  10.584   6.947  13.612
55780W        W56645   8.502   6.938  11.138
55781W        W56646   8.585   5.090  12.121
55782W        W56647   8.100   4.938  12.285
55783W        W56648   9.091   5.753  11.719
55784W        W56649   8.766   6.845  14.074
55785W        W56650   7.415   4.406  14.037
55786W        W56651   8.177   3.686  13.839
55787W        W56652   9.871   4.074  12.726
55788W        W56653   9.520   4.945  11.296
55789W        W56654  10.090   4.379  14.387
55790W        W56655   7.456   4.171  13.512
55791W        W56656   7.555   6.790  14.533
55792W        W56657   9.077   6.180  11.265
55793W        W56658   7.509   4.963  12.958
55794W        W56659   8.402   4.854  14.195
55795W        W56660  10.861   4.713  12.694
55796W        W56661  10.625   5.756  13.553
55797W        W56662   8.933   5.089  12.580
55798W        W56663   9.479   6.428  12.949
55799W        W56664   7.979   5.862  13.181
55800W        W56665   7.338   5.390  12.752
55801W        W56666   8.374   5.362  13.944
55802W        W56667  10.645   5.145  14.198
55803W        W56668   8.261   6.589  12.643
55804W        W56669   9.382   6.278  13.777
55805W        W56670   8.602   4.918  13.002
55806W        W56671   8.894   5.702  12.645
55807W        W56672   9.891   6.475  14.493
55808W        W56673   8.970   5.795  14.503
55809W        W56674   8.951   5.511  13.981
55810W        W56675   7.360   4.902  14.503
55811W        W56676  10.192   6.437  14.102
55812W        W56677   7.773   4.019  12.100
55813W        W56678   8.300   6.277  13.099
55814W        W56679  10.763   6.060  12.389
55815W        W56680  10.176   4.460  12.956
55816W        W56681  10.461   4.413  11.051
55817W        W56682  10.926   5.214  13.357
55818W        W56683   8.893   6.921  13.110
55819W        W56684  10.667   6.387  11.548
55820W        W56685   7.796   7.173  11.302
55821W        W56686   8.189   7.219  11.978
55822W        W56687   7.986   3.973  13.404
55823W        W56688  10.609   4.991  13.679
55824W        W56689  10.014   5.413  12.138
55825W        W56690   9.980   5.101  11.165
55826W        W56691   9.188   6.245  13.305
55827W        W56692   8.994   4.575  12.504
55828W        W56693   9.594   6.662  13.498
55829W        W56694  10.465   5.453  11.920
55830W        W56695   9.367   4.111  11.936
55831W        W56696   8.024   6.805  11.619
55832W        W56697   7.395   4.304  12.218
55833W        W56698  10.181   4.911  12.692
55834W        W56699   7.639   6.528  12.607
55835W        W56700   8.980   6.878  11.477
55836W        W56701  10.372   4.904  10.941
55837W        W56702   7.395   6.662  13.105
55838W        W56703   8.186   6.234  13.585
55839W        W56704   8.559   5.594  12.204
55840W        W56705   8.581   3.999  13.297
55841W        W56706  10.810   3.761  12.594
55842W        W56707   8.029   5.633  11.062
55843W        W56708   7.684   4.666  11.241
55844W        W56709   7.746   6.622  12.035
55845W        W56710   8.877   6.105  12.283
55846W        W56711  10.209   6.964  13.997
55847W        W56712   9.135   4.606  11.681
55848W        W56713  10.518   7.004  12.453
55849W        W56714  10.195   4.857  14.051
55850W        W56715  10.908   6.513  12.185
55851W        W56716   9.535   5.805  13.669
55852W        W56717   7.301   5.356  11.875
55853W        W56718   8.412   5.771  13.448
55854W        W56719   9.616   5.035  11.826
55855W        W56720   9.493   5.525  11.930
55856W        W56721   7.836   4.945  13.404
55857W        W56722   7.821   4.821  14.326
55858W        W56723   7.711   3.738  12.485
55859W        W56724   9.479   4.085  13.046
55860W        W56725   9.127   4.270  14.209
55861W        W56726   9.482   4.419  11.387
55862W        W56727  10.665   6.812  14.141
55863W        W56728   9.632   3.893  14.180
55864W        W56729  10.651   6.194  14.302
55865W        W56730  10.081   4.361  13.898
55866W        W56731   9.881   4.299  12.168
55867W        W56732  10.274   5.433  14.572
55868W        W56733   8.014   7.009  12.558
55869W        W56734   8.672   4.726  11.544
55870W        W56735   8.241   4.010  14.208
55871W        W56736  10.293   4.494  11.889
55872W        W56737  10.660   4.976  11.834
55873W        W56738   8.403   7.193  14.305
55874W        W56739   8.329   3.729  11.540
55875W        W56740  10.650   4.263  12.575
55876W        W56741  10.800   6.512  11.020
55877W        W56742   7.707   5.715  12.722
55878W        W56743   9.624   4.302  10.952
55879W        W56744  10.758   6.634  12.672
55880W        W56745  10.797   3.828  13.422
55881W        W56746   9.242   5.040  13.976
55882W        W56747   9.335   6.379  11.679
55883W        W56748   9.735   5.673  14.419
55884W        W56749   9.409   3.650  12.728
55885W        W56750   8.021   4.553  12.791
55886W        W56751   7.575   5.753  13.565
55887W        W56752   9.434   6.946  12.271
55888W        W56753  10.628   4.543  13.143
55889W        W56754   9.265   6.890  13.910
55890W        W56755  10.608   5.949  11.115
55891W        W56756   9.043   5.432  12.176
55892W        W56757  10.895   3.943  13.917
55893W        W56758   9.044   5.778  13.511
55894W        W56759   9.261   4.664  12.956
55895W        W56760  10.113   4.962  11.794
55896W        W56761  10.400   4.695  11.436
55897W        W56762  10.209   6.735  11.825
55898W        W56763  10.043   6.338  12.621
55899W        W56764   9.939   5.417  11.599
55900W        W56765   9.372   5.627  12.585
55901W        W56766  10.253   5.415  12.652
55902W        W56767   7.628   4.430  13.076
55903W        W56768  10.406   5.482  13.903
55904W        W56769  10.757   7.100  13.049
55905W        W56770   8.687   6.544  12.451
55906W        W56771   9.694   7.077  13.775
55907W        W56772   9.688   4.407  13.539
55908W        W56773   8.895   7.115  13.600
55909W        W56774  10.592   4.069  12.066
55910W        W56775  10.383   5.388  13.367
55911W        W56776   7.366   4.709  13.405
55912W        W56777  10.226   4.504  12.423
55913W        W56778  10.637   4.655  14.200
55914W        W56779   9.522   6.354  12.418
55915W        W56780   8.778   6.945  12.031
55916W        W56781   7.893   4.125  11.289
55917W        W56782   8.997   3.779  13.099
55918W        W56783   8.025   6.899  10.947
55919W        W56784   8.399   5.365  11.698
55920W        W56785   9.053   5.994  14.011
55921W        W56786   8.883   4.352  12.001
55922W        W56787  10.239   3.949  12.429
55923W        W56788   9.959   7.231  12.757
55924W        W56789   9.371   6.879  13.097
55925W        W56790   8.767   5.916  13.058
55926W        W56791  10.537   6.639  13.184
55927W        W56792   8.231   4.142  11.953
55928W        W56793   8.753   6.439  12.913
55929W        W56794   8.236   4.370  10.978
55930W        W56795   9.037   4.979  13.372
55931W        W56796   9.885   3.845  13.242
55932W        W56797   7.305   5.688  13.127
55933W        W56798   9.009   5.506  11.285
55934W        W56799   8.277   3.821  11.055
55935W        W56800   9.015   4.902  12.106
55936W        W56801   9.985   3.878  13.805
55937W        W56802   8.573   5.890  13.914
55938W        W56803   9.377   5.672  14.131
55939W        W56804   9.994   5.702  14.024
55940W        W56805   9.278   3.842  14.529
55941W        W56806   8.500   4.458  12.922
55942W        W56807   7.926   4.414  12.320
55943W        W56808   7.712   7.126  11.996
55944W        W56809   9.044   6.456  14.121
55945W        W56810   8.079   5.941  11.480
55946W        W56811   9.759   5.326  12.701
55947W        W56812  10.039   5.125  13.100
55948W        W56813   9.244   5.799  13.034
55949W        W56814   9.714   6.173  11.166
55950W        W56815   9.386   4.194  12.494
55951W        W56816  10.865   4.472  11.762
55952W        W56817   7.359   7.061  13.793
55953W        W56818   7.776   6.287  13.325
55954W        W56819   7.343   7.133  11.557
55955W        W56820   9.242   4.403  13.363
55956W        W56821   8.605   6.426  11.212
55957W        W56822  10.510   6.808  11.398
55958W        W56823   9.485   5.461  11.412
55959W        W56824   8.328   4.652  11.929
55960W        W56825   9.160   4.562  10.981
55961W        W56826   9.744   6.127  14.159
55962W        W56827  10.097   4.033  11.776
55963W        W56828   7.427   3.881  11.224
55964W        W56829   8.713   6.200  13.514
55965W        W56830   8.512   6.116  12.606
55966W        W56831   8.254   6.068  11.004
55967W        W56832   7.495   6.309  11.772
55968W        W56833   7.999   5.379  14.214
55969W        W56834   8.703   3.939  14.400
55970W        W56835   9.412   4.081  13.756
55971W        W56836   8.607   3.849  12.037
55972W        W56837   9.666   3.926  11.542
55973W        W56838   7.611   3.858  13.119
55974W        W56839   7.659   4.821  12.489
55975W        W56840  10.348   3.929  12.895
55976W        W56841   7.770   4.427  11.709
55977W        W56842  10.341   4.115  13.325
55978W        W56843  10.737   5.318  11.010
55979W        W56844   8.029   4.076  12.829
55980W        W56845   9.143   4.648  13.769
55981W        W56846   7.291   4.338  11.247
55982W        W56847   8.077   5.727  13.808
55983W        W56848   9.435   5.125  12.987
55984W        W56849   9.302   7.204  11.283
55985W        W56850   7.448   5.711  10.980
55986W        W56851   8.183   6.122  14.106
55987W        W56852   7.704   5.289  13.737
55988W        W56853   8.695   5.394  13.531
55989W        W56854  10.463   3.753  13.793
55990W        W56855  10.861   5.363  13.784
55991W        W56856  10.849   5.563  11.470
55992W        W56857   9.712   5.895  11.569
55993W        W56858  10.186   7.195  11.264
55994W        W56859   9.363   5.185  14.406
55995W        W56860   7.693   6.152  14.446
55996W        W56861  10.899   4.074  14.398
55997W        W56862  10.617   5.002  13.019
55998W        W56863   8.925   7.132  14.496
55999W        W56864   8.780   3.761  11.223
56000W        W56865  10.319   6.360  11.166
56001W        W56866   8.088   4.453  14.052
56002W        W56867   8.522   6.447  13.914
56003W        W56868  10.648   4.438  13.712
56004W        W56869   9.859   7.097  11.680
56005W        W56870  10.098   5.716  13.047
56006W        W56871   8.348   4.132  13.714
56007W        W56872   8.817   5.201  14.471
56008W        W56873   8.320   6.380  11.665
56009W        W56874  10.075   5.878  11.929
56010W        W56875   7.843   4.504  13.653
56011W        W56876   9.172   6.566  12.117
56012W        W56877  10.922   5.126  12.298
56013W        W56878   9.144   3.759  14.017
56014W        W56879   9.924   6.464  13.096
56015W        W56880  10.227   6.808  12.804
56016W        W56881   9.446   6.610  11.232
56017W        W56882   7.456   6.502  14.074
56018W        W56883   8.199   4.494  13.312
56019W        W56884   8.169   3.842  12.422
56020W        W56885   9.790   4.684  13.114
56021W        W56886   8.588   5.855  11.314
56022W        W56887  10.586   5.797  12.813
56023W        W56888   7.913   6.555  14.236
56024W        W56889  10.300   7.237  12.033
56025W        W56890   8.399   4.257  12.478
56026W        W56891   8.168   5.750  12.568
56027W        W56892   8.481   7.161  13.318
56028W        W56893  10.548   7.257  14.350
56029W        W56894   9.707   5.445  13.283
56030W        W56895   7.556   5.243  11.198
56031W        W56896  10.690   6.901  11.895
56032W        W56897  10.527   4.225  11.514
56033W        W56898   8.666   3.744  13.917
56034W        W56899  10.372   6.546  12.375
56035W        W56900  10.401   5.102  12.280
56036W        W56901   8.518   4.775  12.496
56037W        W56902   8.763   5.037  13.820
56038W        W56903   9.874   6.190  13.683
56039W        W56904   8.524   4.644  13.795
56040W        W56905   8.503   7.110  12.411
56041W        W56906   7.820   7.069  14.045
56042W        W56907   7.932   6.430  11.175
56043W        W56908  10.449   6.188  11.985
56044W        W56909   8.053   4.980  13.871
56045W        W56910  10.826   4.910  11.352
56046W        W56911   8.571   5.967  11.823
56047W        W56912   9.670   5.349  13.904
56048W        W56913   9.561   4.977  13.448
56049W        W56914   8.121   5.349  13.477
56050W        W56915  10.331   7.237  13.306
56051W        W56916  10.122   3.871  14.300
56052W        W56917   7.786   4.021  13.887
56053W        W56918   8.125   5.044  12.940
56054W        W56919   8.494   4.858  11.062
56055W        W56920   7.297   6.617  13.607
56056W        W56921   8.882   5.326  13.050
56057W        W56922   8.705   4.351  11.155
56058W        W56923   7.840   5.167  11.936
56059W        W56924   7.611   7.019  13.373
56060W        W56925  10.406   5.245  11.481
56061W        W56926  10.501   4.161  14.167
56062W        W56927   9.937   6.370  12.130
56063W        W56928   7.535   5.294  14.307
56064W        W56929  10.501   3.758  11.603
56065W        W56930  10.021   6.233  11.614
56066W        W56931   8.923   5.291  11.699
56067W        W56932  10.110   4.095  11.222
56068W        W56933  10.175   4.702  13.408
56069W        W56934   7.884   5.295  12.615
56070W        W56935   8.178   6.234  12.264
56071W        W56936   9.941   4.854  12.229
56072W        W56937   8.964   4.233  12.925
56073W        W56938  10.926   6.144  13.436
56074W        W56939  10.844   4.131  12.997
56075W        W56940   7.383   6.961  12.373
56076W        W56941   7.892   6.148  11.909
56077W        W56942   7.807   3.765  14.462
56078W        W56943   8.926   6.618  14.564
56079W        W56944  10.681   5.586  12.354
56080W        W56945  10.035   5.763  11.234
56081W        W56946   9.330   7.284  13.446
56082W        W56947  10.187   6.006  14.483
56083W        W56948   9.002   3.716  11.763
56084W        W56949   9.715   4.585  12.622
56085W        W56950   7.401   6.172  12.954
56086W        W56951   8.654   4.134  11.595
56087W        W56952   8.458   5.618  14.444
56088W        W56953   9.452   4.599  12.158
56089W        W56954   9.657   6.009  13.280
56090W        W56955   7.811   6.614  13.715
56091W        W56956   8.402   6.597  14.438
56092W        W56957   8.253   4.394  11.452
56093W        W56958   9.770   4.536  11.777
56094W        W56959   9.728   6.644  14.014
56095W        W56960   8.413   5.236  12.613
56096W        W56961   8.068   6.934  13.478
56097W        W56962  10.813   7.051  11.079
56098W        W56963   7.676   5.723  14.075
56099W        W56964   9.671   5.985  12.763
56100W        W56965   8.107   5.634  12.005
56101W        W56966   8.478   6.641  13.400
56102W        W56967   8.856   4.060  12.441
56103W        W56968   7.467   6.044  11.371
56104W        W56969   8.986   4.995  11.241
56105W        W56970   7.632   5.544  12.260
56106W        W56971   8.922   4.186  13.724
56107W        W56972  10.594   3.895  11.151
56108W        W56973  10.687   5.641  14.250
56109W        W56974   9.341   6.898  14.402
56110W        W56975  10.899   5.992  13.924
56111W        W56976  10.307   6.790  14.535
56112W        W56977   8.046   7.246  13.013
56113W        W56978  10.905   5.868  11.887
56114W        W56979   9.435   5.135  12.400
56115W        W56980   9.202   3.747  12.290
56116W        W56981   8.261   6.731  12.127
56117W        W56982   8.760   4.472  13.352
56118W        W56983   8.460   3.841  12.821
56119W        W56984   7.523   6.663  11.369
56120W        W56985   9.339   6.027  12.087
56121W        W56986   8.214   6.822  13.966
56122W        W56987   7.691   5.645  11.662
56123W        W56988   7.576   4.188  12.661
56124W        W56989   9.124   6.153  12.718
56125W        W56990   7.376   4.007  11.738
56126W        W56991  10.040   5.213  13.665
56127W        W56992   9.917   4.599  11.237
56128W        W56993  10.434   6.271  12.885
56129W        W56994   9.095   6.755  12.716
56130W        W56995   8.507   6.859  11.627
56131W        W56996   9.789   3.762  11.057
56132W        W56997   7.589   7.022  12.798
56133W        W56998   9.786   4.780  14.433
56134W        W56999   7.769   4.310  14.432
56135W        W57000   7.500   4.910  11.765
56136W        W57001   8.191   4.899  11.490
56137W        W57002   9.954   5.226  14.307
56138W        W57003   8.297   5.507  13.016
56139W        W57004   9.771   3.793  12.136
56140W        W57005   8.902   7.224  12.639
56141W        W57006  10.116   6.686  13.576
56142W        W57007   9.700   6.835  12.687
56143W        W57008   9.719   5.815  12.281
56144W        W57009   9.181   4.040  11.352
56145W        W57010  10.862   3.668  12.074
56146W        W57011   8.550   5.303  11.237
56147W        W57012  10.716   4.640  12.227
56148W        W57013   9.408   5.810  11.104
56149W        W57014  10.344   6.010  13.852
56150W        W57015   9.998   6.711  11.319
56151W        W57016   8.613   4.386  14.225
56152W        W57017   8.433   4.970  13.466
56153W        W57018  10.525   6.465  13.743
56154W        W57019   9.625   4.415  14.120
56155W        W57020   7.469   4.886  13.897
56156W        W57021   9.229   5.363  13.623
56157W        W57022   7.586   6.121  12.280
56158W        W57023   7.733   5.418  13.170
56159W        W57024  10.050   5.704  13.520
56160W        W57025   9.822   7.084  14.331
56161W        W57026   9.718   4.823  13.884
56162W        W57027   9.995   6.877  12.289
56163W        W57028   8.997   6.597  13.612
56164W        W57029   8.482   6.952  12.881
56165W        W57030  10.287   6.123  13.300
56166W        W57031   9.337   6.195  14.437
56167W        W57032   7.942   6.148  12.776
56168W        W57033  10.288   5.907  12.421
56169W        W57034   9.929   6.973  13.172
56170W        W57035   7.907   6.702  13.042
56171W        W57036   8.928   4.754  14.252
56172W        W57037   9.379   6.920  11.763
56173W        W57038   8.687   6.175  14.401
56174W        W57039   8.813   6.413  11.778
56175W        W57040   8.034   5.153  11.037
56176W        W57041   7.373   7.239  17.936
56177W        W57042   7.749   6.132  17.459
56178W        W57043  10.454   5.862  15.229
56179W        W57044  10.584   6.947  17.256
56180W        W57045   8.502   6.938  14.782
56181W        W57046   8.585   5.090  15.765
56182W        W57047   8.100   4.938  15.929
56183W        W57048   9.091   5.753  15.363
56184W        W57049   8.766   6.845  17.718
56185W        W57050   7.415   4.406  17.681
56186W        W57051   8.177   3.686  17.483
56187W        W57052   9.871   4.074  16.370
56188W        W57053   9.520   4.945  14.940
56189W        W57054  10.090   4.379  18.031
56190W        W57055   7.456   4.171  17.156
56191W        W57056   7.555   6.790  18.177
56192W        W57057   9.077   6.180  14.909
56193W        W57058   7.509   4.963  16.602
56194W        W57059   8.402   4.854  17.839
56195W        W57060  10.861   4.713  16.338
56196W        W57061  10.625   5.756  17.197
56197W        W57062   8.933   5.089  16.224
56198W        W57063   9.479   6.428  16.593
56199W        W57064   7.979   5.862  16.825
56200W        W57065   7.338   5.390  16.396
56201W        W57066   8.374   5.362  17.588
56202W        W57067  10.645   5.145  17.842
56203W        W57068   8.261   6.589  16.287
56204W        W57069   9.382   6.278  17.421
56205W        W57070   8.602   4.918  16.646
56206W        W57071   8.894   5.702  16.289
56207W        W57072   9.891   6.475  18.137
56208W        W57073   8.970   5.795  18.147
56209W        W57074   8.951   5.511  17.625
56210W        W57075   7.360   4.902  18.147
56211W        W57076  10.192   6.437  17.746
56212W        W57077   7.773   4.019  15.744
56213W        W57078   8.300   6.277  16.743
56214W        W57079  10.763   6.060  16.033
56215W        W57080  10.176   4.460  16.600
56216W        W57081  10.461   4.413  14.695
56217W        W57082  10.926   5.214  17.001
56218W        W57083   8.893   6.921  16.754
56219W        W57084  10.667   6.387  15.192
56220W        W57085   7.796   7.173  14.946
56221W        W57086   8.189   7.219  15.622
56222W        W57087   7.986   3.973  17.048
56223W        W57088  10.609   4.991  17.323
56224W        W57089  10.014   5.413  15.782
56225W        W57090   9.980   5.101  14.809
56226W        W57091   9.188   6.245  16.949
56227W        W57092   8.994   4.575  16.148
56228W        W57093   9.594   6.662  17.142
56229W        W57094  10.465   5.453  15.564
56230W        W57095   9.367   4.111  15.580
56231W        W57096   8.024   6.805  15.263
56232W        W57097   7.395   4.304  15.862
56233W        W57098  10.181   4.911  16.336
56234W        W57099   7.639   6.528  16.251
56235W        W57100   8.980   6.878  15.121
56236W        W57101  10.372   4.904  14.585
56237W        W57102   7.395   6.662  16.749
56238W        W57103   8.186   6.234  17.229
56239W        W57104   8.559   5.594  15.848
56240W        W57105   8.581   3.999  16.941
56241W        W57106  10.810   3.761  16.238
56242W        W57107   8.029   5.633  14.706
56243W        W57108   7.684   4.666  14.885
56244W        W57109   7.746   6.622  15.679
56245W        W57110   8.877   6.105  15.927
56246W        W57111  10.209   6.964  17.641
56247W        W57112   9.135   4.606  15.325
56248W        W57113  10.518   7.004  16.097
56249W        W57114  10.195   4.857  17.695
56250W        W57115  10.908   6.513  15.829
56251W        W57116   9.535   5.805  17.313
56252W        W57117   7.301   5.356  15.519
56253W        W57118   8.412   5.771  17.092
56254W        W57119   9.616   5.035  15.470
56255W        W57120   9.493   5.525  15.574
56256W        W57121   7.836   4.945  17.048
56257W        W57122   7.821   4.821  17.970
56258W        W57123   7.711   3.738  16.129
56259W        W57124   9.479   4.085  16.690
56260W        W57125   9.127   4.270  17.853
56261W        W57126   9.482   4.419  15.031
56262W        W57127  10.665   6.812  17.785
56263W        W57128   9.632   3.893  17.824
56264W        W57129  10.651   6.194  17.946
56265W        W57130  10.081   4.361  17.542
56266W        W57131   9.881   4.299  15.812
56267W        W57132  10.274   5.433  18.216
56268W        W57133   8.014   7.009  16.202
56269W        W57134   8.672   4.726  15.188
56270W        W57135   8.241   4.010  17.852
56271W        W57136  10.293   4.494  15.533
56272W        W57137  10.660   4.976  15.478
56273W        W57138   8.403   7.193  17.949
56274W        W57139   8.329   3.729  15.184
56275W        W57140  10.650   4.263  16.219
56276W        W57141  10.800   6.512  14.664
56277W        W57142   7.707   5.715  16.366
56278W        W57143   9.624   4.302  14.596
56279W        W57144  10.758   6.634  16.316
56280W        W57145  10.797   3.828  17.066
56281W        W57146   9.242   5.040  17.620
56282W        W57147   9.335   6.379  15.323
56283W        W57148   9.735   5.673  18.063
56284W        W57149   9.409   3.650  16.372
56285W        W57150   8.021   4.553  16.435
56286W        W57151   7.575   5.753  17.209
56287W        W57152   9.434   6.946  15.915
56288W        W57153  10.628   4.543  16.787
56289W        W57154   9.265   6.890  17.554
56290W        W57155  10.608   5.949  14.759
56291W        W57156   9.043   5.432  15.820
56292W        W57157  10.895   3.943  17.561
56293W        W57158   9.044   5.778  17.155
56294W        W57159   9.261   4.664  16.600
56295W        W57160  10.113   4.962  15.438
56296W        W57161  10.400   4.695  15.080
56297W        W57162  10.209   6.735  15.469
56298W        W57163  10.043   6.338  16.265
56299W        W57164   9.939   5.417  15.243
56300W        W57165   9.372   5.627  16.229
56301W        W57166  10.253   5.415  16.296
56302W        W57167   7.628   4.430  16.720
56303W        W57168  10.406   5.482  17.547
56304W        W57169  10.757   7.100  16.693
56305W        W57170   8.687   6.544  16.095
56306W        W57171   9.694   7.077  17.419
56307W        W57172   9.688   4.407  17.183
56308W        W57173   8.895   7.115  17.244
56309W        W57174  10.592   4.069  15.710
56310W        W57175  10.383   5.388  17.011
56311W        W57176   7.366   4.709  17.049
56312W        W57177  10.226   4.504  16.067
56313W        W57178  10.637   4.655  17.844
56314W        W57179   9.522   6.354  16.062
56315W        W57180   8.778   6.945  15.675
56316W        W57181   7.893   4.125  14.933
56317W        W57182   8.997   3.779  16.743
56318W        W57183   8.025   6.899  14.591
56319W        W57184   8.399   5.365  15.342
56320W        W57185   9.053   5.994  17.655
56321W        W57186   8.883   4.352  15.645
56322W        W57187  10.239   3.949  16.073
56323W        W57188   9.959   7.231  16.401
56324W        W57189   9.371   6.879  16.741
56325W        W57190   8.767   5.916  16.702
56326W        W57191  10.537   6.639  16.828
56327W        W57192   8.231   4.142  15.597
56328W        W57193   8.753   6.439  16.557
56329W        W57194   8.236   4.370  14.622
56330W        W57195   9.037   4.979  17.016
56331W        W57196   9.885   3.845  16.886
56332W        W57197   7.305   5.688  16.771
56333W        W57198   9.009   5.506  14.929
56334W        W57199   8.277   3.821  14.699
56335W        W57200   9.015   4.902  15.750
56336W        W57201   9.985   3.878  17.449
56337W        W57202   8.573   5.890  17.558
56338W        W57203   9.377   5.672  17.775
56339W        W57204   9.994   5.702  17.668
56340W        W57205   9.278   3.842  18.173
56341W        W57206   8.500   4.458  16.566
56342W        W57207   7.926   4.414  15.964
56343W        W57208   7.712   7.126  15.640
56344W        W57209   9.044   6.456  17.765
56345W        W57210   8.079   5.941  15.124
56346W        W57211   9.759   5.326  16.345
56347W        W57212  10.039   5.125  16.744
56348W        W57213   9.244   5.799  16.678
56349W        W57214   9.714   6.173  14.810
56350W        W57215   9.386   4.194  16.138
56351W        W57216  10.865   4.472  15.406
56352W        W57217   7.359   7.061  17.437
56353W        W57218   7.776   6.287  16.969
56354W        W57219   7.343   7.133  15.201
56355W        W57220   9.242   4.403  17.007
56356W        W57221   8.605   6.426  14.856
56357W        W57222  10.510   6.808  15.042
56358W        W57223   9.485   5.461  15.056
56359W        W57224   8.328   4.652  15.573
56360W        W57225   9.160   4.562  14.625
56361W        W57226   9.744   6.127  17.803
56362W        W57227  10.097   4.033  15.420
56363W        W57228   7.427   3.881  14.868
56364W        W57229   8.713   6.200  17.158
56365W        W57230   8.512   6.116  16.250
56366W        W57231   8.254   6.068  14.648
56367W        W57232   7.999   5.379  17.858
56368W        W57233   8.703   3.939  18.044
56369W        W57234   9.412   4.081  17.400
56370W        W57235   8.607   3.849  15.681
56371W        W57236   9.666   3.926  15.186
56372W        W57237   7.611   3.858  16.763
56373W        W57238   7.659   4.821  16.133
56374W        W57239  10.348   3.929  16.539
56375W        W57240   7.770   4.427  15.353
56376W        W57241  10.341   4.115  16.969
56377W        W57242  10.737   5.318  14.654
56378W        W57243   8.029   4.076  16.473
56379W        W57244   9.143   4.648  17.413
56380W        W57245   7.291   4.338  14.891
56381W        W57246   8.077   5.727  17.452
56382W        W57247   9.435   5.125  16.631
56383W        W57248   9.302   7.204  14.927
56384W        W57249   7.448   5.711  14.624
56385W        W57250   8.183   6.122  17.750
56386W        W57251   7.704   5.289  17.381
56387W        W57252   8.695   5.394  17.175
56388W        W57253  10.463   3.753  17.437
56389W        W57254  10.861   5.363  17.428
56390W        W57255  10.849   5.563  15.114
56391W        W57256   9.712   5.895  15.213
56392W        W57257  10.186   7.195  14.908
56393W        W57258   9.363   5.185  18.050
56394W        W57259   7.693   6.152  18.090
56395W        W57260  10.899   4.074  18.042
56396W        W57261  10.617   5.002  16.663
56397W        W57262   8.925   7.132  18.140
56398W        W57263   8.780   3.761  14.867
56399W        W57264  10.319   6.360  14.810
56400W        W57265   8.088   4.453  17.696
56401W        W57266   8.522   6.447  17.558
56402W        W57267  10.648   4.438  17.356
56403W        W57268   9.859   7.097  15.324
56404W        W57269  10.098   5.716  16.691
56405W        W57270   8.348   4.132  17.358
56406W        W57271   8.817   5.201  18.115
56407W        W57272   8.320   6.380  15.309
56408W        W57273  10.075   5.878  15.573
56409W        W57274   7.843   4.504  17.297
56410W        W57275   9.172   6.566  15.761
56411W        W57276  10.922   5.126  15.942
56412W        W57277   9.144   3.759  17.661
56413W        W57278   9.924   6.464  16.740
56414W        W57279  10.227   6.808  16.448
56415W        W57280   9.446   6.610  14.876
56416W        W57281   7.456   6.502  17.718
56417W        W57282   8.199   4.494  16.956
56418W        W57283   8.169   3.842  16.066
56419W        W57284   9.790   4.684  16.758
56420W        W57285   8.588   5.855  14.958
56421W        W57286  10.586   5.797  16.457
56422W        W57287   7.913   6.555  17.880
56423W        W57288  10.300   7.237  15.677
56424W        W57289   8.399   4.257  16.122
56425W        W57290   8.168   5.750  16.212
56426W        W57291   8.481   7.161  16.962
56427W        W57292  10.548   7.257  17.994
56428W        W57293   9.707   5.445  16.927
56429W        W57294   7.556   5.243  14.842
56430W        W57295  10.690   6.901  15.539
56431W        W57296  10.527   4.225  15.158
56432W        W57297   8.666   3.744  17.561
56433W        W57298  10.372   6.546  16.019
56434W        W57299  10.401   5.102  15.924
56435W        W57300   8.518   4.775  16.140
56436W        W57301   8.763   5.037  17.464
56437W        W57302   9.874   6.190  17.327
56438W        W57303   8.524   4.644  17.439
56439W        W57304   8.503   7.110  16.055
56440W        W57305   7.820   7.069  17.689
56441W        W57306   7.932   6.430  14.819
56442W        W57307  10.449   6.188  15.629
56443W        W57308   8.053   4.980  17.515
56444W        W57309  10.826   4.910  14.996
56445W        W57310   8.571   5.967  15.467
56446W        W57311   9.670   5.349  17.548
56447W        W57312   9.561   4.977  17.092
56448W        W57313   8.121   5.349  17.121
56449W        W57314  10.331   7.237  16.950
56450W        W57315  10.122   3.871  17.944
56451W        W57316   7.786   4.021  17.531
56452W        W57317   8.125   5.044  16.584
56453W        W57318   8.494   4.858  14.706
56454W        W57319   7.297   6.617  17.251
56455W        W57320   8.882   5.326  16.694
56456W        W57321   8.705   4.351  14.799
56457W        W57322   7.840   5.167  15.580
56458W        W57323   7.611   7.019  17.017
56459W        W57324  10.406   5.245  15.125
56460W        W57325  10.501   4.161  17.811
56461W        W57326   9.937   6.370  15.774
56462W        W57327   7.535   5.294  17.951
56463W        W57328  10.501   3.758  15.247
56464W        W57329  10.021   6.233  15.258
56465W        W57330   8.923   5.291  15.343
56466W        W57331  10.110   4.095  14.866
56467W        W57332  10.175   4.702  17.052
56468W        W57333   7.884   5.295  16.259
56469W        W57334   8.178   6.234  15.908
56470W        W57335   9.941   4.854  15.873
56471W        W57336   8.964   4.233  16.569
56472W        W57337  10.926   6.144  17.080
56473W        W57338  10.844   4.131  16.641
56474W        W57339   7.383   6.961  16.017
56475W        W57340   7.892   6.148  15.553
56476W        W57341   7.807   3.765  18.106
56477W        W57342   8.926   6.618  18.208
56478W        W57343  10.681   5.586  15.998
56479W        W57344  10.035   5.763  14.878
56480W        W57345   9.330   7.284  17.090
56481W        W57346  10.187   6.006  18.127
56482W        W57347   9.002   3.716  15.407
56483W        W57348   9.715   4.585  16.266
56484W        W57349   7.401   6.172  16.598
56485W        W57350   8.654   4.134  15.239
56486W        W57351   8.458   5.618  18.088
56487W        W57352   9.452   4.599  15.802
56488W        W57353   9.657   6.009  16.924
56489W        W57354   7.811   6.614  17.359
56490W        W57355   8.402   6.597  18.082
56491W        W57356   8.253   4.394  15.096
56492W        W57357   9.770   4.536  15.421
56493W        W57358   9.728   6.644  17.658
56494W        W57359   8.413   5.236  16.257
56495W        W57360   8.068   6.934  17.122
56496W        W57361  10.813   7.051  14.723
56497W        W57362   7.676   5.723  17.719
56498W        W57363   9.671   5.985  16.407
56499W        W57364   8.107   5.634  15.649
56500W        W57365   8.478   6.641  17.044
56501W        W57366   8.856   4.060  16.085
56502W        W57367   7.467   6.044  15.015
56503W        W57368   8.986   4.995  14.885
56504W        W57369   7.632   5.544  15.904
56505W        W57370   8.922   4.186  17.368
56506W        W57371  10.594   3.895  14.795
56507W        W57372  10.687   5.641  17.894
56508W        W57373   9.341   6.898  18.046
56509W        W57374  10.899   5.992  17.568
56510W        W57375  10.307   6.790  18.179
56511W        W57376   8.046   7.246  16.657
56512W        W57377  10.905   5.868  15.531
56513W        W57378   9.435   5.135  16.044
56514W        W57379   9.202   3.747  15.934
56515W        W57380   8.261   6.731  15.771
56516W        W57381   8.760   4.472  16.996
56517W        W57382   8.460   3.841  16.465
56518W        W57383   7.523   6.663  15.013
56519W        W57384   9.339   6.027  15.731
56520W        W57385   8.214   6.822  17.610
56521W        W57386   7.691   5.645  15.306
56522W        W57387   7.576   4.188  16.305
56523W        W57388   9.124   6.153  16.362
56524W        W57389   7.376   4.007  15.382
56525W        W57390  10.040   5.213  17.309
56526W        W57391   9.917   4.599  14.881
56527W        W57392  10.434   6.271  16.529
56528W        W57393   9.095   6.755  16.360
56529W        W57394   8.507   6.859  15.271
56530W        W57395   9.789   3.762  14.701
56531W        W57396   7.589   7.022  16.442
56532W        W57397   9.786   4.780  18.077
56533W        W57398   7.769   4.310  18.076
56534W        W57399   7.500   4.910  15.409
56535W        W57400   8.191   4.899  15.134
56536W        W57401   9.954   5.226  17.951
56537W        W57402   8.297   5.507  16.660
56538W        W57403   9.771   3.793  15.780
56539W        W57404   8.902   7.224  16.283
56540W        W57405  10.116   6.686  17.220
56541W        W57406   9.700   6.835  16.331
56542W        W57407   9.719   5.815  15.925
56543W        W57408   9.181   4.040  14.996
56544W        W57409  10.862   3.668  15.718
56545W        W57410   8.550   5.303  14.881
56546W        W57411  10.716   4.640  15.871
56547W        W57412   9.408   5.810  14.748
56548W        W57413  10.344   6.010  17.496
56549W        W57414   9.998   6.711  14.963
56550W        W57415   8.613   4.386  17.869
56551W        W57416   8.433   4.970  17.110
56552W        W57417  10.525   6.465  17.387
56553W        W57418   9.625   4.415  17.764
56554W        W57419   7.469   4.886  17.541
56555W        W57420   9.229   5.363  17.267
56556W        W57421   7.586   6.121  15.924
56557W        W57422   7.733   5.418  16.814
56558W        W57423  10.050   5.704  17.164
56559W        W57424   9.822   7.084  17.975
56560W        W57425   9.718   4.823  17.528
56561W        W57426   9.995   6.877  15.933
56562W        W57427   8.997   6.597  17.256
56563W        W57428   8.482   6.952  16.525
56564W        W57429  10.287   6.123  16.944
56565W        W57430   9.337   6.195  18.081
56566W        W57431   7.942   6.148  16.420
56567W        W57432  10.288   5.907  16.065
56568W        W57433   9.929   6.973  16.816
56569W        W57434   7.907   6.702  16.686
56570W        W57435   8.928   4.754  17.896
56571W        W57436   9.379   6.920  15.407
56572W        W57437   8.687   6.175  18.045
56573W        W57438   8.813   6.413  15.422
56574W        W57439   8.034   5.153  14.681
56575W        W57440   7.373   7.239  21.580
56576W        W57441   7.749   6.132  21.103
56577W        W57442  10.454   5.862  18.873
56578W        W57443  10.584   6.947  20.900
56579W        W57444   8.502   6.938  18.426
56580W        W57445   8.585   5.090  19.409
56581W        W57446   8.100   4.938  19.573
56582W        W57447   9.091   5.753  19.007
56583W        W57448   8.766   6.845  21.362
56584W        W57449   7.415   4.406  21.325
56585W        W57450   8.177   3.686  21.127
56586W        W57451   9.871   4.074  20.014
56587W        W57452   9.520   4.945  18.584
56588W        W57453  10.090   4.379  21.675
56589W        W57454   7.456   4.171  20.800
56590W        W57455   7.555   6.790  21.821
56591W        W57456   9.077   6.180  18.553
56592W        W57457   7.509   4.963  20.246
56593W        W57458   8.402   4.854  21.483
56594W        W57459  10.861   4.713  19.982
56595W        W57460  10.625   5.756  20.841
56596W        W57461   8.933   5.089  19.868
56597W        W57462   9.479   6.428  20.237
56598W        W57463   7.979   5.862  20.469
56599W        W57464   7.338   5.390  20.040
56600W        W57465   8.374   5.362  21.232
56601W        W57466  10.645   5.145  21.486
56602W        W57467   8.261   6.589  19.931
56603W        W57468   9.382   6.278  21.065
56604W        W57469   8.602   4.918  20.290
56605W        W57470   8.894   5.702  19.933
56606W        W57471   9.891   6.475  21.781
56607W        W57472   8.970   5.795  21.791
56608W        W57473   8.951   5.511  21.269
56609W        W57474   7.360   4.902  21.791
56610W        W57475  10.192   6.437  21.390
56611W        W57476   7.773   4.019  19.388
56612W        W57477   8.300   6.277  20.387
56613W        W57478  10.763   6.060  19.677
56614W        W57479  10.176   4.460  20.244
56615W        W57480  10.461   4.413  18.339
56616W        W57481  10.926   5.214  20.645
56617W        W57482   8.893   6.921  20.398
56618W        W57483  10.667   6.387  18.836
56619W        W57484   7.796   7.173  18.590
56620W        W57485   8.189   7.219  19.266
56621W        W57486   7.986   3.973  20.692
56622W        W57487  10.609   4.991  20.967
56623W        W57488  10.014   5.413  19.426
56624W        W57489   9.980   5.101  18.453
56625W        W57490   9.188   6.245  20.593
56626W        W57491   8.994   4.575  19.792
56627W        W57492   9.594   6.662  20.786
56628W        W57493  10.465   5.453  19.208
56629W        W57494   9.367   4.111  19.224
56630W        W57495   8.024   6.805  18.907
56631W        W57496   7.395   4.304  19.506
56632W        W57497  10.181   4.911  19.980
56633W        W57498   7.639   6.528  19.895
56634W        W57499   8.980   6.878  18.765
56635W        W57500  10.372   4.904  18.229
56636W        W57501   7.395   6.662  20.393
56637W        W57502   8.186   6.234  20.873
56638W        W57503   8.559   5.594  19.492
56639W        W57504   8.581   3.999  20.585
56640W        W57505  10.810   3.761  19.882
56641W        W57506   8.029   5.633  18.350
56642W        W57507   7.684   4.666  18.529
56643W        W57508   7.746   6.622  19.323
56644W        W57509   8.877   6.105  19.571
56645W        W57510  10.209   6.964  21.285
56646W        W57511   9.135   4.606  18.969
56647W        W57512  10.518   7.004  19.741
56648W        W57513  10.195   4.857  21.339
56649W        W57514  10.908   6.513  19.473
56650W        W57515   9.535   5.805  20.957
56651W        W57516   7.301   5.356  19.163
56652W        W57517   8.412   5.771  20.736
56653W        W57518   9.616   5.035  19.114
56654W        W57519   9.493   5.525  19.218
56655W        W57520   7.836   4.945  20.692
56656W        W57521   7.821   4.821  21.614
56657W        W57522   7.711   3.738  19.773
56658W        W57523   9.479   4.085  20.334
56659W        W57524   9.127   4.270  21.497
56660W        W57525   9.482   4.419  18.675
56661W        W57526  10.665   6.812  21.429
56662W        W57527   9.632   3.893  21.468
56663W        W57528  10.651   6.194  21.590
56664W        W57529  10.081   4.361  21.186
56665W        W57530   9.881   4.299  19.456
56666W        W57531  10.274   5.433  21.860
56667W        W57532   8.014   7.009  19.846
56668W        W57533   8.672   4.726  18.832
56669W        W57534   8.241   4.010  21.496
56670W        W57535  10.293   4.494  19.177
56671W        W57536  10.660   4.976  19.122
56672W        W57537   8.403   7.193  21.593
56673W        W57538   8.329   3.729  18.828
56674W        W57539  10.650   4.263  19.863
56675W        W57540  10.800   6.512  18.308
56676W        W57541   7.707   5.715  20.010
56677W        W57542   9.624   4.302  18.240
56678W        W57543  10.758   6.634  19.960
56679W        W57544  10.797   3.828  20.710
56680W        W57545   9.242   5.040  21.264
56681W        W57546   9.335   6.379  18.967
56682W        W57547   9.735   5.673  21.707
56683W        W57548   9.409   3.650  20.016
56684W        W57549   8.021   4.553  20.079
56685W        W57550   7.575   5.753  20.853
56686W        W57551   9.434   6.946  19.559
56687W        W57552  10.628   4.543  20.431
56688W        W57553   9.265   6.890  21.198
56689W        W57554  10.608   5.949  18.403
56690W        W57555   9.043   5.432  19.464
56691W        W57556  10.895   3.943  21.205
56692W        W57557   9.044   5.778  20.799
56693W        W57558   9.261   4.664  20.244
56694W        W57559  10.113   4.962  19.082
56695W        W57560  10.400   4.695  18.724
56696W        W57561  10.209   6.735  19.113
56697W        W57562  10.043   6.338  19.909
56698W        W57563   9.939   5.417  18.887
56699W        W57564   9.372   5.627  19.873
56700W        W57565  10.253   5.415  19.940
56701W        W57566   7.628   4.430  20.364
56702W        W57567  10.406   5.482  21.191
56703W        W57568  10.757   7.100  20.337
56704W        W57569   8.687   6.544  19.739
56705W        W57570   9.694   7.077  21.063
56706W        W57571   9.688   4.407  20.827
56707W        W57572   8.895   7.115  20.888
56708W        W57573  10.592   4.069  19.354
56709W        W57574  10.383   5.388  20.655
56710W        W57575   7.366   4.709  20.693
56711W        W57576  10.226   4.504  19.711
56712W        W57577  10.637   4.655  21.488
56713W        W57578   9.522   6.354  19.706
56714W        W57579   8.778   6.945  19.319
56715W        W57580   7.893   4.125  18.577
56716W        W57581   8.997   3.779  20.387
56717W        W57582   8.025   6.899  18.235
56718W        W57583   8.399   5.365  18.986
56719W        W57584   9.053   5.994  21.299
56720W        W57585   8.883   4.352  19.289
56721W        W57586  10.239   3.949  19.717
56722W        W57587   9.959   7.231  20.045
56723W        W57588   9.371   6.879  20.385
56724W        W57589   8.767   5.916  20.346
56725W        W57590  10.537   6.639  20.472
56726W        W57591   8.231   4.142  19.241
56727W        W57592   8.753   6.439  20.201
56728W        W57593   8.236   4.370  18.266
56729W        W57594   9.037   4.979  20.660
56730W        W57595   9.885   3.845  20.530
56731W        W57596   7.305   5.688  20.415
56732W        W57597   9.009   5.506  18.573
56733W        W57598   8.277   3.821  18.343
56734W        W57599   9.015   4.902  19.394
56735W        W57600   9.985   3.878  21.093
56736W        W57601   8.573   5.890  21.202
56737W        W57602   9.377   5.672  21.419
56738W        W57603   9.994   5.702  21.312
56739W        W57604   9.278   3.842  21.817
56740W        W57605   8.500   4.458  20.210
56741W        W57606   7.926   4.414  19.608
56742W        W57607   7.712   7.126  19.284
56743W        W57608   9.044   6.456  21.409
56744W        W57609   8.079   5.941  18.768
56745W        W57610   9.759   5.326  19.989
56746W        W57611  10.039   5.125  20.388
56747W        W57612   9.244   5.799  20.322
56748W        W57613   9.714   6.173  18.454
56749W        W57614   9.386   4.194  19.782
56750W        W57615  10.865   4.472  19.050
56751W        W57616   7.359   7.061  21.081
56752W        W57617   7.776   6.287  20.613
56753W        W57618   7.343   7.133  18.845
56754W        W57619   9.242   4.403  20.651
56755W        W57620   8.605   6.426  18.500
56756W        W57621  10.510   6.808  18.686
56757W        W57622   9.485   5.461  18.700
56758W        W57623   8.328   4.652  19.217
56759W        W57624   9.160   4.562  18.269
56760W        W57625   9.744   6.127  21.447
56761W        W57626  10.097   4.033  19.064
56762W        W57627   7.427   3.881  18.512
56763W        W57628   8.713   6.200  20.802
56764W        W57629   8.512   6.116  19.894
56765W        W57630   8.254   6.068  18.292
56766W        W57631   7.495   6.309  19.060
56767W        W57632   7.999   5.379  21.502
56768W        W57633   8.703   3.939  21.688
56769W        W57634   9.412   4.081  21.044
56770W        W57635   8.607   3.849  19.325
56771W        W57636   9.666   3.926  18.830
56772W        W57637   7.611   3.858  20.407
56773W        W57638   7.659   4.821  19.777
56774W        W57639  10.348   3.929  20.183
56775W        W57640   7.770   4.427  18.997
56776W        W57641  10.341   4.115  20.613
56777W        W57642  10.737   5.318  18.298
56778W        W57643   8.029   4.076  20.117
56779W        W57644   9.143   4.648  21.057
56780W        W57645   7.291   4.338  18.535
56781W        W57646   8.077   5.727  21.096
56782W        W57647   9.435   5.125  20.275
56783W        W57648   9.302   7.204  18.571
56784W        W57649   7.448   5.711  18.268
56785W        W57650   8.183   6.122  21.394
56786W        W57651   7.704   5.289  21.025
56787W        W57652   8.695   5.394  20.819
56788W        W57653  10.463   3.753  21.081
56789W        W57654  10.861   5.363  21.072
56790W        W57655  10.849   5.563  18.758
56791W        W57656   9.712   5.895  18.857
56792W        W57657  10.186   7.195  18.552
56793W        W57658   9.363   5.185  21.694
56794W        W57659   7.693   6.152  21.734
56795W        W57660  10.899   4.074  21.686
56796W        W57661  10.617   5.002  20.307
56797W        W57662   8.925   7.132  21.784
56798W        W57663   8.780   3.761  18.511
56799W        W57664  10.319   6.360  18.454
56800W        W57665   8.088   4.453  21.340
56801W        W57666   8.522   6.447  21.202
56802W        W57667  10.648   4.438  21.000
56803W        W57668   9.859   7.097  18.968
56804W        W57669  10.098   5.716  20.335
56805W        W57670   8.348   4.132  21.002
56806W        W57671   8.817   5.201  21.759
56807W        W57672   8.320   6.380  18.953
56808W        W57673  10.075   5.878  19.217
56809W        W57674   7.843   4.504  20.941
56810W        W57675   9.172   6.566  19.405
56811W        W57676  10.922   5.126  19.586
56812W        W57677   9.144   3.759  21.305
56813W        W57678   9.924   6.464  20.384
56814W        W57679  10.227   6.808  20.092
56815W        W57680   9.446   6.610  18.520
56816W        W57681   7.456   6.502  21.362
56817W        W57682   8.199   4.494  20.600
56818W        W57683   8.169   3.842  19.710
56819W        W57684   9.790   4.684  20.402
56820W        W57685   8.588   5.855  18.602
56821W        W57686  10.586   5.797  20.101
56822W        W57687   7.913   6.555  21.524
56823W        W57688  10.300   7.237  19.321
56824W        W57689   8.399   4.257  19.766
56825W        W57690   8.168   5.750  19.856
56826W        W57691   8.481   7.161  20.606
56827W        W57692  10.548   7.257  21.638
56828W        W57693   9.707   5.445  20.571
56829W        W57694   7.556   5.243  18.486
56830W        W57695  10.690   6.901  19.183
56831W        W57696  10.527   4.225  18.802
56832W        W57697   8.666   3.744  21.205
56833W        W57698  10.372   6.546  19.663
56834W        W57699  10.401   5.102  19.568
56835W        W57700   8.518   4.775  19.784
56836W        W57701   8.763   5.037  21.108
56837W        W57702   9.874   6.190  20.971
56838W        W57703   8.524   4.644  21.083
56839W        W57704   8.503   7.110  19.699
56840W        W57705   7.820   7.069  21.333
56841W        W57706   7.932   6.430  18.463
56842W        W57707  10.449   6.188  19.273
56843W        W57708   8.053   4.980  21.159
56844W        W57709  10.826   4.910  18.640
56845W        W57710   8.571   5.967  19.111
56846W        W57711   9.670   5.349  21.192
56847W        W57712   9.561   4.977  20.736
56848W        W57713   8.121   5.349  20.765
56849W        W57714  10.331   7.237  20.594
56850W        W57715  10.122   3.871  21.588
56851W        W57716   7.786   4.021  21.175
56852W        W57717   8.125   5.044  20.228
56853W        W57718   8.494   4.858  18.350
56854W        W57719   7.297   6.617  20.895
56855W        W57720   8.882   5.326  20.338
56856W        W57721   8.705   4.351  18.443
56857W        W57722   7.840   5.167  19.224
56858W        W57723   7.611   7.019  20.661
56859W        W57724  10.406   5.245  18.769
56860W        W57725  10.501   4.161  21.455
56861W        W57726   9.937   6.370  19.418
56862W        W57727   7.535   5.294  21.595
56863W        W57728  10.501   3.758  18.891
56864W        W57729  10.021   6.233  18.902
56865W        W57730   8.923   5.291  18.987
56866W        W57731  10.110   4.095  18.510
56867W        W57732  10.175   4.702  20.696
56868W        W57733   7.884   5.295  19.903
56869W        W57734   8.178   6.234  19.552
56870W        W57735   9.941   4.854  19.517
56871W        W57736   8.964   4.233  20.213
56872W        W57737  10.926   6.144  20.724
56873W        W57738  10.844   4.131  20.285
56874W        W57739   7.383   6.961  19.661
56875W        W57740   7.892   6.148  19.197
56876W        W57741   7.807   3.765  21.750
56877W        W57742   8.926   6.618  21.852
56878W        W57743  10.681   5.586  19.642
56879W        W57744  10.035   5.763  18.522
56880W        W57745   9.330   7.284  20.734
56881W        W57746  10.187   6.006  21.771
56882W        W57747   9.002   3.716  19.051
56883W        W57748   9.715   4.585  19.910
56884W        W57749   7.401   6.172  20.242
56885W        W57750   8.654   4.134  18.883
56886W        W57751   8.458   5.618  21.732
56887W        W57752   9.452   4.599  19.446
56888W        W57753   9.657   6.009  20.568
56889W        W57754   7.811   6.614  21.003
56890W        W57755   8.402   6.597  21.726
56891W        W57756   8.253   4.394  18.740
56892W        W57757   9.770   4.536  19.065
56893W        W57758   9.728   6.644  21.302
56894W        W57759   8.413   5.236  19.901
56895W        W57760   8.068   6.934  20.766
56896W        W57761  10.813   7.051  18.367
56897W        W57762   7.676   5.723  21.363
56898W        W57763   9.671   5.985  20.051
56899W        W57764   8.107   5.634  19.293
56900W        W57765   8.478   6.641  20.688
56901W        W57766   8.856   4.060  19.729
56902W        W57767   7.467   6.044  18.659
56903W        W57768   8.986   4.995  18.529
56904W        W57769   7.632   5.544  19.548
56905W        W57770   8.922   4.186  21.012
56906W        W57771  10.594   3.895  18.439
56907W        W57772  10.687   5.641  21.538
56908W        W57773   9.341   6.898  21.690
56909W        W57774  10.899   5.992  21.212
56910W        W57775  10.307   6.790  21.823
56911W        W57776   8.046   7.246  20.301
56912W        W57777  10.905   5.868  19.175
56913W        W57778   9.435   5.135  19.688
56914W        W57779   9.202   3.747  19.578
56915W        W57780   8.261   6.731  19.415
56916W        W57781   8.760   4.472  20.640
56917W        W57782   8.460   3.841  20.109
56918W        W57783   7.523   6.663  18.657
56919W        W57784   9.339   6.027  19.375
56920W        W57785   8.214   6.822  21.254
56921W        W57786   7.691   5.645  18.950
56922W        W57787   7.576   4.188  19.949
56923W        W57788   9.124   6.153  20.006
56924W        W57789   7.376   4.007  19.026
56925W        W57790  10.040   5.213  20.953
56926W        W57791   9.917   4.599  18.525
56927W        W57792  10.434   6.271  20.173
56928W        W57793   9.095   6.755  20.004
56929W        W57794   8.507   6.859  18.915
56930W        W57795   9.789   3.762  18.345
56931W        W57796   7.589   7.022  20.086
56932W        W57797   9.786   4.780  21.721
56933W        W57798   7.769   4.310  21.720
56934W        W57799   7.500   4.910  19.053
56935W        W57800   8.191   4.899  18.778
56936W        W57801   9.954   5.226  21.595
56937W        W57802   8.297   5.507  20.304
56938W        W57803   9.771   3.793  19.424
56939W        W57804   8.902   7.224  19.927
56940W        W57805  10.116   6.686  20.864
56941W        W57806   9.700   6.835  19.975
56942W        W57807   9.719   5.815  19.569
56943W        W57808   9.181   4.040  18.640
56944W        W57809  10.862   3.668  19.362
56945W        W57810   8.550   5.303  18.525
56946W        W57811  10.716   4.640  19.515
56947W        W57812   9.408   5.810  18.392
56948W        W57813  10.344   6.010  21.140
56949W        W57814   9.998   6.711  18.607
56950W        W57815   8.613   4.386  21.513
56951W        W57816   8.433   4.970  20.754
56952W        W57817  10.525   6.465  21.031
56953W        W57818   9.625   4.415  21.408
56954W        W57819   7.469   4.886  21.185
56955W        W57820   9.229   5.363  20.911
56956W        W57821   7.586   6.121  19.568
56957W        W57822   7.733   5.418  20.458
56958W        W57823  10.050   5.704  20.808
56959W        W57824   9.822   7.084  21.619
56960W        W57825   9.718   4.823  21.172
56961W        W57826   9.995   6.877  19.577
56962W        W57827   8.997   6.597  20.900
56963W        W57828   8.482   6.952  20.169
56964W        W57829  10.287   6.123  20.588
56965W        W57830   9.337   6.195  21.725
56966W        W57831   7.942   6.148  20.064
56967W        W57832  10.288   5.907  19.709
56968W        W57833   9.929   6.973  20.460
56969W        W57834   7.907   6.702  20.330
56970W        W57835   8.928   4.754  21.540
56971W        W57836   9.379   6.920  19.051
56972W        W57837   8.687   6.175  21.689
56973W        W57838   8.813   6.413  19.066
56974W        W57839   8.034   5.153  18.325
56975W        W57840   7.373   7.239  25.225
56976W        W57841   7.749   6.132  24.748
56977W        W57842  10.454   5.862  22.518
56978W        W57843  10.584   6.947  24.545
56979W        W57844   8.502   6.938  22.071
56980W        W57845   8.585   5.090  23.054
56981W        W57846   8.100   4.938  23.218
56982W        W57847   9.091   5.753  22.652
56983W        W57848   8.766   6.845  25.007
56984W        W57849   7.415   4.406  24.970
56985W        W57850   8.177   3.686  24.772
56986W        W57851   9.871   4.074  23.659
56987W        W57852   9.520   4.945  22.229
56988W        W57853  10.090   4.379  25.320
56989W        W57854   7.456   4.171  24.445
56990W        W57855   7.555   6.790  25.466
56991W        W57856   9.077   6.180  22.198
56992W        W57857   7.509   4.963  23.891
56993W        W57858   8.402   4.854  25.128
56994W        W57859  10.861   4.713  23.627
56995W        W57860  10.625   5.756  24.486
56996W        W57861   8.933   5.089  23.513
56997W        W57862   9.479   6.428  23.882
56998W        W57863   7.979   5.862  24.114
56999W        W57864   7.338   5.390  23.685
57000W        W57865   8.374   5.362  24.877
57001W        W57866  10.645   5.145  25.131
57002W        W57867   8.261   6.589  23.576
57003W        W57868   9.382   6.278  24.710
57004W        W57869   8.602   4.918  23.935
57005W        W57870   8.894   5.702  23.578
57006W        W57871   9.891   6.475  25.426
57007W        W57872   8.970   5.795  25.436
57008W        W57873   8.951   5.511  24.914
57009W        W57874   7.360   4.902  25.436
57010W        W57875  10.192   6.437  25.035
57011W        W57876   7.773   4.019  23.033
57012W        W57877   8.300   6.277  24.032
57013W        W57878  10.763   6.060  23.322
57014W        W57879  10.176   4.460  23.889
57015W        W57880  10.461   4.413  21.984
57016W        W57881  10.926   5.214  24.290
57017W        W57882   8.893   6.921  24.043
57018W        W57883  10.667   6.387  22.481
57019W        W57884   7.796   7.173  22.235
57020W        W57885   8.189   7.219  22.911
57021W        W57886   7.986   3.973  24.337
57022W        W57887  10.609   4.991  24.612
57023W        W57888  10.014   5.413  23.071
57024W        W57889   9.980   5.101  22.098
57025W        W57890   9.188   6.245  24.238
57026W        W57891   8.994   4.575  23.437
57027W        W57892   9.594   6.662  24.431
57028W        W57893  10.465   5.453  22.853
57029W        W57894   9.367   4.111  22.869
57030W        W57895   8.024   6.805  22.552
57031W        W57896   7.395   4.304  23.151
57032W        W57897  10.181   4.911  23.625
57033W        W57898   7.639   6.528  23.540
57034W        W57899   8.980   6.878  22.410
57035W        W57900  10.372   4.904  21.874
57036W        W57901   7.395   6.662  24.038
57037W        W57902   8.186   6.234  24.518
57038W        W57903   8.559   5.594  23.137
57039W        W57904   8.581   3.999  24.230
57040W        W57905  10.810   3.761  23.527
57041W        W57906   8.029   5.633  21.995
57042W        W57907   7.684   4.666  22.174
57043W        W57908   7.746   6.622  22.968
57044W        W57909   8.877   6.105  23.216
57045W        W57910  10.209   6.964  24.930
57046W        W57911   9.135   4.606  22.614
57047W        W57912  10.518   7.004  23.386
57048W        W57913  10.195   4.857  24.984
57049W        W57914  10.908   6.513  23.118
57050W        W57915   9.535   5.805  24.602
57051W        W57916   7.301   5.356  22.808
57052W        W57917   8.412   5.771  24.381
57053W        W57918   9.616   5.035  22.759
57054W        W57919   9.493   5.525  22.863
57055W        W57920   7.836   4.945  24.337
57056W        W57921   7.821   4.821  25.259
57057W        W57922   7.711   3.738  23.418
57058W        W57923   9.479   4.085  23.979
57059W        W57924   9.127   4.270  25.142
57060W        W57925   9.482   4.419  22.320
57061W        W57926  10.665   6.812  25.074
57062W        W57927   9.632   3.893  25.113
57063W        W57928  10.651   6.194  25.235
57064W        W57929  10.081   4.361  24.831
57065W        W57930   9.881   4.299  23.101
57066W        W57931  10.274   5.433  25.505
57067W        W57932   8.014   7.009  23.491
57068W        W57933   8.672   4.726  22.477
57069W        W57934   8.241   4.010  25.141
57070W        W57935  10.293   4.494  22.822
57071W        W57936  10.660   4.976  22.767
57072W        W57937   8.403   7.193  25.238
57073W        W57938   8.329   3.729  22.473
57074W        W57939  10.650   4.263  23.508
57075W        W57940  10.800   6.512  21.953
57076W        W57941   7.707   5.715  23.655
57077W        W57942   9.624   4.302  21.885
57078W        W57943  10.758   6.634  23.605
57079W        W57944  10.797   3.828  24.355
57080W        W57945   9.242   5.040  24.909
57081W        W57946   9.335   6.379  22.612
57082W        W57947   9.735   5.673  25.352
57083W        W57948   9.409   3.650  23.661
57084W        W57949   8.021   4.553  23.724
57085W        W57950   7.575   5.753  24.498
57086W        W57951   9.434   6.946  23.204
57087W        W57952  10.628   4.543  24.076
57088W        W57953   9.265   6.890  24.843
57089W        W57954  10.608   5.949  22.048
57090W        W57955   9.043   5.432  23.109
57091W        W57956  10.895   3.943  24.850
57092W        W57957   9.044   5.778  24.444
57093W        W57958   9.261   4.664  23.889
57094W        W57959  10.113   4.962  22.727
57095W        W57960  10.400   4.695  22.369
57096W        W57961  10.209   6.735  22.758
57097W        W57962  10.043   6.338  23.554
57098W        W57963   9.939   5.417  22.532
57099W        W57964   9.372   5.627  23.518
57100W        W57965  10.253   5.415  23.585
57101W        W57966   7.628   4.430  24.009
57102W        W57967  10.406   5.482  24.836
57103W        W57968  10.757   7.100  23.982
57104W        W57969   8.687   6.544  23.384
57105W        W57970   9.694   7.077  24.708
57106W        W57971   9.688   4.407  24.472
57107W        W57972   8.895   7.115  24.533
57108W        W57973  10.592   4.069  22.999
57109W        W57974  10.383   5.388  24.300
57110W        W57975   7.366   4.709  24.338
57111W        W57976  10.226   4.504  23.356
57112W        W57977  10.637   4.655  25.133
57113W        W57978   9.522   6.354  23.351
57114W        W57979   8.778   6.945  22.964
57115W        W57980   7.893   4.125  22.222
57116W        W57981   8.997   3.779  24.032
57117W        W57982   8.025   6.899  21.880
57118W        W57983   8.399   5.365  22.631
57119W        W57984   9.053   5.994  24.944
57120W        W57985   8.883   4.352  22.934
57121W        W57986  10.239   3.949  23.362
57122W        W57987   9.959   7.231  23.690
57123W        W57988   9.371   6.879  24.030
57124W        W57989   8.767   5.916  23.991
57125W        W57990  10.537   6.639  24.117
57126W        W57991   8.231   4.142  22.886
57127W        W57992   8.753   6.439  23.846
57128W        W57993   8.236   4.370  21.911
57129W        W57994   9.037   4.979  24.305
57130W        W57995   9.885   3.845  24.175
57131W        W57996   7.305   5.688  24.060
57132W        W57997   9.009   5.506  22.218
57133W        W57998   8.277   3.821  21.988
57134W        W57999   9.015   4.902  23.039
57135W        W58000   9.985   3.878  24.738
57136W        W58001   8.573   5.890  24.847
57137W        W58002   9.377   5.672  25.064
57138W        W58003   9.994   5.702  24.957
57139W        W58004   9.278   3.842  25.462
57140W        W58005   8.500   4.458  23.855
57141W        W58006   7.926   4.414  23.253
57142W        W58007   7.712   7.126  22.929
57143W        W58008   9.044   6.456  25.054
57144W        W58009   8.079   5.941  22.413
57145W        W58010   9.759   5.326  23.634
57146W        W58011  10.039   5.125  24.033
57147W        W58012   9.244   5.799  23.967
57148W        W58013   9.714   6.173  22.099
57149W        W58014   9.386   4.194  23.427
57150W        W58015  10.865   4.472  22.695
57151W        W58016   7.359   7.061  24.726
57152W        W58017   7.776   6.287  24.258
57153W        W58018   7.343   7.133  22.490
57154W        W58019   9.242   4.403  24.296
57155W        W58020   8.605   6.426  22.145
57156W        W58021  10.510   6.808  22.331
57157W        W58022   9.485   5.461  22.345
57158W        W58023   8.328   4.652  22.862
57159W        W58024   9.160   4.562  21.914
57160W        W58025   9.744   6.127  25.092
57161W        W58026  10.097   4.033  22.709
57162W        W58027   7.427   3.881  22.157
57163W        W58028   8.713   6.200  24.447
57164W        W58029   8.512   6.116  23.539
57165W        W58030   8.254   6.068  21.937
57166W        W58031   7.495   6.309  22.705
57167W        W58032   7.999   5.379  25.147
57168W        W58033   8.703   3.939  25.333
57169W        W58034   9.412   4.081  24.689
57170W        W58035   8.607   3.849  22.970
57171W        W58036   9.666   3.926  22.475
57172W        W58037   7.611   3.858  24.052
57173W        W58038   7.659   4.821  23.422
57174W        W58039  10.348   3.929  23.828
57175W        W58040   7.770   4.427  22.642
57176W        W58041  10.341   4.115  24.258
57177W        W58042  10.737   5.318  21.943
57178W        W58043   8.029   4.076  23.762
57179W        W58044   9.143   4.648  24.702
57180W        W58045   7.291   4.338  22.180
57181W        W58046   8.077   5.727  24.741
57182W        W58047   9.435   5.125  23.920
57183W        W58048   9.302   7.204  22.216
57184W        W58049   7.448   5.711  21.913
57185W        W58050   8.183   6.122  25.039
57186W        W58051   7.704   5.289  24.670
57187W        W58052   8.695   5.394  24.464
57188W        W58053  10.463   3.753  24.726
57189W        W58054  10.861   5.363  24.717
57190W        W58055  10.849   5.563  22.403
57191W        W58056   9.712   5.895  22.502
57192W        W58057  10.186   7.195  22.197
57193W        W58058   9.363   5.185  25.339
57194W        W58059   7.693   6.152  25.379
57195W        W58060  10.899   4.074  25.331
57196W        W58061  10.617   5.002  23.952
57197W        W58062   8.925   7.132  25.429
57198W        W58063   8.780   3.761  22.156
57199W        W58064  10.319   6.360  22.099
57200W        W58065   8.088   4.453  24.985
57201W        W58066   8.522   6.447  24.847
57202W        W58067  10.648   4.438  24.645
57203W        W58068   9.859   7.097  22.613
57204W        W58069  10.098   5.716  23.980
57205W        W58070   8.348   4.132  24.647
57206W        W58071   8.817   5.201  25.404
57207W        W58072   8.320   6.380  22.598
57208W        W58073  10.075   5.878  22.862
57209W        W58074   7.843   4.504  24.586
57210W        W58075   9.172   6.566  23.050
57211W        W58076  10.922   5.126  23.231
57212W        W58077   9.144   3.759  24.950
57213W        W58078   9.924   6.464  24.029
57214W        W58079  10.227   6.808  23.737
57215W        W58080   9.446   6.610  22.165
57216W        W58081   7.456   6.502  25.007
57217W        W58082   8.199   4.494  24.245
57218W        W58083   8.169   3.842  23.355
57219W        W58084   9.790   4.684  24.047
57220W        W58085   8.588   5.855  22.247
57221W        W58086  10.586   5.797  23.746
57222W        W58087   7.913   6.555  25.169
57223W        W58088  10.300   7.237  22.966
57224W        W58089   8.399   4.257  23.411
57225W        W58090   8.168   5.750  23.501
57226W        W58091   8.481   7.161  24.251
57227W        W58092  10.548   7.257  25.283
57228W        W58093   9.707   5.445  24.216
57229W        W58094   7.556   5.243  22.131
57230W        W58095  10.690   6.901  22.828
57231W        W58096  10.527   4.225  22.447
57232W        W58097   8.666   3.744  24.850
57233W        W58098  10.372   6.546  23.308
57234W        W58099  10.401   5.102  23.213
57235W        W58100   8.518   4.775  23.429
57236W        W58101   8.763   5.037  24.753
57237W        W58102   9.874   6.190  24.616
57238W        W58103   8.524   4.644  24.728
57239W        W58104   8.503   7.110  23.344
57240W        W58105   7.820   7.069  24.978
57241W        W58106   7.932   6.430  22.108
57242W        W58107  10.449   6.188  22.918
57243W        W58108   8.053   4.980  24.804
57244W        W58109  10.826   4.910  22.285
57245W        W58110   8.571   5.967  22.756
57246W        W58111   9.670   5.349  24.837
57247W        W58112   9.561   4.977  24.381
57248W        W58113   8.121   5.349  24.410
57249W        W58114  10.331   7.237  24.239
57250W        W58115  10.122   3.871  25.233
57251W        W58116   7.786   4.021  24.820
57252W        W58117   8.125   5.044  23.873
57253W        W58118   8.494   4.858  21.995
57254W        W58119   7.297   6.617  24.540
57255W        W58120   8.882   5.326  23.983
57256W        W58121   8.705   4.351  22.088
57257W        W58122   7.840   5.167  22.869
57258W        W58123   7.611   7.019  24.306
57259W        W58124  10.406   5.245  22.414
57260W        W58125  10.501   4.161  25.100
57261W        W58126   9.937   6.370  23.063
57262W        W58127   7.535   5.294  25.240
57263W        W58128  10.501   3.758  22.536
57264W        W58129  10.021   6.233  22.547
57265W        W58130   8.923   5.291  22.632
57266W        W58131  10.110   4.095  22.155
57267W        W58132  10.175   4.702  24.341
57268W        W58133   7.884   5.295  23.548
57269W        W58134   8.178   6.234  23.197
57270W        W58135   9.941   4.854  23.162
57271W        W58136   8.964   4.233  23.858
57272W        W58137  10.926   6.144  24.369
57273W        W58138  10.844   4.131  23.930
57274W        W58139   7.383   6.961  23.306
57275W        W58140   7.892   6.148  22.842
57276W        W58141   7.807   3.765  25.395
57277W        W58142   8.926   6.618  25.497
57278W        W58143  10.681   5.586  23.287
57279W        W58144  10.035   5.763  22.167
57280W        W58145   9.330   7.284  24.379
57281W        W58146  10.187   6.006  25.416
57282W        W58147   9.002   3.716  22.696
57283W        W58148   9.715   4.585  23.555
57284W        W58149   7.401   6.172  23.887
57285W        W58150   8.654   4.134  22.528
57286W        W58151   8.458   5.618  25.377
57287W        W58152   9.452   4.599  23.091
57288W        W58153   9.657   6.009  24.213
57289W        W58154   7.811   6.614  24.648
57290W        W58155   8.402   6.597  25.371
57291W        W58156   8.253   4.394  22.385
57292W        W58157   9.770   4.536  22.710
57293W        W58158   9.728   6.644  24.947
57294W        W58159   8.413   5.236  23.546
57295W        W58160   8.068   6.934  24.411
57296W        W58161  10.813   7.051  22.012
57297W        W58162   7.676   5.723  25.008
57298W        W58163   9.671   5.985  23.696
57299W        W58164   8.107   5.634  22.938
57300W        W58165   8.478   6.641  24.333
57301W        W58166   8.856   4.060  23.374
57302W        W58167   7.467   6.044  22.304
57303W        W58168   8.986   4.995  22.174
57304W        W58169   7.632   5.544  23.193
57305W        W58170   8.922   4.186  24.657
57306W        W58171  10.594   3.895  22.084
57307W        W58172  10.687   5.641  25.183
57308W        W58173   9.341   6.898  25.335
57309W        W58174  10.899   5.992  24.857
57310W        W58175  10.307   6.790  25.468
57311W        W58176   8.046   7.246  23.946
57312W        W58177  10.905   5.868  22.820
57313W        W58178   9.435   5.135  23.333
57314W        W58179   9.202   3.747  23.223
57315W        W58180   8.261   6.731  23.060
57316W        W58181   8.760   4.472  24.285
57317W        W58182   8.460   3.841  23.754
57318W        W58183   7.523   6.663  22.302
57319W        W58184   9.339   6.027  23.020
57320W        W58185   8.214   6.822  24.899
57321W        W58186   7.691   5.645  22.595
57322W        W58187   7.576   4.188  23.594
57323W        W58188   9.124   6.153  23.651
57324W        W58189   7.376   4.007  22.671
57325W        W58190  10.040   5.213  24.598
57326W        W58191   9.917   4.599  22.170
57327W        W58192  10.434   6.271  23.818
57328W        W58193   9.095   6.755  23.649
57329W        W58194   8.507   6.859  22.560
57330W        W58195   9.789   3.762  21.990
57331W        W58196   7.589   7.022  23.731
57332W        W58197   9.786   4.780  25.366
57333W        W58198   7.769   4.310  25.365
57334W        W58199   7.500   4.910  22.698
57335W        W58200   8.191   4.899  22.423
57336W        W58201   9.954   5.226  25.240
57337W        W58202   8.297   5.507  23.949
57338W        W58203   9.771   3.793  23.069
57339W        W58204   8.902   7.224  23.572
57340W        W58205  10.116   6.686  24.509
57341W        W58206   9.700   6.835  23.620
57342W        W58207   9.719   5.815  23.214
57343W        W58208   9.181   4.040  22.285
57344W        W58209  10.862   3.668  23.007
57345W        W58210   8.550   5.303  22.170
57346W        W58211  10.716   4.640  23.160
57347W        W58212   9.408   5.810  22.037
57348W        W58213  10.344   6.010  24.785
57349W        W58214   9.998   6.711  22.252
57350W        W58215   8.613   4.386  25.158
57351W        W58216   8.433   4.970  24.399
57352W        W58217  10.525   6.465  24.676
57353W        W58218   9.625   4.415  25.053
57354W        W58219   7.469   4.886  24.830
57355W        W58220   9.229   5.363  24.556
57356W        W58221   7.586   6.121  23.213
57357W        W58222   7.733   5.418  24.103
57358W        W58223  10.050   5.704  24.453
57359W        W58224   9.822   7.084  25.264
57360W        W58225   9.718   4.823  24.817
57361W        W58226   9.995   6.877  23.222
57362W        W58227   8.997   6.597  24.545
57363W        W58228   8.482   6.952  23.814
57364W        W58229  10.287   6.123  24.233
57365W        W58230   9.337   6.195  25.370
57366W        W58231   7.942   6.148  23.709
57367W        W58232  10.288   5.907  23.354
57368W        W58233   9.929   6.973  24.105
57369W        W58234   7.907   6.702  23.975
57370W        W58235   8.928   4.754  25.185
57371W        W58236   9.379   6.920  22.696
57372W        W58237   8.687   6.175  25.334
57373W        W58238   8.813   6.413  22.711
57374W        W58239   8.034   5.153  21.970
57375W        W58240   7.373   7.239  28.869
57376W        W58241   7.749   6.132  28.392
57377W        W58242  10.454   5.862  26.162
57378W        W58243  10.584   6.947  28.189
57379W        W58244   8.502   6.938  25.715
57380W        W58245   8.585   5.090  26.698
57381W        W58246   8.100   4.938  26.862
57382W        W58247   9.091   5.753  26.296
57383W        W58248   8.766   6.845  28.651
57384W        W58249   7.415   4.406  28.614
57385W        W58250   8.177   3.686  28.416
57386W        W58251   9.871   4.074  27.303
57387W        W58252   9.520   4.945  25.873
57388W        W58253  10.090   4.379  28.964
57389W        W58254   7.456   4.171  28.089
57390W        W58255   7.555   6.790  29.110
57391W        W58256   9.077   6.180  25.842
57392W        W58257   7.509   4.963  27.535
57393W        W58258   8.402   4.854  28.772
57394W        W58259  10.861   4.713  27.271
57395W        W58260  10.625   5.756  28.130
57396W        W58261   8.933   5.089  27.157
57397W        W58262   9.479   6.428  27.526
57398W        W58263   7.979   5.862  27.758
57399W        W58264   7.338   5.390  27.329
57400W        W58265   8.374   5.362  28.521
57401W        W58266  10.645   5.145  28.775
57402W        W58267   8.261   6.589  27.220
57403W        W58268   9.382   6.278  28.354
57404W        W58269   8.602   4.918  27.579
57405W        W58270   8.894   5.702  27.222
57406W        W58271   9.891   6.475  29.070
57407W        W58272   8.970   5.795  29.080
57408W        W58273   8.951   5.511  28.558
57409W        W58274   7.360   4.902  29.080
57410W        W58275  10.192   6.437  28.679
57411W        W58276   7.773   4.019  26.677
57412W        W58277   8.300   6.277  27.676
57413W        W58278  10.763   6.060  26.966
57414W        W58279  10.176   4.460  27.533
57415W        W58280  10.461   4.413  25.628
57416W        W58281  10.926   5.214  27.934
57417W        W58282   8.893   6.921  27.687
57418W        W58283  10.667   6.387  26.125
57419W        W58284   7.796   7.173  25.879
57420W        W58285   8.189   7.219  26.555
57421W        W58286   7.986   3.973  27.981
57422W        W58287  10.609   4.991  28.256
57423W        W58288  10.014   5.413  26.715
57424W        W58289   9.980   5.101  25.742
57425W        W58290   9.188   6.245  27.882
57426W        W58291   8.994   4.575  27.081
57427W        W58292   9.594   6.662  28.075
57428W        W58293  10.465   5.453  26.497
57429W        W58294   9.367   4.111  26.513
57430W        W58295   8.024   6.805  26.196
57431W        W58296   7.395   4.304  26.795
57432W        W58297  10.181   4.911  27.269
57433W        W58298   7.639   6.528  27.184
57434W        W58299   8.980   6.878  26.054
57435W        W58300  10.372   4.904  25.518
57436W        W58301   7.395   6.662  27.682
57437W        W58302   8.186   6.234  28.162
57438W        W58303   8.559   5.594  26.781
57439W        W58304   8.581   3.999  27.874
57440W        W58305  10.810   3.761  27.171
57441W        W58306   8.029   5.633  25.639
57442W        W58307   7.684   4.666  25.818
57443W        W58308   7.746   6.622  26.612
57444W        W58309   8.877   6.105  26.860
57445W        W58310  10.209   6.964  28.574
57446W        W58311   9.135   4.606  26.258
57447W        W58312  10.518   7.004  27.030
57448W        W58313  10.195   4.857  28.628
57449W        W58314  10.908   6.513  26.762
57450W        W58315   9.535   5.805  28.246
57451W        W58316   7.301   5.356  26.452
57452W        W58317   8.412   5.771  28.025
57453W        W58318   9.616   5.035  26.403
57454W        W58319   9.493   5.525  26.507
57455W        W58320   7.836   4.945  27.981
57456W        W58321   7.821   4.821  28.903
57457W        W58322   7.711   3.738  27.062
57458W        W58323   9.479   4.085  27.623
57459W        W58324   9.127   4.270  28.786
57460W        W58325   9.482   4.419  25.964
57461W        W58326  10.665   6.812  28.718
57462W        W58327   9.632   3.893  28.757
57463W        W58328  10.651   6.194  28.879
57464W        W58329  10.081   4.361  28.475
57465W        W58330   9.881   4.299  26.745
57466W        W58331  10.274   5.433  29.149
57467W        W58332   8.014   7.009  27.135
57468W        W58333   8.672   4.726  26.121
57469W        W58334   8.241   4.010  28.785
57470W        W58335  10.293   4.494  26.466
57471W        W58336  10.660   4.976  26.411
57472W        W58337   8.403   7.193  28.882
57473W        W58338   8.329   3.729  26.117
57474W        W58339  10.650   4.263  27.152
57475W        W58340  10.800   6.512  25.597
57476W        W58341   7.707   5.715  27.299
57477W        W58342   9.624   4.302  25.529
57478W        W58343  10.758   6.634  27.249
57479W        W58344  10.797   3.828  27.999
57480W        W58345   9.242   5.040  28.553
57481W        W58346   9.335   6.379  26.256
57482W        W58347   9.735   5.673  28.996
57483W        W58348   9.409   3.650  27.305
57484W        W58349   8.021   4.553  27.368
57485W        W58350   7.575   5.753  28.142
57486W        W58351   9.434   6.946  26.848
57487W        W58352  10.628   4.543  27.720
57488W        W58353   9.265   6.890  28.487
57489W        W58354  10.608   5.949  25.692
57490W        W58355   9.043   5.432  26.753
57491W        W58356  10.895   3.943  28.494
57492W        W58357   9.044   5.778  28.088
57493W        W58358   9.261   4.664  27.533
57494W        W58359  10.113   4.962  26.371
57495W        W58360  10.400   4.695  26.013
57496W        W58361  10.209   6.735  26.402
57497W        W58362  10.043   6.338  27.198
57498W        W58363   9.939   5.417  26.176
57499W        W58364   9.372   5.627  27.162
57500W        W58365  10.253   5.415  27.229
57501W        W58366   7.628   4.430  27.653
57502W        W58367  10.406   5.482  28.480
57503W        W58368  10.757   7.100  27.626
57504W        W58369   8.687   6.544  27.028
57505W        W58370   9.694   7.077  28.352
57506W        W58371   9.688   4.407  28.116
57507W        W58372   8.895   7.115  28.177
57508W        W58373  10.592   4.069  26.643
57509W        W58374  10.383   5.388  27.944
57510W        W58375   7.366   4.709  27.982
57511W        W58376  10.226   4.504  27.000
57512W        W58377  10.637   4.655  28.777
57513W        W58378   9.522   6.354  26.995
57514W        W58379   8.778   6.945  26.608
57515W        W58380   7.893   4.125  25.866
57516W        W58381   8.997   3.779  27.676
57517W        W58382   8.025   6.899  25.524
57518W        W58383   8.399   5.365  26.275
57519W        W58384   9.053   5.994  28.588
57520W        W58385   8.883   4.352  26.578
57521W        W58386  10.239   3.949  27.006
57522W        W58387   9.959   7.231  27.334
57523W        W58388   9.371   6.879  27.674
57524W        W58389   8.767   5.916  27.635
57525W        W58390  10.537   6.639  27.761
57526W        W58391   8.231   4.142  26.530
57527W        W58392   8.753   6.439  27.490
57528W        W58393   8.236   4.370  25.555
57529W        W58394   9.037   4.979  27.949
57530W        W58395   9.885   3.845  27.819
57531W        W58396   7.305   5.688  27.704
57532W        W58397   9.009   5.506  25.862
57533W        W58398   8.277   3.821  25.632
57534W        W58399   9.015   4.902  26.683
57535W        W58400   9.985   3.878  28.382
57536W        W58401   8.573   5.890  28.491
57537W        W58402   9.377   5.672  28.708
57538W        W58403   9.994   5.702  28.601
57539W        W58404   9.278   3.842  29.106
57540W        W58405   8.500   4.458  27.499
57541W        W58406   7.926   4.414  26.897
57542W        W58407   7.712   7.126  26.573
57543W        W58408   9.044   6.456  28.698
57544W        W58409   8.079   5.941  26.057
57545W        W58410   9.759   5.326  27.278
57546W        W58411  10.039   5.125  27.677
57547W        W58412   9.244   5.799  27.611
57548W        W58413   9.714   6.173  25.743
57549W        W58414   9.386   4.194  27.071
57550W        W58415  10.865   4.472  26.339
57551W        W58416   7.359   7.061  28.370
57552W        W58417   7.776   6.287  27.902
57553W        W58418   7.343   7.133  26.134
57554W        W58419   9.242   4.403  27.940
57555W        W58420   8.605   6.426  25.789
57556W        W58421  10.510   6.808  25.975
57557W        W58422   9.485   5.461  25.989
57558W        W58423   8.328   4.652  26.506
57559W        W58424   9.160   4.562  25.558
57560W        W58425   9.744   6.127  28.736
57561W        W58426  10.097   4.033  26.353
57562W        W58427   7.427   3.881  25.801
57563W        W58428   8.713   6.200  28.091
57564W        W58429   8.512   6.116  27.183
57565W        W58430   8.254   6.068  25.581
57566W        W58431   7.495   6.309  26.349
57567W        W58432   7.999   5.379  28.791
57568W        W58433   8.703   3.939  28.977
57569W        W58434   9.412   4.081  28.333
57570W        W58435   8.607   3.849  26.614
57571W        W58436   9.666   3.926  26.119
57572W        W58437   7.611   3.858  27.696
57573W        W58438   7.659   4.821  27.066
57574W        W58439  10.348   3.929  27.472
57575W        W58440   7.770   4.427  26.286
57576W        W58441  10.341   4.115  27.902
57577W        W58442  10.737   5.318  25.587
57578W        W58443   8.029   4.076  27.406
57579W        W58444   9.143   4.648  28.346
57580W        W58445   7.291   4.338  25.824
57581W        W58446   8.077   5.727  28.385
57582W        W58447   9.435   5.125  27.564
57583W        W58448   9.302   7.204  25.860
57584W        W58449   7.448   5.711  25.557
57585W        W58450   8.183   6.122  28.683
57586W        W58451   7.704   5.289  28.314
57587W        W58452   8.695   5.394  28.108
57588W        W58453  10.463   3.753  28.370
57589W        W58454  10.861   5.363  28.361
57590W        W58455  10.849   5.563  26.047
57591W        W58456   9.712   5.895  26.146
57592W        W58457  10.186   7.195  25.841
57593W        W58458   9.363   5.185  28.983
57594W        W58459   7.693   6.152  29.023
57595W        W58460  10.899   4.074  28.975
57596W        W58461  10.617   5.002  27.596
57597W        W58462   8.925   7.132  29.073
57598W        W58463   8.780   3.761  25.800
57599W        W58464  10.319   6.360  25.743
57600W        W58465   8.088   4.453  28.629
57601W        W58466   8.522   6.447  28.491
57602W        W58467  10.648   4.438  28.289
57603W        W58468   9.859   7.097  26.257
57604W        W58469  10.098   5.716  27.624
57605W        W58470   8.348   4.132  28.291
57606W        W58471   8.817   5.201  29.048
57607W        W58472   8.320   6.380  26.242
57608W        W58473  10.075   5.878  26.506
57609W        W58474   7.843   4.504  28.230
57610W        W58475   9.172   6.566  26.694
57611W        W58476  10.922   5.126  26.875
57612W        W58477   9.144   3.759  28.594
57613W        W58478   9.924   6.464  27.673
57614W        W58479  10.227   6.808  27.381
57615W        W58480   9.446   6.610  25.809
57616W        W58481   7.456   6.502  28.651
57617W        W58482   8.199   4.494  27.889
57618W        W58483   8.169   3.842  26.999
57619W        W58484   9.790   4.684  27.691
57620W        W58485   8.588   5.855  25.891
57621W        W58486  10.586   5.797  27.390
57622W        W58487   7.913   6.555  28.813
57623W        W58488  10.300   7.237  26.610
57624W        W58489   8.399   4.257  27.055
57625W        W58490   8.168   5.750  27.145
57626W        W58491   8.481   7.161  27.895
57627W        W58492  10.548   7.257  28.927
57628W        W58493   9.707   5.445  27.860
57629W        W58494   7.556   5.243  25.775
57630W        W58495  10.690   6.901  26.472
57631W        W58496  10.527   4.225  26.091
57632W        W58497   8.666   3.744  28.494
57633W        W58498  10.372   6.546  26.952
57634W        W58499  10.401   5.102  26.857
57635W        W58500   8.518   4.775  27.073
57636W        W58501   8.763   5.037  28.397
57637W        W58502   9.874   6.190  28.260
57638W        W58503   8.524   4.644  28.372
57639W        W58504   8.503   7.110  26.988
57640W        W58505   7.820   7.069  28.622
57641W        W58506   7.932   6.430  25.752
57642W        W58507  10.449   6.188  26.562
57643W        W58508   8.053   4.980  28.448
57644W        W58509  10.826   4.910  25.929
57645W        W58510   8.571   5.967  26.400
57646W        W58511   9.670   5.349  28.481
57647W        W58512   9.561   4.977  28.025
57648W        W58513   8.121   5.349  28.054
57649W        W58514  10.331   7.237  27.883
57650W        W58515  10.122   3.871  28.877
57651W        W58516   7.786   4.021  28.464
57652W        W58517   8.125   5.044  27.517
57653W        W58518   8.494   4.858  25.639
57654W        W58519   7.297   6.617  28.184
57655W        W58520   8.882   5.326  27.627
57656W        W58521   8.705   4.351  25.732
57657W        W58522   7.840   5.167  26.513
57658W        W58523   7.611   7.019  27.950
57659W        W58524  10.406   5.245  26.058
57660W        W58525  10.501   4.161  28.744
57661W        W58526   9.937   6.370  26.707
57662W        W58527   7.535   5.294  28.884
57663W        W58528  10.501   3.758  26.180
57664W        W58529  10.021   6.233  26.191
57665W        W58530   8.923   5.291  26.276
57666W        W58531  10.110   4.095  25.799
57667W        W58532  10.175   4.702  27.985
57668W        W58533   7.884   5.295  27.192
57669W        W58534   8.178   6.234  26.841
57670W        W58535   9.941   4.854  26.806
57671W        W58536   8.964   4.233  27.502
57672W        W58537  10.926   6.144  28.013
57673W        W58538  10.844   4.131  27.574
57674W        W58539   7.383   6.961  26.950
57675W        W58540   7.892   6.148  26.486
57676W        W58541   7.807   3.765  29.039
57677W        W58542   8.926   6.618  29.141
57678W        W58543  10.681   5.586  26.931
57679W        W58544  10.035   5.763  25.811
57680W        W58545   9.330   7.284  28.023
57681W        W58546  10.187   6.006  29.060
57682W        W58547   9.002   3.716  26.340
57683W        W58548   9.715   4.585  27.199
57684W        W58549   7.401   6.172  27.531
57685W        W58550   8.654   4.134  26.172
57686W        W58551   8.458   5.618  29.021
57687W        W58552   9.452   4.599  26.735
57688W        W58553   9.657   6.009  27.857
57689W        W58554   7.811   6.614  28.292
57690W        W58555   8.402   6.597  29.015
57691W        W58556   8.253   4.394  26.029
57692W        W58557   9.770   4.536  26.354
57693W        W58558   9.728   6.644  28.591
57694W        W58559   8.413   5.236  27.190
57695W        W58560   8.068   6.934  28.055
57696W        W58561  10.813   7.051  25.656
57697W        W58562   7.676   5.723  28.652
57698W        W58563   9.671   5.985  27.340
57699W        W58564   8.107   5.634  26.582
57700W        W58565   8.478   6.641  27.977
57701W        W58566   8.856   4.060  27.018
57702W        W58567   7.467   6.044  25.948
57703W        W58568   8.986   4.995  25.818
57704W        W58569   7.632   5.544  26.837
57705W        W58570   8.922   4.186  28.301
57706W        W58571  10.594   3.895  25.728
57707W        W58572  10.687   5.641  28.827
57708W        W58573   9.341   6.898  28.979
57709W        W58574  10.899   5.992  28.501
57710W        W58575  10.307   6.790  29.112
57711W        W58576   8.046   7.246  27.590
57712W        W58577  10.905   5.868  26.464
57713W        W58578   9.435   5.135  26.977
57714W        W58579   9.202   3.747  26.867
57715W        W58580   8.261   6.731  26.704
57716W        W58581   8.760   4.472  27.929
57717W        W58582   8.460   3.841  27.398
57718W        W58583   7.523   6.663  25.946
57719W        W58584   9.339   6.027  26.664
57720W        W58585   8.214   6.822  28.543
57721W        W58586   7.691   5.645  26.239
57722W        W58587   7.576   4.188  27.238
57723W        W58588   9.124   6.153  27.295
57724W        W58589   7.376   4.007  26.315
57725W        W58590  10.040   5.213  28.242
57726W        W58591   9.917   4.599  25.814
57727W        W58592  10.434   6.271  27.462
57728W        W58593   9.095   6.755  27.293
57729W        W58594   8.507   6.859  26.204
57730W        W58595   9.789   3.762  25.634
57731W        W58596   7.589   7.022  27.375
57732W        W58597   9.786   4.780  29.010
57733W        W58598   7.769   4.310  29.009
57734W        W58599   7.500   4.910  26.342
57735W        W58600   8.191   4.899  26.067
57736W        W58601   9.954   5.226  28.884
57737W        W58602   8.297   5.507  27.593
57738W        W58603   9.771   3.793  26.713
57739W        W58604   8.902   7.224  27.216
57740W        W58605  10.116   6.686  28.153
57741W        W58606   9.700   6.835  27.264
57742W        W58607   9.719   5.815  26.858
57743W        W58608   9.181   4.040  25.929
57744W        W58609  10.862   3.668  26.651
57745W        W58610   8.550   5.303  25.814
57746W        W58611  10.716   4.640  26.804
57747W        W58612   9.408   5.810  25.681
57748W        W58613  10.344   6.010  28.429
57749W        W58614   9.998   6.711  25.896
57750W        W58615   8.613   4.386  28.802
57751W        W58616   8.433   4.970  28.043
57752W        W58617  10.525   6.465  28.320
57753W        W58618   9.625   4.415  28.697
57754W        W58619   7.469   4.886  28.474
57755W        W58620   9.229   5.363  28.200
57756W        W58621   7.586   6.121  26.857
57757W        W58622   7.733   5.418  27.747
57758W        W58623  10.050   5.704  28.097
57759W        W58624   9.822   7.084  28.908
57760W        W58625   9.718   4.823  28.461
57761W        W58626   9.995   6.877  26.866
57762W        W58627   8.997   6.597  28.189
57763W        W58628   8.482   6.952  27.458
57764W        W58629  10.287   6.123  27.877
57765W        W58630   9.337   6.195  29.014
57766W        W58631   7.942   6.148  27.353
57767W        W58632  10.288   5.907  26.998
57768W        W58633   9.929   6.973  27.749
57769W        W58634   7.907   6.702  27.619
57770W        W58635   8.928   4.754  28.829
57771W        W58636   9.379   6.920  26.340
57772W        W58637   8.687   6.175  28.978
57773W        W58638   8.813   6.413  26.355
57774W        W58639   8.034   5.153  25.614
57775W        W58640   7.373  10.884   3.359
57776W        W58641   7.749   9.777   2.882
57777W        W58642  10.454   9.507   0.652
57778W        W58643  10.584  10.592   2.679
57779W        W58644   8.502  10.583   0.205
57780W        W58645   8.585   8.735   1.188
57781W        W58646   8.100   8.583   1.352
57782W        W58647   9.091   9.398   0.786
57783W        W58648   8.766  10.490   3.141
57784W        W58649   7.415   8.051   3.104
57785W        W58650   8.177   7.331   2.906
57786W        W58651   9.871   7.719   1.793
57787W        W58652   9.520   8.590   0.363
57788W        W58653  10.090   8.024   3.454
57789W        W58654   7.456   7.816   2.579
57790W        W58655   7.555  10.435   3.600
57791W        W58656   9.077   9.825   0.332
57792W        W58657   7.509   8.608   2.025
57793W        W58658   8.402   8.499   3.262
57794W        W58659  10.861   8.358   1.761
57795W        W58660  10.625   9.401   2.620
57796W        W58661   8.933   8.734   1.647
57797W        W58662   9.479  10.073   2.016
57798W        W58663   7.979   9.507   2.248
57799W        W58664   7.338   9.035   1.819
57800W        W58665   8.374   9.007   3.011
57801W        W58666  10.645   8.790   3.265
57802W        W58667   8.261  10.234   1.710
57803W        W58668   9.382   9.923   2.844
57804W        W58669   8.602   8.563   2.069
57805W        W58670   8.894   9.347   1.712
57806W        W58671   9.891  10.120   3.560
57807W        W58672   8.970   9.440   3.570
57808W        W58673   8.951   9.156   3.048
57809W        W58674   7.360   8.547   3.570
57810W        W58675  10.192  10.082   3.169
57811W        W58676   7.773   7.664   1.167
57812W        W58677   8.300   9.922   2.166
57813W        W58678  10.763   9.705   1.456
57814W        W58679  10.176   8.105   2.023
57815W        W58680  10.461   8.058   0.118
57816W        W58681  10.926   8.859   2.424
57817W        W58682   8.893  10.566   2.177
57818W        W58683  10.667  10.032   0.615
57819W        W58684   7.796  10.818   0.369
57820W        W58685   8.189  10.864   1.045
57821W        W58686   7.986   7.618   2.471
57822W        W58687  10.609   8.636   2.746
57823W        W58688  10.014   9.058   1.205
57824W        W58689   9.980   8.746   0.232
57825W        W58690   9.188   9.890   2.372
57826W        W58691   8.994   8.220   1.571
57827W        W58692   9.594  10.307   2.565
57828W        W58693  10.465   9.098   0.987
57829W        W58694   9.367   7.756   1.003
57830W        W58695   8.024  10.450   0.686
57831W        W58696   7.395   7.949   1.285
57832W        W58697  10.181   8.556   1.759
57833W        W58698   7.639  10.173   1.674
57834W        W58699   8.980  10.523   0.544
57835W        W58700  10.372   8.549   0.008
57836W        W58701   7.395  10.307   2.172
57837W        W58702   8.186   9.879   2.652
57838W        W58703   8.559   9.239   1.271
57839W        W58704   8.581   7.644   2.364
57840W        W58705  10.810   7.406   1.661
57841W        W58706   8.029   9.278   0.129
57842W        W58707   7.684   8.311   0.308
57843W        W58708   7.746  10.267   1.102
57844W        W58709   8.877   9.750   1.350
57845W        W58710  10.209  10.609   3.064
57846W        W58711   9.135   8.251   0.748
57847W        W58712  10.518  10.649   1.520
57848W        W58713  10.195   8.502   3.118
57849W        W58714  10.908  10.158   1.252
57850W        W58715   9.535   9.450   2.736
57851W        W58716   7.301   9.001   0.942
57852W        W58717   8.412   9.416   2.515
57853W        W58718   9.616   8.680   0.893
57854W        W58719   9.493   9.170   0.997
57855W        W58720   7.836   8.590   2.471
57856W        W58721   7.821   8.466   3.393
57857W        W58722   7.711   7.383   1.552
57858W        W58723   9.479   7.730   2.113
57859W        W58724   9.127   7.915   3.276
57860W        W58725   9.482   8.064   0.454
57861W        W58726  10.665  10.457   3.208
57862W        W58727   9.632   7.538   3.247
57863W        W58728  10.651   9.839   3.369
57864W        W58729  10.081   8.006   2.965
57865W        W58730   9.881   7.944   1.235
57866W        W58731  10.274   9.078   3.639
57867W        W58732   8.014  10.654   1.625
57868W        W58733   8.672   8.371   0.611
57869W        W58734   8.241   7.655   3.275
57870W        W58735  10.293   8.139   0.956
57871W        W58736  10.660   8.621   0.901
57872W        W58737   8.403  10.838   3.372
57873W        W58738   8.329   7.374   0.607
57874W        W58739  10.650   7.908   1.642
57875W        W58740  10.800  10.157   0.087
57876W        W58741   7.707   9.360   1.789
57877W        W58742   9.624   7.947   0.019
57878W        W58743  10.758  10.279   1.739
57879W        W58744  10.797   7.473   2.489
57880W        W58745   9.242   8.685   3.043
57881W        W58746   9.335  10.024   0.746
57882W        W58747   9.735   9.318   3.486
57883W        W58748   9.409   7.295   1.795
57884W        W58749   8.021   8.198   1.858
57885W        W58750   7.575   9.398   2.632
57886W        W58751   9.434  10.591   1.338
57887W        W58752  10.628   8.188   2.210
57888W        W58753   9.265  10.535   2.977
57889W        W58754  10.608   9.594   0.182
57890W        W58755   9.043   9.077   1.243
57891W        W58756  10.895   7.588   2.984
57892W        W58757   9.044   9.423   2.578
57893W        W58758   9.261   8.309   2.023
57894W        W58759  10.113   8.607   0.861
57895W        W58760  10.400   8.340   0.503
57896W        W58761  10.209  10.380   0.892
57897W        W58762  10.043   9.983   1.688
57898W        W58763   9.939   9.062   0.666
57899W        W58764   9.372   9.272   1.652
57900W        W58765  10.253   9.060   1.719
57901W        W58766   7.628   8.075   2.143
57902W        W58767  10.406   9.127   2.970
57903W        W58768  10.757  10.745   2.116
57904W        W58769   8.687  10.189   1.518
57905W        W58770   9.694  10.722   2.842
57906W        W58771   9.688   8.052   2.606
57907W        W58772   8.895  10.760   2.667
57908W        W58773  10.592   7.714   1.133
57909W        W58774  10.383   9.033   2.434
57910W        W58775   7.366   8.354   2.472
57911W        W58776  10.226   8.149   1.490
57912W        W58777  10.637   8.300   3.267
57913W        W58778   9.522   9.999   1.485
57914W        W58779   8.778  10.590   1.098
57915W        W58780   7.893   7.770   0.356
57916W        W58781   8.997   7.424   2.166
57917W        W58782   8.025  10.544   0.014
57918W        W58783   8.399   9.010   0.765
57919W        W58784   9.053   9.639   3.078
57920W        W58785   8.883   7.997   1.068
57921W        W58786  10.239   7.594   1.496
57922W        W58787   9.959  10.876   1.824
57923W        W58788   9.371  10.524   2.164
57924W        W58789   8.767   9.561   2.125
57925W        W58790  10.537  10.284   2.251
57926W        W58791   8.231   7.787   1.020
57927W        W58792   8.753  10.084   1.980
57928W        W58793   8.236   8.015   0.045
57929W        W58794   9.037   8.624   2.439
57930W        W58795   9.885   7.490   2.309
57931W        W58796   7.305   9.333   2.194
57932W        W58797   9.009   9.151   0.352
57933W        W58798   8.277   7.466   0.122
57934W        W58799   9.015   8.547   1.173
57935W        W58800   9.985   7.523   2.872
57936W        W58801   8.573   9.535   2.981
57937W        W58802   9.377   9.317   3.198
57938W        W58803   9.994   9.347   3.091
57939W        W58804   9.278   7.487   3.596
57940W        W58805   8.500   8.103   1.989
57941W        W58806   7.926   8.059   1.387
57942W        W58807   7.712  10.771   1.063
57943W        W58808   9.044  10.101   3.188
57944W        W58809   8.079   9.586   0.547
57945W        W58810   9.759   8.971   1.768
57946W        W58811  10.039   8.770   2.167
57947W        W58812   9.244   9.444   2.101
57948W        W58813   9.714   9.818   0.233
57949W        W58814   9.386   7.839   1.561
57950W        W58815  10.865   8.117   0.829
57951W        W58816   7.359  10.706   2.860
57952W        W58817   7.776   9.932   2.392
57953W        W58818   7.343  10.778   0.624
57954W        W58819   9.242   8.048   2.430
57955W        W58820   8.605  10.071   0.279
57956W        W58821  10.510  10.453   0.465
57957W        W58822   9.485   9.106   0.479
57958W        W58823   8.328   8.297   0.996
57959W        W58824   9.160   8.207   0.048
57960W        W58825   9.744   9.772   3.226
57961W        W58826  10.097   7.678   0.843
57962W        W58827   7.427   7.526   0.291
57963W        W58828   8.713   9.845   2.581
57964W        W58829   8.512   9.761   1.673
57965W        W58830   8.254   9.713   0.071
57966W        W58831   7.495   9.954   0.839
57967W        W58832   7.999   9.024   3.281
57968W        W58833   8.703   7.584   3.467
57969W        W58834   9.412   7.726   2.823
57970W        W58835   8.607   7.494   1.104
57971W        W58836   9.666   7.571   0.609
57972W        W58837   7.611   7.503   2.186
57973W        W58838   7.659   8.466   1.556
57974W        W58839  10.348   7.574   1.962
57975W        W58840   7.770   8.072   0.776
57976W        W58841  10.341   7.760   2.392
57977W        W58842  10.737   8.963   0.077
57978W        W58843   8.029   7.721   1.896
57979W        W58844   9.143   8.293   2.836
57980W        W58845   7.291   7.983   0.314
57981W        W58846   8.077   9.372   2.875
57982W        W58847   9.435   8.770   2.054
57983W        W58848   9.302  10.849   0.350
57984W        W58849   7.448   9.356   0.047
57985W        W58850   8.183   9.767   3.173
57986W        W58851   7.704   8.934   2.804
57987W        W58852   8.695   9.039   2.598
57988W        W58853  10.463   7.398   2.860
57989W        W58854  10.861   9.008   2.851
57990W        W58855  10.849   9.208   0.537
57991W        W58856   9.712   9.540   0.636
57992W        W58857  10.186  10.840   0.331
57993W        W58858   9.363   8.830   3.473
57994W        W58859   7.693   9.797   3.513
57995W        W58860  10.899   7.719   3.465
57996W        W58861  10.617   8.647   2.086
57997W        W58862   8.925  10.777   3.563
57998W        W58863   8.780   7.406   0.290
57999W        W58864  10.319  10.005   0.233
58000W        W58865   8.088   8.098   3.119
58001W        W58866   8.522  10.092   2.981
58002W        W58867  10.648   8.083   2.779
58003W        W58868   9.859  10.742   0.747
58004W        W58869  10.098   9.361   2.114
58005W        W58870   8.348   7.777   2.781
58006W        W58871   8.817   8.846   3.538
58007W        W58872   8.320  10.025   0.732
58008W        W58873  10.075   9.523   0.996
58009W        W58874   7.843   8.149   2.720
58010W        W58875   9.172  10.211   1.184
58011W        W58876  10.922   8.771   1.365
58012W        W58877   9.144   7.404   3.084
58013W        W58878   9.924  10.109   2.163
58014W        W58879  10.227  10.453   1.871
58015W        W58880   9.446  10.255   0.299
58016W        W58881   7.456  10.147   3.141
58017W        W58882   8.199   8.139   2.379
58018W        W58883   8.169   7.487   1.489
58019W        W58884   9.790   8.329   2.181
58020W        W58885   8.588   9.500   0.381
58021W        W58886  10.586   9.442   1.880
58022W        W58887   7.913  10.200   3.303
58023W        W58888  10.300  10.882   1.100
58024W        W58889   8.399   7.902   1.545
58025W        W58890   8.168   9.395   1.635
58026W        W58891   8.481  10.806   2.385
58027W        W58892  10.548  10.902   3.417
58028W        W58893   9.707   9.090   2.350
58029W        W58894   7.556   8.888   0.265
58030W        W58895  10.690  10.546   0.962
58031W        W58896  10.527   7.870   0.581
58032W        W58897   8.666   7.389   2.984
58033W        W58898  10.372  10.191   1.442
58034W        W58899  10.401   8.747   1.347
58035W        W58900   8.518   8.420   1.563
58036W        W58901   8.763   8.682   2.887
58037W        W58902   9.874   9.835   2.750
58038W        W58903   8.524   8.289   2.862
58039W        W58904   8.503  10.755   1.478
58040W        W58905   7.820  10.714   3.112
58041W        W58906   7.932  10.075   0.242
58042W        W58907  10.449   9.833   1.052
58043W        W58908   8.053   8.625   2.938
58044W        W58909  10.826   8.555   0.419
58045W        W58910   8.571   9.612   0.890
58046W        W58911   9.670   8.994   2.971
58047W        W58912   9.561   8.622   2.515
58048W        W58913   8.121   8.994   2.544
58049W        W58914  10.331  10.882   2.373
58050W        W58915  10.122   7.516   3.367
58051W        W58916   7.786   7.666   2.954
58052W        W58917   8.125   8.689   2.007
58053W        W58918   8.494   8.503   0.129
58054W        W58919   7.297  10.262   2.674
58055W        W58920   8.882   8.971   2.117
58056W        W58921   8.705   7.996   0.222
58057W        W58922   7.840   8.812   1.003
58058W        W58923   7.611  10.664   2.440
58059W        W58924  10.406   8.890   0.548
58060W        W58925  10.501   7.806   3.234
58061W        W58926   9.937  10.015   1.197
58062W        W58927   7.535   8.939   3.374
58063W        W58928  10.501   7.403   0.670
58064W        W58929  10.021   9.878   0.681
58065W        W58930   8.923   8.936   0.766
58066W        W58931  10.110   7.740   0.289
58067W        W58932  10.175   8.347   2.475
58068W        W58933   7.884   8.940   1.682
58069W        W58934   8.178   9.879   1.331
58070W        W58935   9.941   8.499   1.296
58071W        W58936   8.964   7.878   1.992
58072W        W58937  10.926   9.789   2.503
58073W        W58938  10.844   7.776   2.064
58074W        W58939   7.383  10.606   1.440
58075W        W58940   7.892   9.793   0.976
58076W        W58941   7.807   7.410   3.529
58077W        W58942   8.926  10.263   3.631
58078W        W58943  10.681   9.231   1.421
58079W        W58944  10.035   9.408   0.301
58080W        W58945   9.330  10.929   2.513
58081W        W58946  10.187   9.651   3.550
58082W        W58947   9.002   7.361   0.830
58083W        W58948   9.715   8.230   1.689
58084W        W58949   7.401   9.817   2.021
58085W        W58950   8.654   7.779   0.662
58086W        W58951   8.458   9.263   3.511
58087W        W58952   9.452   8.244   1.225
58088W        W58953   9.657   9.654   2.347
58089W        W58954   7.811  10.259   2.782
58090W        W58955   8.402  10.242   3.505
58091W        W58956   8.253   8.039   0.519
58092W        W58957   9.770   8.181   0.844
58093W        W58958   9.728  10.289   3.081
58094W        W58959   8.413   8.881   1.680
58095W        W58960   8.068  10.579   2.545
58096W        W58961  10.813  10.696   0.146
58097W        W58962   7.676   9.368   3.142
58098W        W58963   9.671   9.630   1.830
58099W        W58964   8.107   9.279   1.072
58100W        W58965   8.478  10.286   2.467
58101W        W58966   8.856   7.705   1.508
58102W        W58967   7.467   9.689   0.438
58103W        W58968   8.986   8.640   0.308
58104W        W58969   7.632   9.189   1.327
58105W        W58970   8.922   7.831   2.791
58106W        W58971  10.594   7.540   0.218
58107W        W58972  10.687   9.286   3.317
58108W        W58973   9.341  10.543   3.469
58109W        W58974  10.899   9.637   2.991
58110W        W58975  10.307  10.435   3.602
58111W        W58976   8.046  10.891   2.080
58112W        W58977  10.905   9.513   0.954
58113W        W58978   9.435   8.780   1.467
58114W        W58979   9.202   7.392   1.357
58115W        W58980   8.261  10.376   1.194
58116W        W58981   8.760   8.117   2.419
58117W        W58982   8.460   7.486   1.888
58118W        W58983   7.523  10.308   0.436
58119W        W58984   9.339   9.672   1.154
58120W        W58985   8.214  10.467   3.033
58121W        W58986   7.691   9.290   0.729
58122W        W58987   7.576   7.833   1.728
58123W        W58988   9.124   9.798   1.785
58124W        W58989   7.376   7.652   0.805
58125W        W58990  10.040   8.858   2.732
58126W        W58991   9.917   8.244   0.304
58127W        W58992  10.434   9.916   1.952
58128W        W58993   9.095  10.400   1.783
58129W        W58994   8.507  10.504   0.694
58130W        W58995   9.789   7.407   0.124
58131W        W58996   7.589  10.667   1.865
58132W        W58997   9.786   8.425   3.500
58133W        W58998   7.769   7.955   3.499
58134W        W58999   7.500   8.555   0.832
58135W        W59000   8.191   8.544   0.557
58136W        W59001   9.954   8.871   3.374
58137W        W59002   8.297   9.152   2.083
58138W        W59003   9.771   7.438   1.203
58139W        W59004   8.902  10.869   1.706
58140W        W59005  10.116  10.331   2.643
58141W        W59006   9.700  10.480   1.754
58142W        W59007   9.719   9.460   1.348
58143W        W59008   9.181   7.685   0.419
58144W        W59009  10.862   7.313   1.141
58145W        W59010   8.550   8.948   0.304
58146W        W59011  10.716   8.285   1.294
58147W        W59012   9.408   9.455   0.171
58148W        W59013  10.344   9.655   2.919
58149W        W59014   9.998  10.356   0.386
58150W        W59015   8.613   8.031   3.292
58151W        W59016   8.433   8.615   2.533
58152W        W59017  10.525  10.110   2.810
58153W        W59018   9.625   8.060   3.187
58154W        W59019   7.469   8.531   2.964
58155W        W59020   9.229   9.008   2.690
58156W        W59021   7.586   9.766   1.347
58157W        W59022   7.733   9.063   2.237
58158W        W59023  10.050   9.349   2.587
58159W        W59024   9.822  10.729   3.398
58160W        W59025   9.718   8.468   2.951
58161W        W59026   9.995  10.522   1.356
58162W        W59027   8.997  10.242   2.679
58163W        W59028   8.482  10.597   1.948
58164W        W59029  10.287   9.768   2.367
58165W        W59030   9.337   9.840   3.504
58166W        W59031   7.942   9.793   1.843
58167W        W59032  10.288   9.552   1.488
58168W        W59033   9.929  10.618   2.239
58169W        W59034   7.907  10.347   2.109
58170W        W59035   8.928   8.399   3.319
58171W        W59036   9.379  10.565   0.830
58172W        W59037   8.687   9.820   3.468
58173W        W59038   8.813  10.058   0.845
58174W        W59039   8.034   8.798   0.104
58175W        W59040   7.373  10.884   7.003
58176W        W59041   7.749   9.777   6.526
58177W        W59042  10.454   9.507   4.296
58178W        W59043  10.584  10.592   6.323
58179W        W59044   8.502  10.583   3.849
58180W        W59045   8.585   8.735   4.832
58181W        W59046   8.100   8.583   4.996
58182W        W59047   9.091   9.398   4.430
58183W        W59048   8.766  10.490   6.785
58184W        W59049   7.415   8.051   6.748
58185W        W59050   8.177   7.331   6.550
58186W        W59051   9.871   7.719   5.437
58187W        W59052   9.520   8.590   4.007
58188W        W59053  10.090   8.024   7.098
58189W        W59054   7.456   7.816   6.223
58190W        W59055   7.555  10.435   7.244
58191W        W59056   9.077   9.825   3.976
58192W        W59057   7.509   8.608   5.669
58193W        W59058   8.402   8.499   6.906
58194W        W59059  10.861   8.358   5.405
58195W        W59060  10.625   9.401   6.264
58196W        W59061   8.933   8.734   5.291
58197W        W59062   9.479  10.073   5.660
58198W        W59063   7.979   9.507   5.892
58199W        W59064   7.338   9.035   5.463
58200W        W59065   8.374   9.007   6.655
58201W        W59066  10.645   8.790   6.909
58202W        W59067   8.261  10.234   5.354
58203W        W59068   9.382   9.923   6.488
58204W        W59069   8.602   8.563   5.713
58205W        W59070   8.894   9.347   5.356
58206W        W59071   9.891  10.120   7.204
58207W        W59072   8.970   9.440   7.214
58208W        W59073   8.951   9.156   6.692
58209W        W59074   7.360   8.547   7.214
58210W        W59075  10.192  10.082   6.813
58211W        W59076   7.773   7.664   4.811
58212W        W59077   8.300   9.922   5.810
58213W        W59078  10.763   9.705   5.100
58214W        W59079  10.176   8.105   5.667
58215W        W59080  10.461   8.058   3.762
58216W        W59081  10.926   8.859   6.068
58217W        W59082   8.893  10.566   5.821
58218W        W59083  10.667  10.032   4.259
58219W        W59084   7.796  10.818   4.013
58220W        W59085   8.189  10.864   4.689
58221W        W59086   7.986   7.618   6.115
58222W        W59087  10.609   8.636   6.390
58223W        W59088  10.014   9.058   4.849
58224W        W59089   9.980   8.746   3.876
58225W        W59090   9.188   9.890   6.016
58226W        W59091   8.994   8.220   5.215
58227W        W59092   9.594  10.307   6.209
58228W        W59093  10.465   9.098   4.631
58229W        W59094   9.367   7.756   4.647
58230W        W59095   8.024  10.450   4.330
58231W        W59096   7.395   7.949   4.929
58232W        W59097  10.181   8.556   5.403
58233W        W59098   7.639  10.173   5.318
58234W        W59099   8.980  10.523   4.188
58235W        W59100  10.372   8.549   3.652
58236W        W59101   7.395  10.307   5.816
58237W        W59102   8.186   9.879   6.296
58238W        W59103   8.559   9.239   4.915
58239W        W59104   8.581   7.644   6.008
58240W        W59105  10.810   7.406   5.305
58241W        W59106   8.029   9.278   3.773
58242W        W59107   7.684   8.311   3.952
58243W        W59108   7.746  10.267   4.746
58244W        W59109   8.877   9.750   4.994
58245W        W59110   9.135   8.251   4.392
58246W        W59111  10.518  10.649   5.164
58247W        W59112  10.195   8.502   6.762
58248W        W59113  10.908  10.158   4.896
58249W        W59114   9.535   9.450   6.380
58250W        W59115   7.301   9.001   4.586
58251W        W59116   8.412   9.416   6.159
58252W        W59117   9.616   8.680   4.537
58253W        W59118   9.493   9.170   4.641
58254W        W59119   7.836   8.590   6.115
58255W        W59120   7.821   8.466   7.037
58256W        W59121   7.711   7.383   5.196
58257W        W59122   9.479   7.730   5.757
58258W        W59123   9.127   7.915   6.920
58259W        W59124   9.482   8.064   4.098
58260W        W59125  10.665  10.457   6.852
58261W        W59126   9.632   7.538   6.891
58262W        W59127  10.651   9.839   7.013
58263W        W59128  10.081   8.006   6.609
58264W        W59129   9.881   7.944   4.879
58265W        W59130  10.274   9.078   7.283
58266W        W59131   8.014  10.654   5.269
58267W        W59132   8.672   8.371   4.255
58268W        W59133   8.241   7.655   6.919
58269W        W59134  10.293   8.139   4.600
58270W        W59135  10.660   8.621   4.545
58271W        W59136   8.403  10.838   7.016
58272W        W59137   8.329   7.374   4.251
58273W        W59138  10.650   7.908   5.286
58274W        W59139  10.800  10.157   3.731
58275W        W59140   7.707   9.360   5.433
58276W        W59141   9.624   7.947   3.663
58277W        W59142  10.758  10.279   5.383
58278W        W59143  10.797   7.473   6.133
58279W        W59144   9.242   8.685   6.687
58280W        W59145   9.335  10.024   4.390
58281W        W59146   9.735   9.318   7.130
58282W        W59147   9.409   7.295   5.439
58283W        W59148   8.021   8.198   5.502
58284W        W59149   7.575   9.398   6.276
58285W        W59150   9.434  10.591   4.982
58286W        W59151  10.628   8.188   5.854
58287W        W59152   9.265  10.535   6.621
58288W        W59153  10.608   9.594   3.826
58289W        W59154   9.043   9.077   4.887
58290W        W59155  10.895   7.588   6.628
58291W        W59156   9.044   9.423   6.222
58292W        W59157   9.261   8.309   5.667
58293W        W59158  10.113   8.607   4.505
58294W        W59159  10.400   8.340   4.147
58295W        W59160  10.209  10.380   4.536
58296W        W59161  10.043   9.983   5.332
58297W        W59162   9.939   9.062   4.310
58298W        W59163   9.372   9.272   5.296
58299W        W59164  10.253   9.060   5.363
58300W        W59165   7.628   8.075   5.787
58301W        W59166  10.406   9.127   6.614
58302W        W59167  10.757  10.745   5.760
58303W        W59168   8.687  10.189   5.162
58304W        W59169   9.694  10.722   6.486
58305W        W59170   9.688   8.052   6.250
58306W        W59171   8.895  10.760   6.311
58307W        W59172  10.592   7.714   4.777
58308W        W59173  10.383   9.033   6.078
58309W        W59174   7.366   8.354   6.116
58310W        W59175  10.226   8.149   5.134
58311W        W59176  10.637   8.300   6.911
58312W        W59177   9.522   9.999   5.129
58313W        W59178   8.778  10.590   4.742
58314W        W59179   7.893   7.770   4.000
58315W        W59180   8.997   7.424   5.810
58316W        W59181   8.025  10.544   3.658
58317W        W59182   8.399   9.010   4.409
58318W        W59183   9.053   9.639   6.722
58319W        W59184   8.883   7.997   4.712
58320W        W59185  10.239   7.594   5.140
58321W        W59186   9.959  10.876   5.468
58322W        W59187   9.371  10.524   5.808
58323W        W59188   8.767   9.561   5.769
58324W        W59189  10.537  10.284   5.895
58325W        W59190   8.231   7.787   4.664
58326W        W59191   8.753  10.084   5.624
58327W        W59192   8.236   8.015   3.689
58328W        W59193   9.037   8.624   6.083
58329W        W59194   9.885   7.490   5.953
58330W        W59195   7.305   9.333   5.838
58331W        W59196   9.009   9.151   3.996
58332W        W59197   8.277   7.466   3.766
58333W        W59198   9.015   8.547   4.817
58334W        W59199   9.985   7.523   6.516
58335W        W59200   8.573   9.535   6.625
58336W        W59201   9.377   9.317   6.842
58337W        W59202   9.994   9.347   6.735
58338W        W59203   9.278   7.487   7.240
58339W        W59204   8.500   8.103   5.633
58340W        W59205   7.926   8.059   5.031
58341W        W59206   7.712  10.771   4.707
58342W        W59207   9.044  10.101   6.832
58343W        W59208   8.079   9.586   4.191
58344W        W59209   9.759   8.971   5.412
58345W        W59210  10.039   8.770   5.811
58346W        W59211   9.244   9.444   5.745
58347W        W59212   9.714   9.818   3.877
58348W        W59213   9.386   7.839   5.205
58349W        W59214  10.865   8.117   4.473
58350W        W59215   7.359  10.706   6.504
58351W        W59216   7.776   9.932   6.036
58352W        W59217   7.343  10.778   4.268
58353W        W59218   9.242   8.048   6.074
58354W        W59219   8.605  10.071   3.923
58355W        W59220  10.510  10.453   4.109
58356W        W59221   9.485   9.106   4.123
58357W        W59222   8.328   8.297   4.640
58358W        W59223   9.160   8.207   3.692
58359W        W59224   9.744   9.772   6.870
58360W        W59225  10.097   7.678   4.487
58361W        W59226   7.427   7.526   3.935
58362W        W59227   8.713   9.845   6.225
58363W        W59228   8.512   9.761   5.317
58364W        W59229   8.254   9.713   3.715
58365W        W59230   7.495   9.954   4.483
58366W        W59231   7.999   9.024   6.925
58367W        W59232   8.703   7.584   7.111
58368W        W59233   9.412   7.726   6.467
58369W        W59234   8.607   7.494   4.748
58370W        W59235   9.666   7.571   4.253
58371W        W59236   7.611   7.503   5.830
58372W        W59237   7.659   8.466   5.200
58373W        W59238  10.348   7.574   5.606
58374W        W59239   7.770   8.072   4.420
58375W        W59240  10.341   7.760   6.036
58376W        W59241  10.737   8.963   3.721
58377W        W59242   8.029   7.721   5.540
58378W        W59243   9.143   8.293   6.480
58379W        W59244   7.291   7.983   3.958
58380W        W59245   8.077   9.372   6.519
58381W        W59246   9.435   8.770   5.698
58382W        W59247   9.302  10.849   3.994
58383W        W59248   7.448   9.356   3.691
58384W        W59249   8.183   9.767   6.817
58385W        W59250   7.704   8.934   6.448
58386W        W59251   8.695   9.039   6.242
58387W        W59252  10.463   7.398   6.504
58388W        W59253  10.861   9.008   6.495
58389W        W59254  10.849   9.208   4.181
58390W        W59255   9.712   9.540   4.280
58391W        W59256  10.186  10.840   3.975
58392W        W59257   9.363   8.830   7.117
58393W        W59258   7.693   9.797   7.157
58394W        W59259  10.899   7.719   7.109
58395W        W59260  10.617   8.647   5.730
58396W        W59261   8.925  10.777   7.207
58397W        W59262   8.780   7.406   3.934
58398W        W59263  10.319  10.005   3.877
58399W        W59264   8.088   8.098   6.763
58400W        W59265   8.522  10.092   6.625
58401W        W59266  10.648   8.083   6.423
58402W        W59267   9.859  10.742   4.391
58403W        W59268  10.098   9.361   5.758
58404W        W59269   8.348   7.777   6.425
58405W        W59270   8.817   8.846   7.182
58406W        W59271   8.320  10.025   4.376
58407W        W59272  10.075   9.523   4.640
58408W        W59273   7.843   8.149   6.364
58409W        W59274   9.172  10.211   4.828
58410W        W59275  10.922   8.771   5.009
58411W        W59276   9.144   7.404   6.728
58412W        W59277   9.924  10.109   5.807
58413W        W59278  10.227  10.453   5.515
58414W        W59279   9.446  10.255   3.943
58415W        W59280   7.456  10.147   6.785
58416W        W59281   8.199   8.139   6.023
58417W        W59282   8.169   7.487   5.133
58418W        W59283   9.790   8.329   5.825
58419W        W59284   8.588   9.500   4.025
58420W        W59285  10.586   9.442   5.524
58421W        W59286   7.913  10.200   6.947
58422W        W59287  10.300  10.882   4.744
58423W        W59288   8.399   7.902   5.189
58424W        W59289   8.168   9.395   5.279
58425W        W59290   8.481  10.806   6.029
58426W        W59291  10.548  10.902   7.061
58427W        W59292   9.707   9.090   5.994
58428W        W59293   7.556   8.888   3.909
58429W        W59294  10.690  10.546   4.606
58430W        W59295  10.527   7.870   4.225
58431W        W59296   8.666   7.389   6.628
58432W        W59297  10.372  10.191   5.086
58433W        W59298  10.401   8.747   4.991
58434W        W59299   8.518   8.420   5.207
58435W        W59300   8.763   8.682   6.531
58436W        W59301   9.874   9.835   6.394
58437W        W59302   8.524   8.289   6.506
58438W        W59303   8.503  10.755   5.122
58439W        W59304   7.820  10.714   6.756
58440W        W59305   7.932  10.075   3.886
58441W        W59306  10.449   9.833   4.696
58442W        W59307   8.053   8.625   6.582
58443W        W59308  10.826   8.555   4.063
58444W        W59309   8.571   9.612   4.534
58445W        W59310   9.670   8.994   6.615
58446W        W59311   9.561   8.622   6.159
58447W        W59312   8.121   8.994   6.188
58448W        W59313  10.331  10.882   6.017
58449W        W59314  10.122   7.516   7.011
58450W        W59315   7.786   7.666   6.598
58451W        W59316   8.125   8.689   5.651
58452W        W59317   8.494   8.503   3.773
58453W        W59318   7.297  10.262   6.318
58454W        W59319   8.882   8.971   5.761
58455W        W59320   8.705   7.996   3.866
58456W        W59321   7.840   8.812   4.647
58457W        W59322   7.611  10.664   6.084
58458W        W59323  10.406   8.890   4.192
58459W        W59324  10.501   7.806   6.878
58460W        W59325   9.937  10.015   4.841
58461W        W59326   7.535   8.939   7.018
58462W        W59327  10.501   7.403   4.314
58463W        W59328  10.021   9.878   4.325
58464W        W59329   8.923   8.936   4.410
58465W        W59330  10.110   7.740   3.933
58466W        W59331  10.175   8.347   6.119
58467W        W59332   7.884   8.940   5.326
58468W        W59333   8.178   9.879   4.975
58469W        W59334   9.941   8.499   4.940
58470W        W59335   8.964   7.878   5.636
58471W        W59336  10.926   9.789   6.147
58472W        W59337  10.844   7.776   5.708
58473W        W59338   7.383  10.606   5.084
58474W        W59339   7.892   9.793   4.620
58475W        W59340   7.807   7.410   7.173
58476W        W59341   8.926  10.263   7.275
58477W        W59342  10.681   9.231   5.065
58478W        W59343  10.035   9.408   3.945
58479W        W59344   9.330  10.929   6.157
58480W        W59345  10.187   9.651   7.194
58481W        W59346   9.002   7.361   4.474
58482W        W59347   9.715   8.230   5.333
58483W        W59348   7.401   9.817   5.665
58484W        W59349   8.654   7.779   4.306
58485W        W59350   8.458   9.263   7.155
58486W        W59351   9.452   8.244   4.869
58487W        W59352   9.657   9.654   5.991
58488W        W59353   7.811  10.259   6.426
58489W        W59354   8.402  10.242   7.149
58490W        W59355   8.253   8.039   4.163
58491W        W59356   9.770   8.181   4.488
58492W        W59357   9.728  10.289   6.725
58493W        W59358   8.413   8.881   5.324
58494W        W59359   8.068  10.579   6.189
58495W        W59360  10.813  10.696   3.790
58496W        W59361   7.676   9.368   6.786
58497W        W59362   9.671   9.630   5.474
58498W        W59363   8.107   9.279   4.716
58499W        W59364   8.478  10.286   6.111
58500W        W59365   8.856   7.705   5.152
58501W        W59366   7.467   9.689   4.082
58502W        W59367   8.986   8.640   3.952
58503W        W59368   7.632   9.189   4.971
58504W        W59369   8.922   7.831   6.435
58505W        W59370  10.594   7.540   3.862
58506W        W59371  10.687   9.286   6.961
58507W        W59372   9.341  10.543   7.113
58508W        W59373  10.899   9.637   6.635
58509W        W59374  10.307  10.435   7.246
58510W        W59375   8.046  10.891   5.724
58511W        W59376  10.905   9.513   4.598
58512W        W59377   9.435   8.780   5.111
58513W        W59378   9.202   7.392   5.001
58514W        W59379   8.261  10.376   4.838
58515W        W59380   8.760   8.117   6.063
58516W        W59381   8.460   7.486   5.532
58517W        W59382   7.523  10.308   4.080
58518W        W59383   9.339   9.672   4.798
58519W        W59384   8.214  10.467   6.677
58520W        W59385   7.691   9.290   4.373
58521W        W59386   7.576   7.833   5.372
58522W        W59387   9.124   9.798   5.429
58523W        W59388   7.376   7.652   4.449
58524W        W59389  10.040   8.858   6.376
58525W        W59390   9.917   8.244   3.948
58526W        W59391  10.434   9.916   5.596
58527W        W59392   9.095  10.400   5.427
58528W        W59393   8.507  10.504   4.338
58529W        W59394   9.789   7.407   3.768
58530W        W59395   7.589  10.667   5.509
58531W        W59396   9.786   8.425   7.144
58532W        W59397   7.769   7.955   7.143
58533W        W59398   7.500   8.555   4.476
58534W        W59399   8.191   8.544   4.201
58535W        W59400   9.954   8.871   7.018
58536W        W59401   8.297   9.152   5.727
58537W        W59402   9.771   7.438   4.847
58538W        W59403   8.902  10.869   5.350
58539W        W59404  10.116  10.331   6.287
58540W        W59405   9.700  10.480   5.398
58541W        W59406   9.719   9.460   4.992
58542W        W59407   9.181   7.685   4.063
58543W        W59408  10.862   7.313   4.785
58544W        W59409   8.550   8.948   3.948
58545W        W59410  10.716   8.285   4.938
58546W        W59411   9.408   9.455   3.815
58547W        W59412  10.344   9.655   6.563
58548W        W59413   9.998  10.356   4.030
58549W        W59414   8.613   8.031   6.936
58550W        W59415   8.433   8.615   6.177
58551W        W59416  10.525  10.110   6.454
58552W        W59417   9.625   8.060   6.831
58553W        W59418   7.469   8.531   6.608
58554W        W59419   9.229   9.008   6.334
58555W        W59420   7.586   9.766   4.991
58556W        W59421   7.733   9.063   5.881
58557W        W59422  10.050   9.349   6.231
58558W        W59423   9.718   8.468   6.595
58559W        W59424   9.995  10.522   5.000
58560W        W59425   8.997  10.242   6.323
58561W        W59426   8.482  10.597   5.592
58562W        W59427  10.287   9.768   6.011
58563W        W59428   9.337   9.840   7.148
58564W        W59429   7.942   9.793   5.487
58565W        W59430  10.288   9.552   5.132
58566W        W59431   9.929  10.618   5.883
58567W        W59432   7.907  10.347   5.753
58568W        W59433   8.928   8.399   6.963
58569W        W59434   9.379  10.565   4.474
58570W        W59435   8.687   9.820   7.112
58571W        W59436   8.813  10.058   4.489
58572W        W59437   8.034   8.798   3.748
58573W        W59438   7.373  10.884  10.648
58574W        W59439   7.749   9.777  10.171
58575W        W59440  10.454   9.507   7.941
58576W        W59441  10.584  10.592   9.968
58577W        W59442   8.502  10.583   7.494
58578W        W59443   8.585   8.735   8.477
58579W        W59444   8.100   8.583   8.641
58580W        W59445   9.091   9.398   8.075
58581W        W59446   8.766  10.490  10.430
58582W        W59447   7.415   8.051  10.393
58583W        W59448   8.177   7.331  10.195
58584W        W59449   9.871   7.719   9.082
58585W        W59450   9.520   8.590   7.652
58586W        W59451  10.090   8.024  10.743
58587W        W59452   7.456   7.816   9.868
58588W        W59453   7.555  10.435  10.889
58589W        W59454   9.077   9.825   7.621
58590W        W59455   7.509   8.608   9.314
58591W        W59456   8.402   8.499  10.551
58592W        W59457  10.861   8.358   9.050
58593W        W59458  10.625   9.401   9.909
58594W        W59459   8.933   8.734   8.936
58595W        W59460   9.479  10.073   9.305
58596W        W59461   7.979   9.507   9.537
58597W        W59462   7.338   9.035   9.108
58598W        W59463   8.374   9.007  10.300
58599W        W59464  10.645   8.790  10.554
58600W        W59465   8.261  10.234   8.999
58601W        W59466   9.382   9.923  10.133
58602W        W59467   8.602   8.563   9.358
58603W        W59468   8.894   9.347   9.001
58604W        W59469   9.891  10.120  10.849
58605W        W59470   8.970   9.440  10.859
58606W        W59471   8.951   9.156  10.337
58607W        W59472   7.360   8.547  10.859
58608W        W59473  10.192  10.082  10.458
58609W        W59474   7.773   7.664   8.456
58610W        W59475   8.300   9.922   9.455
58611W        W59476  10.763   9.705   8.745
58612W        W59477  10.176   8.105   9.312
58613W        W59478  10.461   8.058   7.407
58614W        W59479  10.926   8.859   9.713
58615W        W59480   8.893  10.566   9.466
58616W        W59481  10.667  10.032   7.904
58617W        W59482   7.796  10.818   7.658
58618W        W59483   8.189  10.864   8.334
58619W        W59484   7.986   7.618   9.760
58620W        W59485  10.609   8.636  10.035
58621W        W59486  10.014   9.058   8.494
58622W        W59487   9.980   8.746   7.521
58623W        W59488   9.188   9.890   9.661
58624W        W59489   8.994   8.220   8.860
58625W        W59490   9.594  10.307   9.854
58626W        W59491  10.465   9.098   8.276
58627W        W59492   9.367   7.756   8.292
58628W        W59493   8.024  10.450   7.975
58629W        W59494   7.395   7.949   8.574
58630W        W59495  10.181   8.556   9.048
58631W        W59496   7.639  10.173   8.963
58632W        W59497   8.980  10.523   7.833
58633W        W59498  10.372   8.549   7.297
58634W        W59499   7.395  10.307   9.461
58635W        W59500   8.186   9.879   9.941
58636W        W59501   8.559   9.239   8.560
58637W        W59502   8.581   7.644   9.653
58638W        W59503  10.810   7.406   8.950
58639W        W59504   8.029   9.278   7.418
58640W        W59505   7.684   8.311   7.597
58641W        W59506   7.746  10.267   8.391
58642W        W59507   8.877   9.750   8.639
58643W        W59508  10.209  10.609  10.353
58644W        W59509   9.135   8.251   8.037
58645W        W59510  10.518  10.649   8.809
58646W        W59511  10.195   8.502  10.407
58647W        W59512  10.908  10.158   8.541
58648W        W59513   9.535   9.450  10.025
58649W        W59514   7.301   9.001   8.231
58650W        W59515   8.412   9.416   9.804
58651W        W59516   9.616   8.680   8.182
58652W        W59517   9.493   9.170   8.286
58653W        W59518   7.836   8.590   9.760
58654W        W59519   7.821   8.466  10.682
58655W        W59520   7.711   7.383   8.841
58656W        W59521   9.479   7.730   9.402
58657W        W59522   9.127   7.915  10.565
58658W        W59523   9.482   8.064   7.743
58659W        W59524  10.665  10.457  10.497
58660W        W59525   9.632   7.538  10.536
58661W        W59526  10.651   9.839  10.658
58662W        W59527  10.081   8.006  10.254
58663W        W59528   9.881   7.944   8.524
58664W        W59529  10.274   9.078  10.928
58665W        W59530   8.014  10.654   8.914
58666W        W59531   8.672   8.371   7.900
58667W        W59532   8.241   7.655  10.564
58668W        W59533  10.293   8.139   8.245
58669W        W59534  10.660   8.621   8.190
58670W        W59535   8.403  10.838  10.661
58671W        W59536   8.329   7.374   7.896
58672W        W59537  10.650   7.908   8.931
58673W        W59538  10.800  10.157   7.376
58674W        W59539   7.707   9.360   9.078
58675W        W59540   9.624   7.947   7.308
58676W        W59541  10.758  10.279   9.028
58677W        W59542  10.797   7.473   9.778
58678W        W59543   9.242   8.685  10.332
58679W        W59544   9.335  10.024   8.035
58680W        W59545   9.735   9.318  10.775
58681W        W59546   9.409   7.295   9.084
58682W        W59547   8.021   8.198   9.147
58683W        W59548   7.575   9.398   9.921
58684W        W59549   9.434  10.591   8.627
58685W        W59550  10.628   8.188   9.499
58686W        W59551   9.265  10.535  10.266
58687W        W59552  10.608   9.594   7.471
58688W        W59553   9.043   9.077   8.532
58689W        W59554  10.895   7.588  10.273
58690W        W59555   9.044   9.423   9.867
58691W        W59556   9.261   8.309   9.312
58692W        W59557  10.113   8.607   8.150
58693W        W59558  10.400   8.340   7.792
58694W        W59559  10.209  10.380   8.181
58695W        W59560  10.043   9.983   8.977
58696W        W59561   9.939   9.062   7.955
58697W        W59562   9.372   9.272   8.941
58698W        W59563  10.253   9.060   9.008
58699W        W59564   7.628   8.075   9.432
58700W        W59565  10.406   9.127  10.259
58701W        W59566  10.757  10.745   9.405
58702W        W59567   8.687  10.189   8.807
58703W        W59568   9.694  10.722  10.131
58704W        W59569   9.688   8.052   9.895
58705W        W59570   8.895  10.760   9.956
58706W        W59571  10.592   7.714   8.422
58707W        W59572  10.383   9.033   9.723
58708W        W59573   7.366   8.354   9.761
58709W        W59574  10.226   8.149   8.779
58710W        W59575  10.637   8.300  10.556
58711W        W59576   9.522   9.999   8.774
58712W        W59577   8.778  10.590   8.387
58713W        W59578   7.893   7.770   7.645
58714W        W59579   8.997   7.424   9.455
58715W        W59580   8.025  10.544   7.303
58716W        W59581   8.399   9.010   8.054
58717W        W59582   9.053   9.639  10.367
58718W        W59583   8.883   7.997   8.357
58719W        W59584  10.239   7.594   8.785
58720W        W59585   9.959  10.876   9.113
58721W        W59586   9.371  10.524   9.453
58722W        W59587   8.767   9.561   9.414
58723W        W59588  10.537  10.284   9.540
58724W        W59589   8.231   7.787   8.309
58725W        W59590   8.753  10.084   9.269
58726W        W59591   8.236   8.015   7.334
58727W        W59592   9.037   8.624   9.728
58728W        W59593   9.885   7.490   9.598
58729W        W59594   7.305   9.333   9.483
58730W        W59595   9.009   9.151   7.641
58731W        W59596   8.277   7.466   7.411
58732W        W59597   9.015   8.547   8.462
58733W        W59598   9.985   7.523  10.161
58734W        W59599   8.573   9.535  10.270
58735W        W59600   9.377   9.317  10.487
58736W        W59601   9.994   9.347  10.380
58737W        W59602   9.278   7.487  10.885
58738W        W59603   8.500   8.103   9.278
58739W        W59604   7.926   8.059   8.676
58740W        W59605   7.712  10.771   8.352
58741W        W59606   9.044  10.101  10.477
58742W        W59607   8.079   9.586   7.836
58743W        W59608   9.759   8.971   9.057
58744W        W59609  10.039   8.770   9.456
58745W        W59610   9.244   9.444   9.390
58746W        W59611   9.714   9.818   7.522
58747W        W59612   9.386   7.839   8.850
58748W        W59613  10.865   8.117   8.118
58749W        W59614   7.359  10.706  10.149
58750W        W59615   7.776   9.932   9.681
58751W        W59616   7.343  10.778   7.913
58752W        W59617   9.242   8.048   9.719
58753W        W59618   8.605  10.071   7.568
58754W        W59619  10.510  10.453   7.754
58755W        W59620   9.485   9.106   7.768
58756W        W59621   8.328   8.297   8.285
58757W        W59622   9.160   8.207   7.337
58758W        W59623   9.744   9.772  10.515
58759W        W59624  10.097   7.678   8.132
58760W        W59625   7.427   7.526   7.580
58761W        W59626   8.713   9.845   9.870
58762W        W59627   8.512   9.761   8.962
58763W        W59628   8.254   9.713   7.360
58764W        W59629   7.495   9.954   8.128
58765W        W59630   7.999   9.024  10.570
58766W        W59631   8.703   7.584  10.756
58767W        W59632   9.412   7.726  10.112
58768W        W59633   8.607   7.494   8.393
58769W        W59634   9.666   7.571   7.898
58770W        W59635   7.611   7.503   9.475
58771W        W59636   7.659   8.466   8.845
58772W        W59637  10.348   7.574   9.251
58773W        W59638   7.770   8.072   8.065
58774W        W59639  10.341   7.760   9.681
58775W        W59640  10.737   8.963   7.366
58776W        W59641   8.029   7.721   9.185
58777W        W59642   9.143   8.293  10.125
58778W        W59643   7.291   7.983   7.603
58779W        W59644   8.077   9.372  10.164
58780W        W59645   9.435   8.770   9.343
58781W        W59646   9.302  10.849   7.639
58782W        W59647   7.448   9.356   7.336
58783W        W59648   8.183   9.767  10.462
58784W        W59649   7.704   8.934  10.093
58785W        W59650   8.695   9.039   9.887
58786W        W59651  10.463   7.398  10.149
58787W        W59652  10.861   9.008  10.140
58788W        W59653  10.849   9.208   7.826
58789W        W59654   9.712   9.540   7.925
58790W        W59655  10.186  10.840   7.620
58791W        W59656   9.363   8.830  10.762
58792W        W59657   7.693   9.797  10.802
58793W        W59658  10.899   7.719  10.754
58794W        W59659  10.617   8.647   9.375
58795W        W59660   8.925  10.777  10.852
58796W        W59661   8.780   7.406   7.579
58797W        W59662  10.319  10.005   7.522
58798W        W59663   8.088   8.098  10.408
58799W        W59664   8.522  10.092  10.270
58800W        W59665  10.648   8.083  10.068
58801W        W59666   9.859  10.742   8.036
58802W        W59667  10.098   9.361   9.403
58803W        W59668   8.348   7.777  10.070
58804W        W59669   8.817   8.846  10.827
58805W        W59670   8.320  10.025   8.021
58806W        W59671  10.075   9.523   8.285
58807W        W59672   7.843   8.149  10.009
58808W        W59673   9.172  10.211   8.473
58809W        W59674  10.922   8.771   8.654
58810W        W59675   9.144   7.404  10.373
58811W        W59676   9.924  10.109   9.452
58812W        W59677  10.227  10.453   9.160
58813W        W59678   9.446  10.255   7.588
58814W        W59679   7.456  10.147  10.430
58815W        W59680   8.199   8.139   9.668
58816W        W59681   8.169   7.487   8.778
58817W        W59682   9.790   8.329   9.470
58818W        W59683   8.588   9.500   7.670
58819W        W59684  10.586   9.442   9.169
58820W        W59685   7.913  10.200  10.592
58821W        W59686  10.300  10.882   8.389
58822W        W59687   8.399   7.902   8.834
58823W        W59688   8.168   9.395   8.924
58824W        W59689   8.481  10.806   9.674
58825W        W59690  10.548  10.902  10.706
58826W        W59691   9.707   9.090   9.639
58827W        W59692   7.556   8.888   7.554
58828W        W59693  10.690  10.546   8.251
58829W        W59694  10.527   7.870   7.870
58830W        W59695   8.666   7.389  10.273
58831W        W59696  10.372  10.191   8.731
58832W        W59697  10.401   8.747   8.636
58833W        W59698   8.518   8.420   8.852
58834W        W59699   8.763   8.682  10.176
58835W        W59700   9.874   9.835  10.039
58836W        W59701   8.524   8.289  10.151
58837W        W59702   8.503  10.755   8.767
58838W        W59703   7.820  10.714  10.401
58839W        W59704   7.932  10.075   7.531
58840W        W59705  10.449   9.833   8.341
58841W        W59706   8.053   8.625  10.227
58842W        W59707  10.826   8.555   7.708
58843W        W59708   8.571   9.612   8.179
58844W        W59709   9.670   8.994  10.260
58845W        W59710   9.561   8.622   9.804
58846W        W59711   8.121   8.994   9.833
58847W        W59712  10.331  10.882   9.662
58848W        W59713  10.122   7.516  10.656
58849W        W59714   7.786   7.666  10.243
58850W        W59715   8.125   8.689   9.296
58851W        W59716   8.494   8.503   7.418
58852W        W59717   7.297  10.262   9.963
58853W        W59718   8.882   8.971   9.406
58854W        W59719   8.705   7.996   7.511
58855W        W59720   7.840   8.812   8.292
58856W        W59721   7.611  10.664   9.729
58857W        W59722  10.406   8.890   7.837
58858W        W59723  10.501   7.806  10.523
58859W        W59724   9.937  10.015   8.486
58860W        W59725   7.535   8.939  10.663
58861W        W59726  10.501   7.403   7.959
58862W        W59727  10.021   9.878   7.970
58863W        W59728   8.923   8.936   8.055
58864W        W59729  10.110   7.740   7.578
58865W        W59730  10.175   8.347   9.764
58866W        W59731   7.884   8.940   8.971
58867W        W59732   8.178   9.879   8.620
58868W        W59733   9.941   8.499   8.585
58869W        W59734   8.964   7.878   9.281
58870W        W59735  10.926   9.789   9.792
58871W        W59736  10.844   7.776   9.353
58872W        W59737   7.383  10.606   8.729
58873W        W59738   7.892   9.793   8.265
58874W        W59739   7.807   7.410  10.818
58875W        W59740   8.926  10.263  10.920
58876W        W59741  10.681   9.231   8.710
58877W        W59742  10.035   9.408   7.590
58878W        W59743   9.330  10.929   9.802
58879W        W59744  10.187   9.651  10.839
58880W        W59745   9.002   7.361   8.119
58881W        W59746   9.715   8.230   8.978
58882W        W59747   7.401   9.817   9.310
58883W        W59748   8.654   7.779   7.951
58884W        W59749   8.458   9.263  10.800
58885W        W59750   9.452   8.244   8.514
58886W        W59751   9.657   9.654   9.636
58887W        W59752   7.811  10.259  10.071
58888W        W59753   8.402  10.242  10.794
58889W        W59754   8.253   8.039   7.808
58890W        W59755   9.770   8.181   8.133
58891W        W59756   9.728  10.289  10.370
58892W        W59757   8.413   8.881   8.969
58893W        W59758   8.068  10.579   9.834
58894W        W59759  10.813  10.696   7.435
58895W        W59760   7.676   9.368  10.431
58896W        W59761   9.671   9.630   9.119
58897W        W59762   8.107   9.279   8.361
58898W        W59763   8.478  10.286   9.756
58899W        W59764   8.856   7.705   8.797
58900W        W59765   7.467   9.689   7.727
58901W        W59766   8.986   8.640   7.597
58902W        W59767   7.632   9.189   8.616
58903W        W59768   8.922   7.831  10.080
58904W        W59769  10.594   7.540   7.507
58905W        W59770  10.687   9.286  10.606
58906W        W59771   9.341  10.543  10.758
58907W        W59772  10.899   9.637  10.280
58908W        W59773  10.307  10.435  10.891
58909W        W59774   8.046  10.891   9.369
58910W        W59775  10.905   9.513   8.243
58911W        W59776   9.435   8.780   8.756
58912W        W59777   9.202   7.392   8.646
58913W        W59778   8.261  10.376   8.483
58914W        W59779   8.760   8.117   9.708
58915W        W59780   8.460   7.486   9.177
58916W        W59781   7.523  10.308   7.725
58917W        W59782   9.339   9.672   8.443
58918W        W59783   8.214  10.467  10.322
58919W        W59784   7.691   9.290   8.018
58920W        W59785   7.576   7.833   9.017
58921W        W59786   9.124   9.798   9.074
58922W        W59787   7.376   7.652   8.094
58923W        W59788  10.040   8.858  10.021
58924W        W59789   9.917   8.244   7.593
58925W        W59790  10.434   9.916   9.241
58926W        W59791   9.095  10.400   9.072
58927W        W59792   8.507  10.504   7.983
58928W        W59793   9.789   7.407   7.413
58929W        W59794   7.589  10.667   9.154
58930W        W59795   9.786   8.425  10.789
58931W        W59796   7.769   7.955  10.788
58932W        W59797   7.500   8.555   8.121
58933W        W59798   8.191   8.544   7.846
58934W        W59799   9.954   8.871  10.663
58935W        W59800   8.297   9.152   9.372
58936W        W59801   9.771   7.438   8.492
58937W        W59802   8.902  10.869   8.995
58938W        W59803  10.116  10.331   9.932
58939W        W59804   9.700  10.480   9.043
58940W        W59805   9.719   9.460   8.637
58941W        W59806   9.181   7.685   7.708
58942W        W59807  10.862   7.313   8.430
58943W        W59808   8.550   8.948   7.593
58944W        W59809  10.716   8.285   8.583
58945W        W59810   9.408   9.455   7.460
58946W        W59811  10.344   9.655  10.208
58947W        W59812   9.998  10.356   7.675
58948W        W59813   8.613   8.031  10.581
58949W        W59814   8.433   8.615   9.822
58950W        W59815  10.525  10.110  10.099
58951W        W59816   9.625   8.060  10.476
58952W        W59817   7.469   8.531  10.253
58953W        W59818   9.229   9.008   9.979
58954W        W59819   7.586   9.766   8.636
58955W        W59820   7.733   9.063   9.526
58956W        W59821  10.050   9.349   9.876
58957W        W59822   9.822  10.729  10.687
58958W        W59823   9.718   8.468  10.240
58959W        W59824   9.995  10.522   8.645
58960W        W59825   8.997  10.242   9.968
58961W        W59826   8.482  10.597   9.237
58962W        W59827  10.287   9.768   9.656
58963W        W59828   9.337   9.840  10.793
58964W        W59829   7.942   9.793   9.132
58965W        W59830  10.288   9.552   8.777
58966W        W59831   9.929  10.618   9.528
58967W        W59832   7.907  10.347   9.398
58968W        W59833   8.928   8.399  10.608
58969W        W59834   9.379  10.565   8.119
58970W        W59835   8.687   9.820  10.757
58971W        W59836   8.813  10.058   8.134
58972W        W59837   8.034   8.798   7.393
58973W        W59838   7.373  10.884  14.292
58974W        W59839   7.749   9.777  13.815
58975W        W59840  10.454   9.507  11.585
58976W        W59841  10.584  10.592  13.612
58977W        W59842   8.502  10.583  11.138
58978W        W59843   8.585   8.735  12.121
58979W        W59844   8.100   8.583  12.285
58980W        W59845   9.091   9.398  11.719
58981W        W59846   8.766  10.490  14.074
58982W        W59847   7.415   8.051  14.037
58983W        W59848   8.177   7.331  13.839
58984W        W59849   9.871   7.719  12.726
58985W        W59850   9.520   8.590  11.296
58986W        W59851  10.090   8.024  14.387
58987W        W59852   7.456   7.816  13.512
58988W        W59853   7.555  10.435  14.533
58989W        W59854   9.077   9.825  11.265
58990W        W59855   7.509   8.608  12.958
58991W        W59856   8.402   8.499  14.195
58992W        W59857  10.861   8.358  12.694
58993W        W59858  10.625   9.401  13.553
58994W        W59859   8.933   8.734  12.580
58995W        W59860   9.479  10.073  12.949
58996W        W59861   7.979   9.507  13.181
58997W        W59862   7.338   9.035  12.752
58998W        W59863   8.374   9.007  13.944
58999W        W59864  10.645   8.790  14.198
59000W        W59865   8.261  10.234  12.643
59001W        W59866   9.382   9.923  13.777
59002W        W59867   8.602   8.563  13.002
59003W        W59868   8.894   9.347  12.645
59004W        W59869   9.891  10.120  14.493
59005W        W59870   8.970   9.440  14.503
59006W        W59871   8.951   9.156  13.981
59007W        W59872   7.360   8.547  14.503
59008W        W59873  10.192  10.082  14.102
59009W        W59874   7.773   7.664  12.100
59010W        W59875   8.300   9.922  13.099
59011W        W59876  10.763   9.705  12.389
59012W        W59877  10.176   8.105  12.956
59013W        W59878  10.461   8.058  11.051
59014W        W59879  10.926   8.859  13.357
59015W        W59880   8.893  10.566  13.110
59016W        W59881  10.667  10.032  11.548
59017W        W59882   7.796  10.818  11.302
59018W        W59883   8.189  10.864  11.978
59019W        W59884   7.986   7.618  13.404
59020W        W59885  10.609   8.636  13.679
59021W        W59886  10.014   9.058  12.138
59022W        W59887   9.980   8.746  11.165
59023W        W59888   9.188   9.890  13.305
59024W        W59889   8.994   8.220  12.504
59025W        W59890   9.594  10.307  13.498
59026W        W59891  10.465   9.098  11.920
59027W        W59892   9.367   7.756  11.936
59028W        W59893   8.024  10.450  11.619
59029W        W59894   7.395   7.949  12.218
59030W        W59895  10.181   8.556  12.692
59031W        W59896   7.639  10.173  12.607
59032W        W59897   8.980  10.523  11.477
59033W        W59898  10.372   8.549  10.941
59034W        W59899   7.395  10.307  13.105
59035W        W59900   8.186   9.879  13.585
59036W        W59901   8.559   9.239  12.204
59037W        W59902   8.581   7.644  13.297
59038W        W59903  10.810   7.406  12.594
59039W        W59904   8.029   9.278  11.062
59040W        W59905   7.684   8.311  11.241
59041W        W59906   7.746  10.267  12.035
59042W        W59907   8.877   9.750  12.283
59043W        W59908  10.209  10.609  13.997
59044W        W59909   9.135   8.251  11.681
59045W        W59910  10.518  10.649  12.453
59046W        W59911  10.195   8.502  14.051
59047W        W59912  10.908  10.158  12.185
59048W        W59913   9.535   9.450  13.669
59049W        W59914   7.301   9.001  11.875
59050W        W59915   8.412   9.416  13.448
59051W        W59916   9.616   8.680  11.826
59052W        W59917   9.493   9.170  11.930
59053W        W59918   7.836   8.590  13.404
59054W        W59919   7.821   8.466  14.326
59055W        W59920   7.711   7.383  12.485
59056W        W59921   9.479   7.730  13.046
59057W        W59922   9.127   7.915  14.209
59058W        W59923   9.482   8.064  11.387
59059W        W59924  10.665  10.457  14.141
59060W        W59925   9.632   7.538  14.180
59061W        W59926  10.651   9.839  14.302
59062W        W59927  10.081   8.006  13.898
59063W        W59928   9.881   7.944  12.168
59064W        W59929  10.274   9.078  14.572
59065W        W59930   8.014  10.654  12.558
59066W        W59931   8.672   8.371  11.544
59067W        W59932   8.241   7.655  14.208
59068W        W59933  10.293   8.139  11.889
59069W        W59934  10.660   8.621  11.834
59070W        W59935   8.403  10.838  14.305
59071W        W59936   8.329   7.374  11.540
59072W        W59937  10.650   7.908  12.575
59073W        W59938  10.800  10.157  11.020
59074W        W59939   7.707   9.360  12.722
59075W        W59940   9.624   7.947  10.952
59076W        W59941  10.758  10.279  12.672
59077W        W59942  10.797   7.473  13.422
59078W        W59943   9.242   8.685  13.976
59079W        W59944   9.335  10.024  11.679
59080W        W59945   9.735   9.318  14.419
59081W        W59946   9.409   7.295  12.728
59082W        W59947   8.021   8.198  12.791
59083W        W59948   7.575   9.398  13.565
59084W        W59949   9.434  10.591  12.271
59085W        W59950  10.628   8.188  13.143
59086W        W59951   9.265  10.535  13.910
59087W        W59952  10.608   9.594  11.115
59088W        W59953   9.043   9.077  12.176
59089W        W59954  10.895   7.588  13.917
59090W        W59955   9.044   9.423  13.511
59091W        W59956   9.261   8.309  12.956
59092W        W59957  10.113   8.607  11.794
59093W        W59958  10.400   8.340  11.436
59094W        W59959  10.209  10.380  11.825
59095W        W59960  10.043   9.983  12.621
59096W        W59961   9.939   9.062  11.599
59097W        W59962   9.372   9.272  12.585
59098W        W59963  10.253   9.060  12.652
59099W        W59964   7.628   8.075  13.076
59100W        W59965  10.406   9.127  13.903
59101W        W59966  10.757  10.745  13.049
59102W        W59967   8.687  10.189  12.451
59103W        W59968   9.694  10.722  13.775
59104W        W59969   9.688   8.052  13.539
59105W        W59970   8.895  10.760  13.600
59106W        W59971  10.592   7.714  12.066
59107W        W59972  10.383   9.033  13.367
59108W        W59973   7.366   8.354  13.405
59109W        W59974  10.226   8.149  12.423
59110W        W59975  10.637   8.300  14.200
59111W        W59976   9.522   9.999  12.418
59112W        W59977   8.778  10.590  12.031
59113W        W59978   7.893   7.770  11.289
59114W        W59979   8.997   7.424  13.099
59115W        W59980   8.025  10.544  10.947
59116W        W59981   8.399   9.010  11.698
59117W        W59982   9.053   9.639  14.011
59118W        W59983   8.883   7.997  12.001
59119W        W59984  10.239   7.594  12.429
59120W        W59985   9.959  10.876  12.757
59121W        W59986   9.371  10.524  13.097
59122W        W59987   8.767   9.561  13.058
59123W        W59988  10.537  10.284  13.184
59124W        W59989   8.231   7.787  11.953
59125W        W59990   8.753  10.084  12.913
59126W        W59991   8.236   8.015  10.978
59127W        W59992   9.037   8.624  13.372
59128W        W59993   9.885   7.490  13.242
59129W        W59994   7.305   9.333  13.127
59130W        W59995   9.009   9.151  11.285
59131W        W59996   8.277   7.466  11.055
59132W        W59997   9.015   8.547  12.106
59133W        W59998   9.985   7.523  13.805
59134W        W59999   8.573   9.535  13.914
59135W        W60000   9.377   9.317  14.131
59136W        W60001   9.994   9.347  14.024
59137W        W60002   9.278   7.487  14.529
59138W        W60003   8.500   8.103  12.922
59139W        W60004   7.926   8.059  12.320
59140W        W60005   7.712  10.771  11.996
59141W        W60006   9.044  10.101  14.121
59142W        W60007   8.079   9.586  11.480
59143W        W60008   9.759   8.971  12.701
59144W        W60009  10.039   8.770  13.100
59145W        W60010   9.244   9.444  13.034
59146W        W60011   9.714   9.818  11.166
59147W        W60012   9.386   7.839  12.494
59148W        W60013  10.865   8.117  11.762
59149W        W60014   7.359  10.706  13.793
59150W        W60015   7.776   9.932  13.325
59151W        W60016   7.343  10.778  11.557
59152W        W60017   9.242   8.048  13.363
59153W        W60018   8.605  10.071  11.212
59154W        W60019  10.510  10.453  11.398
59155W        W60020   9.485   9.106  11.412
59156W        W60021   8.328   8.297  11.929
59157W        W60022   9.160   8.207  10.981
59158W        W60023   9.744   9.772  14.159
59159W        W60024  10.097   7.678  11.776
59160W        W60025   7.427   7.526  11.224
59161W        W60026   8.713   9.845  13.514
59162W        W60027   8.512   9.761  12.606
59163W        W60028   8.254   9.713  11.004
59164W        W60029   7.495   9.954  11.772
59165W        W60030   7.999   9.024  14.214
59166W        W60031   8.703   7.584  14.400
59167W        W60032   9.412   7.726  13.756
59168W        W60033   8.607   7.494  12.037
59169W        W60034   9.666   7.571  11.542
59170W        W60035   7.611   7.503  13.119
59171W        W60036   7.659   8.466  12.489
59172W        W60037  10.348   7.574  12.895
59173W        W60038   7.770   8.072  11.709
59174W        W60039  10.341   7.760  13.325
59175W        W60040  10.737   8.963  11.010
59176W        W60041   8.029   7.721  12.829
59177W        W60042   9.143   8.293  13.769
59178W        W60043   7.291   7.983  11.247
59179W        W60044   8.077   9.372  13.808
59180W        W60045   9.435   8.770  12.987
59181W        W60046   9.302  10.849  11.283
59182W        W60047   7.448   9.356  10.980
59183W        W60048   8.183   9.767  14.106
59184W        W60049   7.704   8.934  13.737
59185W        W60050   8.695   9.039  13.531
59186W        W60051  10.463   7.398  13.793
59187W        W60052  10.861   9.008  13.784
59188W        W60053  10.849   9.208  11.470
59189W        W60054   9.712   9.540  11.569
59190W        W60055  10.186  10.840  11.264
59191W        W60056   9.363   8.830  14.406
59192W        W60057   7.693   9.797  14.446
59193W        W60058  10.899   7.719  14.398
59194W        W60059  10.617   8.647  13.019
59195W        W60060   8.925  10.777  14.496
59196W        W60061   8.780   7.406  11.223
59197W        W60062  10.319  10.005  11.166
59198W        W60063   8.088   8.098  14.052
59199W        W60064   8.522  10.092  13.914
59200W        W60065  10.648   8.083  13.712
59201W        W60066   9.859  10.742  11.680
59202W        W60067  10.098   9.361  13.047
59203W        W60068   8.348   7.777  13.714
59204W        W60069   8.817   8.846  14.471
59205W        W60070   8.320  10.025  11.665
59206W        W60071  10.075   9.523  11.929
59207W        W60072   7.843   8.149  13.653
59208W        W60073   9.172  10.211  12.117
59209W        W60074  10.922   8.771  12.298
59210W        W60075   9.144   7.404  14.017
59211W        W60076   9.924  10.109  13.096
59212W        W60077  10.227  10.453  12.804
59213W        W60078   9.446  10.255  11.232
59214W        W60079   7.456  10.147  14.074
59215W        W60080   8.199   8.139  13.312
59216W        W60081   8.169   7.487  12.422
59217W        W60082   9.790   8.329  13.114
59218W        W60083   8.588   9.500  11.314
59219W        W60084  10.586   9.442  12.813
59220W        W60085   7.913  10.200  14.236
59221W        W60086  10.300  10.882  12.033
59222W        W60087   8.399   7.902  12.478
59223W        W60088   8.168   9.395  12.568
59224W        W60089   8.481  10.806  13.318
59225W        W60090  10.548  10.902  14.350
59226W        W60091   9.707   9.090  13.283
59227W        W60092   7.556   8.888  11.198
59228W        W60093  10.690  10.546  11.895
59229W        W60094  10.527   7.870  11.514
59230W        W60095   8.666   7.389  13.917
59231W        W60096  10.372  10.191  12.375
59232W        W60097  10.401   8.747  12.280
59233W        W60098   8.518   8.420  12.496
59234W        W60099   8.763   8.682  13.820
59235W        W60100   9.874   9.835  13.683
59236W        W60101   8.524   8.289  13.795
59237W        W60102   8.503  10.755  12.411
59238W        W60103   7.820  10.714  14.045
59239W        W60104   7.932  10.075  11.175
59240W        W60105  10.449   9.833  11.985
59241W        W60106   8.053   8.625  13.871
59242W        W60107  10.826   8.555  11.352
59243W        W60108   8.571   9.612  11.823
59244W        W60109   9.670   8.994  13.904
59245W        W60110   9.561   8.622  13.448
59246W        W60111   8.121   8.994  13.477
59247W        W60112  10.331  10.882  13.306
59248W        W60113  10.122   7.516  14.300
59249W        W60114   7.786   7.666  13.887
59250W        W60115   8.125   8.689  12.940
59251W        W60116   8.494   8.503  11.062
59252W        W60117   7.297  10.262  13.607
59253W        W60118   8.882   8.971  13.050
59254W        W60119   8.705   7.996  11.155
59255W        W60120   7.840   8.812  11.936
59256W        W60121   7.611  10.664  13.373
59257W        W60122  10.406   8.890  11.481
59258W        W60123  10.501   7.806  14.167
59259W        W60124   9.937  10.015  12.130
59260W        W60125   7.535   8.939  14.307
59261W        W60126  10.501   7.403  11.603
59262W        W60127  10.021   9.878  11.614
59263W        W60128   8.923   8.936  11.699
59264W        W60129  10.110   7.740  11.222
59265W        W60130  10.175   8.347  13.408
59266W        W60131   7.884   8.940  12.615
59267W        W60132   8.178   9.879  12.264
59268W        W60133   9.941   8.499  12.229
59269W        W60134   8.964   7.878  12.925
59270W        W60135  10.926   9.789  13.436
59271W        W60136  10.844   7.776  12.997
59272W        W60137   7.383  10.606  12.373
59273W        W60138   7.892   9.793  11.909
59274W        W60139   7.807   7.410  14.462
59275W        W60140   8.926  10.263  14.564
59276W        W60141  10.681   9.231  12.354
59277W        W60142  10.035   9.408  11.234
59278W        W60143   9.330  10.929  13.446
59279W        W60144  10.187   9.651  14.483
59280W        W60145   9.002   7.361  11.763
59281W        W60146   9.715   8.230  12.622
59282W        W60147   7.401   9.817  12.954
59283W        W60148   8.654   7.779  11.595
59284W        W60149   8.458   9.263  14.444
59285W        W60150   9.452   8.244  12.158
59286W        W60151   9.657   9.654  13.280
59287W        W60152   7.811  10.259  13.715
59288W        W60153   8.402  10.242  14.438
59289W        W60154   8.253   8.039  11.452
59290W        W60155   9.770   8.181  11.777
59291W        W60156   9.728  10.289  14.014
59292W        W60157   8.413   8.881  12.613
59293W        W60158   8.068  10.579  13.478
59294W        W60159  10.813  10.696  11.079
59295W        W60160   7.676   9.368  14.075
59296W        W60161   9.671   9.630  12.763
59297W        W60162   8.107   9.279  12.005
59298W        W60163   8.478  10.286  13.400
59299W        W60164   8.856   7.705  12.441
59300W        W60165   7.467   9.689  11.371
59301W        W60166   8.986   8.640  11.241
59302W        W60167   7.632   9.189  12.260
59303W        W60168   8.922   7.831  13.724
59304W        W60169  10.594   7.540  11.151
59305W        W60170  10.687   9.286  14.250
59306W        W60171   9.341  10.543  14.402
59307W        W60172  10.899   9.637  13.924
59308W        W60173  10.307  10.435  14.535
59309W        W60174   8.046  10.891  13.013
59310W        W60175  10.905   9.513  11.887
59311W        W60176   9.435   8.780  12.400
59312W        W60177   9.202   7.392  12.290
59313W        W60178   8.261  10.376  12.127
59314W        W60179   8.760   8.117  13.352
59315W        W60180   8.460   7.486  12.821
59316W        W60181   7.523  10.308  11.369
59317W        W60182   9.339   9.672  12.087
59318W        W60183   8.214  10.467  13.966
59319W        W60184   7.691   9.290  11.662
59320W        W60185   7.576   7.833  12.661
59321W        W60186   9.124   9.798  12.718
59322W        W60187   7.376   7.652  11.738
59323W        W60188  10.040   8.858  13.665
59324W        W60189   9.917   8.244  11.237
59325W        W60190  10.434   9.916  12.885
59326W        W60191   9.095  10.400  12.716
59327W        W60192   8.507  10.504  11.627
59328W        W60193   9.789   7.407  11.057
59329W        W60194   7.589  10.667  12.798
59330W        W60195   9.786   8.425  14.433
59331W        W60196   7.769   7.955  14.432
59332W        W60197   7.500   8.555  11.765
59333W        W60198   8.191   8.544  11.490
59334W        W60199   9.954   8.871  14.307
59335W        W60200   8.297   9.152  13.016
59336W        W60201   9.771   7.438  12.136
59337W        W60202   8.902  10.869  12.639
59338W        W60203  10.116  10.331  13.576
59339W        W60204   9.700  10.480  12.687
59340W        W60205   9.719   9.460  12.281
59341W        W60206   9.181   7.685  11.352
59342W        W60207  10.862   7.313  12.074
59343W        W60208   8.550   8.948  11.237
59344W        W60209  10.716   8.285  12.227
59345W        W60210   9.408   9.455  11.104
59346W        W60211  10.344   9.655  13.852
59347W        W60212   9.998  10.356  11.319
59348W        W60213   8.613   8.031  14.225
59349W        W60214   8.433   8.615  13.466
59350W        W60215  10.525  10.110  13.743
59351W        W60216   9.625   8.060  14.120
59352W        W60217   7.469   8.531  13.897
59353W        W60218   9.229   9.008  13.623
59354W        W60219   7.586   9.766  12.280
59355W        W60220   7.733   9.063  13.170
59356W        W60221  10.050   9.349  13.520
59357W        W60222   9.822  10.729  14.331
59358W        W60223   9.718   8.468  13.884
59359W        W60224   9.995  10.522  12.289
59360W        W60225   8.997  10.242  13.612
59361W        W60226   8.482  10.597  12.881
59362W        W60227  10.287   9.768  13.300
59363W        W60228   9.337   9.840  14.437
59364W        W60229   7.942   9.793  12.776
59365W        W60230  10.288   9.552  12.421
59366W        W60231   9.929  10.618  13.172
59367W        W60232   7.907  10.347  13.042
59368W        W60233   8.928   8.399  14.252
59369W        W60234   9.379  10.565  11.763
59370W        W60235   8.687   9.820  14.401
59371W        W60236   8.813  10.058  11.778
59372W        W60237   8.034   8.798  11.037
59373W        W60238   7.373  10.884  17.936
59374W        W60239   7.749   9.777  17.459
59375W        W60240  10.454   9.507  15.229
59376W        W60241  10.584  10.592  17.256
59377W        W60242   8.502  10.583  14.782
59378W        W60243   8.585   8.735  15.765
59379W        W60244   8.100   8.583  15.929
59380W        W60245   9.091   9.398  15.363
59381W        W60246   8.766  10.490  17.718
59382W        W60247   7.415   8.051  17.681
59383W        W60248   8.177   7.331  17.483
59384W        W60249   9.871   7.719  16.370
59385W        W60250   9.520   8.590  14.940
59386W        W60251  10.090   8.024  18.031
59387W        W60252   7.456   7.816  17.156
59388W        W60253   7.555  10.435  18.177
59389W        W60254   9.077   9.825  14.909
59390W        W60255   7.509   8.608  16.602
59391W        W60256   8.402   8.499  17.839
59392W        W60257  10.861   8.358  16.338
59393W        W60258  10.625   9.401  17.197
59394W        W60259   8.933   8.734  16.224
59395W        W60260   9.479  10.073  16.593
59396W        W60261   7.979   9.507  16.825
59397W        W60262   7.338   9.035  16.396
59398W        W60263   8.374   9.007  17.588
59399W        W60264  10.645   8.790  17.842
59400W        W60265   8.261  10.234  16.287
59401W        W60266   9.382   9.923  17.421
59402W        W60267   8.602   8.563  16.646
59403W        W60268   8.894   9.347  16.289
59404W        W60269   9.891  10.120  18.137
59405W        W60270   8.970   9.440  18.147
59406W        W60271   8.951   9.156  17.625
59407W        W60272   7.360   8.547  18.147
59408W        W60273  10.192  10.082  17.746
59409W        W60274   7.773   7.664  15.744
59410W        W60275   8.300   9.922  16.743
59411W        W60276  10.763   9.705  16.033
59412W        W60277  10.176   8.105  16.600
59413W        W60278  10.461   8.058  14.695
59414W        W60279  10.926   8.859  17.001
59415W        W60280   8.893  10.566  16.754
59416W        W60281  10.667  10.032  15.192
59417W        W60282   7.796  10.818  14.946
59418W        W60283   8.189  10.864  15.622
59419W        W60284   7.986   7.618  17.048
59420W        W60285  10.609   8.636  17.323
59421W        W60286  10.014   9.058  15.782
59422W        W60287   9.980   8.746  14.809
59423W        W60288   9.188   9.890  16.949
59424W        W60289   8.994   8.220  16.148
59425W        W60290   9.594  10.307  17.142
59426W        W60291  10.465   9.098  15.564
59427W        W60292   9.367   7.756  15.580
59428W        W60293   8.024  10.450  15.263
59429W        W60294   7.395   7.949  15.862
59430W        W60295  10.181   8.556  16.336
59431W        W60296   7.639  10.173  16.251
59432W        W60297   8.980  10.523  15.121
59433W        W60298  10.372   8.549  14.585
59434W        W60299   7.395  10.307  16.749
59435W        W60300   8.186   9.879  17.229
59436W        W60301   8.559   9.239  15.848
59437W        W60302   8.581   7.644  16.941
59438W        W60303  10.810   7.406  16.238
59439W        W60304   8.029   9.278  14.706
59440W        W60305   7.684   8.311  14.885
59441W        W60306   7.746  10.267  15.679
59442W        W60307   8.877   9.750  15.927
59443W        W60308  10.209  10.609  17.641
59444W        W60309   9.135   8.251  15.325
59445W        W60310  10.518  10.649  16.097
59446W        W60311  10.195   8.502  17.695
59447W        W60312  10.908  10.158  15.829
59448W        W60313   9.535   9.450  17.313
59449W        W60314   7.301   9.001  15.519
59450W        W60315   8.412   9.416  17.092
59451W        W60316   9.616   8.680  15.470
59452W        W60317   9.493   9.170  15.574
59453W        W60318   7.836   8.590  17.048
59454W        W60319   7.821   8.466  17.970
59455W        W60320   7.711   7.383  16.129
59456W        W60321   9.479   7.730  16.690
59457W        W60322   9.127   7.915  17.853
59458W        W60323   9.482   8.064  15.031
59459W        W60324  10.665  10.457  17.785
59460W        W60325   9.632   7.538  17.824
59461W        W60326  10.651   9.839  17.946
59462W        W60327  10.081   8.006  17.542
59463W        W60328   9.881   7.944  15.812
59464W        W60329  10.274   9.078  18.216
59465W        W60330   8.014  10.654  16.202
59466W        W60331   8.672   8.371  15.188
59467W        W60332   8.241   7.655  17.852
59468W        W60333  10.293   8.139  15.533
59469W        W60334  10.660   8.621  15.478
59470W        W60335   8.403  10.838  17.949
59471W        W60336   8.329   7.374  15.184
59472W        W60337  10.650   7.908  16.219
59473W        W60338  10.800  10.157  14.664
59474W        W60339   7.707   9.360  16.366
59475W        W60340   9.624   7.947  14.596
59476W        W60341  10.758  10.279  16.316
59477W        W60342  10.797   7.473  17.066
59478W        W60343   9.242   8.685  17.620
59479W        W60344   9.335  10.024  15.323
59480W        W60345   9.735   9.318  18.063
59481W        W60346   9.409   7.295  16.372
59482W        W60347   8.021   8.198  16.435
59483W        W60348   7.575   9.398  17.209
59484W        W60349   9.434  10.591  15.915
59485W        W60350  10.628   8.188  16.787
59486W        W60351   9.265  10.535  17.554
59487W        W60352  10.608   9.594  14.759
59488W        W60353   9.043   9.077  15.820
59489W        W60354  10.895   7.588  17.561
59490W        W60355   9.044   9.423  17.155
59491W        W60356   9.261   8.309  16.600
59492W        W60357  10.113   8.607  15.438
59493W        W60358  10.400   8.340  15.080
59494W        W60359  10.209  10.380  15.469
59495W        W60360  10.043   9.983  16.265
59496W        W60361   9.939   9.062  15.243
59497W        W60362   9.372   9.272  16.229
59498W        W60363  10.253   9.060  16.296
59499W        W60364   7.628   8.075  16.720
59500W        W60365  10.406   9.127  17.547
59501W        W60366  10.757  10.745  16.693
59502W        W60367   8.687  10.189  16.095
59503W        W60368   9.694  10.722  17.419
59504W        W60369   9.688   8.052  17.183
59505W        W60370   8.895  10.760  17.244
59506W        W60371  10.592   7.714  15.710
59507W        W60372  10.383   9.033  17.011
59508W        W60373   7.366   8.354  17.049
59509W        W60374  10.226   8.149  16.067
59510W        W60375  10.637   8.300  17.844
59511W        W60376   9.522   9.999  16.062
59512W        W60377   8.778  10.590  15.675
59513W        W60378   7.893   7.770  14.933
59514W        W60379   8.997   7.424  16.743
59515W        W60380   8.025  10.544  14.591
59516W        W60381   8.399   9.010  15.342
59517W        W60382   9.053   9.639  17.655
59518W        W60383   8.883   7.997  15.645
59519W        W60384  10.239   7.594  16.073
59520W        W60385   9.959  10.876  16.401
59521W        W60386   9.371  10.524  16.741
59522W        W60387   8.767   9.561  16.702
59523W        W60388  10.537  10.284  16.828
59524W        W60389   8.231   7.787  15.597
59525W        W60390   8.753  10.084  16.557
59526W        W60391   8.236   8.015  14.622
59527W        W60392   9.037   8.624  17.016
59528W        W60393   9.885   7.490  16.886
59529W        W60394   7.305   9.333  16.771
59530W        W60395   9.009   9.151  14.929
59531W        W60396   8.277   7.466  14.699
59532W        W60397   9.015   8.547  15.750
59533W        W60398   9.985   7.523  17.449
59534W        W60399   8.573   9.535  17.558
59535W        W60400   9.377   9.317  17.775
59536W        W60401   9.994   9.347  17.668
59537W        W60402   9.278   7.487  18.173
59538W        W60403   8.500   8.103  16.566
59539W        W60404   7.926   8.059  15.964
59540W        W60405   7.712  10.771  15.640
59541W        W60406   9.044  10.101  17.765
59542W        W60407   8.079   9.586  15.124
59543W        W60408   9.759   8.971  16.345
59544W        W60409  10.039   8.770  16.744
59545W        W60410   9.244   9.444  16.678
59546W        W60411   9.714   9.818  14.810
59547W        W60412   9.386   7.839  16.138
59548W        W60413  10.865   8.117  15.406
59549W        W60414   7.359  10.706  17.437
59550W        W60415   7.776   9.932  16.969
59551W        W60416   7.343  10.778  15.201
59552W        W60417   9.242   8.048  17.007
59553W        W60418   8.605  10.071  14.856
59554W        W60419  10.510  10.453  15.042
59555W        W60420   9.485   9.106  15.056
59556W        W60421   8.328   8.297  15.573
59557W        W60422   9.160   8.207  14.625
59558W        W60423   9.744   9.772  17.803
59559W        W60424  10.097   7.678  15.420
59560W        W60425   7.427   7.526  14.868
59561W        W60426   8.713   9.845  17.158
59562W        W60427   8.512   9.761  16.250
59563W        W60428   8.254   9.713  14.648
59564W        W60429   7.495   9.954  15.416
59565W        W60430   7.999   9.024  17.858
59566W        W60431   8.703   7.584  18.044
59567W        W60432   9.412   7.726  17.400
59568W        W60433   8.607   7.494  15.681
59569W        W60434   9.666   7.571  15.186
59570W        W60435   7.611   7.503  16.763
59571W        W60436   7.659   8.466  16.133
59572W        W60437  10.348   7.574  16.539
59573W        W60438   7.770   8.072  15.353
59574W        W60439  10.341   7.760  16.969
59575W        W60440  10.737   8.963  14.654
59576W        W60441   8.029   7.721  16.473
59577W        W60442   9.143   8.293  17.413
59578W        W60443   7.291   7.983  14.891
59579W        W60444   8.077   9.372  17.452
59580W        W60445   9.435   8.770  16.631
59581W        W60446   9.302  10.849  14.927
59582W        W60447   7.448   9.356  14.624
59583W        W60448   8.183   9.767  17.750
59584W        W60449   7.704   8.934  17.381
59585W        W60450   8.695   9.039  17.175
59586W        W60451  10.463   7.398  17.437
59587W        W60452  10.861   9.008  17.428
59588W        W60453  10.849   9.208  15.114
59589W        W60454   9.712   9.540  15.213
59590W        W60455  10.186  10.840  14.908
59591W        W60456   9.363   8.830  18.050
59592W        W60457   7.693   9.797  18.090
59593W        W60458  10.899   7.719  18.042
59594W        W60459  10.617   8.647  16.663
59595W        W60460   8.925  10.777  18.140
59596W        W60461   8.780   7.406  14.867
59597W        W60462  10.319  10.005  14.810
59598W        W60463   8.088   8.098  17.696
59599W        W60464   8.522  10.092  17.558
59600W        W60465  10.648   8.083  17.356
59601W        W60466   9.859  10.742  15.324
59602W        W60467  10.098   9.361  16.691
59603W        W60468   8.348   7.777  17.358
59604W        W60469   8.817   8.846  18.115
59605W        W60470   8.320  10.025  15.309
59606W        W60471  10.075   9.523  15.573
59607W        W60472   7.843   8.149  17.297
59608W        W60473   9.172  10.211  15.761
59609W        W60474  10.922   8.771  15.942
59610W        W60475   9.144   7.404  17.661
59611W        W60476   9.924  10.109  16.740
59612W        W60477  10.227  10.453  16.448
59613W        W60478   9.446  10.255  14.876
59614W        W60479   7.456  10.147  17.718
59615W        W60480   8.199   8.139  16.956
59616W        W60481   8.169   7.487  16.066
59617W        W60482   9.790   8.329  16.758
59618W        W60483   8.588   9.500  14.958
59619W        W60484  10.586   9.442  16.457
59620W        W60485   7.913  10.200  17.880
59621W        W60486  10.300  10.882  15.677
59622W        W60487   8.399   7.902  16.122
59623W        W60488   8.168   9.395  16.212
59624W        W60489   8.481  10.806  16.962
59625W        W60490  10.548  10.902  17.994
59626W        W60491   9.707   9.090  16.927
59627W        W60492   7.556   8.888  14.842
59628W        W60493  10.690  10.546  15.539
59629W        W60494  10.527   7.870  15.158
59630W        W60495   8.666   7.389  17.561
59631W        W60496  10.372  10.191  16.019
59632W        W60497  10.401   8.747  15.924
59633W        W60498   8.518   8.420  16.140
59634W        W60499   8.763   8.682  17.464
59635W        W60500   9.874   9.835  17.327
59636W        W60501   8.524   8.289  17.439
59637W        W60502   8.503  10.755  16.055
59638W        W60503   7.820  10.714  17.689
59639W        W60504   7.932  10.075  14.819
59640W        W60505  10.449   9.833  15.629
59641W        W60506   8.053   8.625  17.515
59642W        W60507  10.826   8.555  14.996
59643W        W60508   8.571   9.612  15.467
59644W        W60509   9.670   8.994  17.548
59645W        W60510   9.561   8.622  17.092
59646W        W60511   8.121   8.994  17.121
59647W        W60512  10.331  10.882  16.950
59648W        W60513  10.122   7.516  17.944
59649W        W60514   7.786   7.666  17.531
59650W        W60515   8.125   8.689  16.584
59651W        W60516   8.494   8.503  14.706
59652W        W60517   7.297  10.262  17.251
59653W        W60518   8.882   8.971  16.694
59654W        W60519   8.705   7.996  14.799
59655W        W60520   7.840   8.812  15.580
59656W        W60521   7.611  10.664  17.017
59657W        W60522  10.406   8.890  15.125
59658W        W60523  10.501   7.806  17.811
59659W        W60524   9.937  10.015  15.774
59660W        W60525   7.535   8.939  17.951
59661W        W60526  10.501   7.403  15.247
59662W        W60527  10.021   9.878  15.258
59663W        W60528   8.923   8.936  15.343
59664W        W60529  10.110   7.740  14.866
59665W        W60530  10.175   8.347  17.052
59666W        W60531   7.884   8.940  16.259
59667W        W60532   8.178   9.879  15.908
59668W        W60533   9.941   8.499  15.873
59669W        W60534   8.964   7.878  16.569
59670W        W60535  10.926   9.789  17.080
59671W        W60536  10.844   7.776  16.641
59672W        W60537   7.383  10.606  16.017
59673W        W60538   7.892   9.793  15.553
59674W        W60539   7.807   7.410  18.106
59675W        W60540   8.926  10.263  18.208
59676W        W60541  10.681   9.231  15.998
59677W        W60542  10.035   9.408  14.878
59678W        W60543   9.330  10.929  17.090
59679W        W60544  10.187   9.651  18.127
59680W        W60545   9.002   7.361  15.407
59681W        W60546   9.715   8.230  16.266
59682W        W60547   7.401   9.817  16.598
59683W        W60548   8.654   7.779  15.239
59684W        W60549   8.458   9.263  18.088
59685W        W60550   9.452   8.244  15.802
59686W        W60551   9.657   9.654  16.924
59687W        W60552   7.811  10.259  17.359
59688W        W60553   8.402  10.242  18.082
59689W        W60554   8.253   8.039  15.096
59690W        W60555   9.770   8.181  15.421
59691W        W60556   9.728  10.289  17.658
59692W        W60557   8.413   8.881  16.257
59693W        W60558   8.068  10.579  17.122
59694W        W60559  10.813  10.696  14.723
59695W        W60560   7.676   9.368  17.719
59696W        W60561   9.671   9.630  16.407
59697W        W60562   8.107   9.279  15.649
59698W        W60563   8.478  10.286  17.044
59699W        W60564   8.856   7.705  16.085
59700W        W60565   7.467   9.689  15.015
59701W        W60566   8.986   8.640  14.885
59702W        W60567   7.632   9.189  15.904
59703W        W60568   8.922   7.831  17.368
59704W        W60569  10.594   7.540  14.795
59705W        W60570  10.687   9.286  17.894
59706W        W60571   9.341  10.543  18.046
59707W        W60572  10.899   9.637  17.568
59708W        W60573  10.307  10.435  18.179
59709W        W60574   8.046  10.891  16.657
59710W        W60575  10.905   9.513  15.531
59711W        W60576   9.435   8.780  16.044
59712W        W60577   9.202   7.392  15.934
59713W        W60578   8.261  10.376  15.771
59714W        W60579   8.760   8.117  16.996
59715W        W60580   8.460   7.486  16.465
59716W        W60581   7.523  10.308  15.013
59717W        W60582   9.339   9.672  15.731
59718W        W60583   8.214  10.467  17.610
59719W        W60584   7.691   9.290  15.306
59720W        W60585   7.576   7.833  16.305
59721W        W60586   9.124   9.798  16.362
59722W        W60587   7.376   7.652  15.382
59723W        W60588  10.040   8.858  17.309
59724W        W60589   9.917   8.244  14.881
59725W        W60590  10.434   9.916  16.529
59726W        W60591   9.095  10.400  16.360
59727W        W60592   8.507  10.504  15.271
59728W        W60593   9.789   7.407  14.701
59729W        W60594   7.589  10.667  16.442
59730W        W60595   9.786   8.425  18.077
59731W        W60596   7.769   7.955  18.076
59732W        W60597   7.500   8.555  15.409
59733W        W60598   8.191   8.544  15.134
59734W        W60599   9.954   8.871  17.951
59735W        W60600   8.297   9.152  16.660
59736W        W60601   9.771   7.438  15.780
59737W        W60602   8.902  10.869  16.283
59738W        W60603  10.116  10.331  17.220
59739W        W60604   9.700  10.480  16.331
59740W        W60605   9.719   9.460  15.925
59741W        W60606   9.181   7.685  14.996
59742W        W60607  10.862   7.313  15.718
59743W        W60608   8.550   8.948  14.881
59744W        W60609  10.716   8.285  15.871
59745W        W60610   9.408   9.455  14.748
59746W        W60611  10.344   9.655  17.496
59747W        W60612   9.998  10.356  14.963
59748W        W60613   8.613   8.031  17.869
59749W        W60614   8.433   8.615  17.110
59750W        W60615  10.525  10.110  17.387
59751W        W60616   9.625   8.060  17.764
59752W        W60617   7.469   8.531  17.541
59753W        W60618   9.229   9.008  17.267
59754W        W60619   7.586   9.766  15.924
59755W        W60620   7.733   9.063  16.814
59756W        W60621  10.050   9.349  17.164
59757W        W60622   9.822  10.729  17.975
59758W        W60623   9.718   8.468  17.528
59759W        W60624   9.995  10.522  15.933
59760W        W60625   8.997  10.242  17.256
59761W        W60626   8.482  10.597  16.525
59762W        W60627  10.287   9.768  16.944
59763W        W60628   9.337   9.840  18.081
59764W        W60629   7.942   9.793  16.420
59765W        W60630  10.288   9.552  16.065
59766W        W60631   9.929  10.618  16.816
59767W        W60632   7.907  10.347  16.686
59768W        W60633   8.928   8.399  17.896
59769W        W60634   9.379  10.565  15.407
59770W        W60635   8.687   9.820  18.045
59771W        W60636   8.813  10.058  15.422
59772W        W60637   8.034   8.798  14.681
59773W        W60638   7.373  10.884  21.580
59774W        W60639   7.749   9.777  21.103
59775W        W60640  10.454   9.507  18.873
59776W        W60641  10.584  10.592  20.900
59777W        W60642   8.502  10.583  18.426
59778W        W60643   8.585   8.735  19.409
59779W        W60644   8.100   8.583  19.573
59780W        W60645   9.091   9.398  19.007
59781W        W60646   8.766  10.490  21.362
59782W        W60647   7.415   8.051  21.325
59783W        W60648   8.177   7.331  21.127
59784W        W60649   9.871   7.719  20.014
59785W        W60650   9.520   8.590  18.584
59786W        W60651  10.090   8.024  21.675
59787W        W60652   7.456   7.816  20.800
59788W        W60653   7.555  10.435  21.821
59789W        W60654   9.077   9.825  18.553
59790W        W60655   7.509   8.608  20.246
59791W        W60656   8.402   8.499  21.483
59792W        W60657  10.861   8.358  19.982
59793W        W60658  10.625   9.401  20.841
59794W        W60659   8.933   8.734  19.868
59795W        W60660   9.479  10.073  20.237
59796W        W60661   7.979   9.507  20.469
59797W        W60662   7.338   9.035  20.040
59798W        W60663   8.374   9.007  21.232
59799W        W60664  10.645   8.790  21.486
59800W        W60665   8.261  10.234  19.931
59801W        W60666   9.382   9.923  21.065
59802W        W60667   8.602   8.563  20.290
59803W        W60668   8.894   9.347  19.933
59804W        W60669   9.891  10.120  21.781
59805W        W60670   8.970   9.440  21.791
59806W        W60671   8.951   9.156  21.269
59807W        W60672   7.360   8.547  21.791
59808W        W60673  10.192  10.082  21.390
59809W        W60674   7.773   7.664  19.388
59810W        W60675   8.300   9.922  20.387
59811W        W60676  10.763   9.705  19.677
59812W        W60677  10.176   8.105  20.244
59813W        W60678  10.461   8.058  18.339
59814W        W60679  10.926   8.859  20.645
59815W        W60680   8.893  10.566  20.398
59816W        W60681  10.667  10.032  18.836
59817W        W60682   7.796  10.818  18.590
59818W        W60683   8.189  10.864  19.266
59819W        W60684   7.986   7.618  20.692
59820W        W60685  10.609   8.636  20.967
59821W        W60686  10.014   9.058  19.426
59822W        W60687   9.980   8.746  18.453
59823W        W60688   9.188   9.890  20.593
59824W        W60689   8.994   8.220  19.792
59825W        W60690   9.594  10.307  20.786
59826W        W60691  10.465   9.098  19.208
59827W        W60692   9.367   7.756  19.224
59828W        W60693   8.024  10.450  18.907
59829W        W60694   7.395   7.949  19.506
59830W        W60695  10.181   8.556  19.980
59831W        W60696   7.639  10.173  19.895
59832W        W60697   8.980  10.523  18.765
59833W        W60698  10.372   8.549  18.229
59834W        W60699   7.395  10.307  20.393
59835W        W60700   8.186   9.879  20.873
59836W        W60701   8.559   9.239  19.492
59837W        W60702   8.581   7.644  20.585
59838W        W60703  10.810   7.406  19.882
59839W        W60704   8.029   9.278  18.350
59840W        W60705   7.684   8.311  18.529
59841W        W60706   7.746  10.267  19.323
59842W        W60707   8.877   9.750  19.571
59843W        W60708  10.209  10.609  21.285
59844W        W60709   9.135   8.251  18.969
59845W        W60710  10.518  10.649  19.741
59846W        W60711  10.195   8.502  21.339
59847W        W60712  10.908  10.158  19.473
59848W        W60713   9.535   9.450  20.957
59849W        W60714   7.301   9.001  19.163
59850W        W60715   8.412   9.416  20.736
59851W        W60716   9.616   8.680  19.114
59852W        W60717   9.493   9.170  19.218
59853W        W60718   7.836   8.590  20.692
59854W        W60719   7.821   8.466  21.614
59855W        W60720   7.711   7.383  19.773
59856W        W60721   9.479   7.730  20.334
59857W        W60722   9.127   7.915  21.497
59858W        W60723   9.482   8.064  18.675
59859W        W60724  10.665  10.457  21.429
59860W        W60725   9.632   7.538  21.468
59861W        W60726  10.651   9.839  21.590
59862W        W60727  10.081   8.006  21.186
59863W        W60728   9.881   7.944  19.456
59864W        W60729  10.274   9.078  21.860
59865W        W60730   8.014  10.654  19.846
59866W        W60731   8.672   8.371  18.832
59867W        W60732   8.241   7.655  21.496
59868W        W60733  10.293   8.139  19.177
59869W        W60734  10.660   8.621  19.122
59870W        W60735   8.403  10.838  21.593
59871W        W60736   8.329   7.374  18.828
59872W        W60737  10.650   7.908  19.863
59873W        W60738  10.800  10.157  18.308
59874W        W60739   7.707   9.360  20.010
59875W        W60740   9.624   7.947  18.240
59876W        W60741  10.758  10.279  19.960
59877W        W60742  10.797   7.473  20.710
59878W        W60743   9.242   8.685  21.264
59879W        W60744   9.335  10.024  18.967
59880W        W60745   9.735   9.318  21.707
59881W        W60746   9.409   7.295  20.016
59882W        W60747   8.021   8.198  20.079
59883W        W60748   7.575   9.398  20.853
59884W        W60749   9.434  10.591  19.559
59885W        W60750  10.628   8.188  20.431
59886W        W60751   9.265  10.535  21.198
59887W        W60752  10.608   9.594  18.403
59888W        W60753   9.043   9.077  19.464
59889W        W60754  10.895   7.588  21.205
59890W        W60755   9.044   9.423  20.799
59891W        W60756   9.261   8.309  20.244
59892W        W60757  10.113   8.607  19.082
59893W        W60758  10.400   8.340  18.724
59894W        W60759  10.209  10.380  19.113
59895W        W60760  10.043   9.983  19.909
59896W        W60761   9.939   9.062  18.887
59897W        W60762   9.372   9.272  19.873
59898W        W60763  10.253   9.060  19.940
59899W        W60764   7.628   8.075  20.364
59900W        W60765  10.406   9.127  21.191
59901W        W60766  10.757  10.745  20.337
59902W        W60767   8.687  10.189  19.739
59903W        W60768   9.694  10.722  21.063
59904W        W60769   9.688   8.052  20.827
59905W        W60770   8.895  10.760  20.888
59906W        W60771  10.592   7.714  19.354
59907W        W60772  10.383   9.033  20.655
59908W        W60773   7.366   8.354  20.693
59909W        W60774  10.226   8.149  19.711
59910W        W60775  10.637   8.300  21.488
59911W        W60776   9.522   9.999  19.706
59912W        W60777   8.778  10.590  19.319
59913W        W60778   7.893   7.770  18.577
59914W        W60779   8.997   7.424  20.387
59915W        W60780   8.025  10.544  18.235
59916W        W60781   8.399   9.010  18.986
59917W        W60782   9.053   9.639  21.299
59918W        W60783   8.883   7.997  19.289
59919W        W60784  10.239   7.594  19.717
59920W        W60785   9.959  10.876  20.045
59921W        W60786   9.371  10.524  20.385
59922W        W60787   8.767   9.561  20.346
59923W        W60788  10.537  10.284  20.472
59924W        W60789   8.231   7.787  19.241
59925W        W60790   8.753  10.084  20.201
59926W        W60791   8.236   8.015  18.266
59927W        W60792   9.037   8.624  20.660
59928W        W60793   9.885   7.490  20.530
59929W        W60794   7.305   9.333  20.415
59930W        W60795   9.009   9.151  18.573
59931W        W60796   8.277   7.466  18.343
59932W        W60797   9.015   8.547  19.394
59933W        W60798   9.985   7.523  21.093
59934W        W60799   8.573   9.535  21.202
59935W        W60800   9.377   9.317  21.419
59936W        W60801   9.994   9.347  21.312
59937W        W60802   9.278   7.487  21.817
59938W        W60803   8.500   8.103  20.210
59939W        W60804   7.926   8.059  19.608
59940W        W60805   7.712  10.771  19.284
59941W        W60806   9.044  10.101  21.409
59942W        W60807   8.079   9.586  18.768
59943W        W60808   9.759   8.971  19.989
59944W        W60809  10.039   8.770  20.388
59945W        W60810   9.244   9.444  20.322
59946W        W60811   9.714   9.818  18.454
59947W        W60812   9.386   7.839  19.782
59948W        W60813  10.865   8.117  19.050
59949W        W60814   7.359  10.706  21.081
59950W        W60815   7.776   9.932  20.613
59951W        W60816   7.343  10.778  18.845
59952W        W60817   9.242   8.048  20.651
59953W        W60818   8.605  10.071  18.500
59954W        W60819  10.510  10.453  18.686
59955W        W60820   9.485   9.106  18.700
59956W        W60821   8.328   8.297  19.217
59957W        W60822   9.160   8.207  18.269
59958W        W60823   9.744   9.772  21.447
59959W        W60824  10.097   7.678  19.064
59960W        W60825   7.427   7.526  18.512
59961W        W60826   8.713   9.845  20.802
59962W        W60827   8.512   9.761  19.894
59963W        W60828   8.254   9.713  18.292
59964W        W60829   7.495   9.954  19.060
59965W        W60830   7.999   9.024  21.502
59966W        W60831   8.703   7.584  21.688
59967W        W60832   9.412   7.726  21.044
59968W        W60833   8.607   7.494  19.325
59969W        W60834   9.666   7.571  18.830
59970W        W60835   7.611   7.503  20.407
59971W        W60836   7.659   8.466  19.777
59972W        W60837  10.348   7.574  20.183
59973W        W60838   7.770   8.072  18.997
59974W        W60839  10.341   7.760  20.613
59975W        W60840  10.737   8.963  18.298
59976W        W60841   8.029   7.721  20.117
59977W        W60842   9.143   8.293  21.057
59978W        W60843   7.291   7.983  18.535
59979W        W60844   8.077   9.372  21.096
59980W        W60845   9.435   8.770  20.275
59981W        W60846   9.302  10.849  18.571
59982W        W60847   7.448   9.356  18.268
59983W        W60848   8.183   9.767  21.394
59984W        W60849   7.704   8.934  21.025
59985W        W60850   8.695   9.039  20.819
59986W        W60851  10.463   7.398  21.081
59987W        W60852  10.861   9.008  21.072
59988W        W60853  10.849   9.208  18.758
59989W        W60854   9.712   9.540  18.857
59990W        W60855  10.186  10.840  18.552
59991W        W60856   9.363   8.830  21.694
59992W        W60857   7.693   9.797  21.734
59993W        W60858  10.899   7.719  21.686
59994W        W60859  10.617   8.647  20.307
59995W        W60860   8.925  10.777  21.784
59996W        W60861   8.780   7.406  18.511
59997W        W60862  10.319  10.005  18.454
59998W        W60863   8.088   8.098  21.340
59999W        W60864   8.522  10.092  21.202
60000W        W60865  10.648   8.083  21.000
60001W        W60866   9.859  10.742  18.968
60002W        W60867  10.098   9.361  20.335
60003W        W60868   8.348   7.777  21.002
60004W        W60869   8.817   8.846  21.759
60005W        W60870   8.320  10.025  18.953
60006W        W60871  10.075   9.523  19.217
60007W        W60872   7.843   8.149  20.941
60008W        W60873   9.172  10.211  19.405
60009W        W60874  10.922   8.771  19.586
60010W        W60875   9.144   7.404  21.305
60011W        W60876   9.924  10.109  20.384
60012W        W60877  10.227  10.453  20.092
60013W        W60878   9.446  10.255  18.520
60014W        W60879   7.456  10.147  21.362
60015W        W60880   8.199   8.139  20.600
60016W        W60881   8.169   7.487  19.710
60017W        W60882   9.790   8.329  20.402
60018W        W60883   8.588   9.500  18.602
60019W        W60884  10.586   9.442  20.101
60020W        W60885   7.913  10.200  21.524
60021W        W60886  10.300  10.882  19.321
60022W        W60887   8.399   7.902  19.766
60023W        W60888   8.168   9.395  19.856
60024W        W60889   8.481  10.806  20.606
60025W        W60890  10.548  10.902  21.638
60026W        W60891   9.707   9.090  20.571
60027W        W60892   7.556   8.888  18.486
60028W        W60893  10.690  10.546  19.183
60029W        W60894  10.527   7.870  18.802
60030W        W60895   8.666   7.389  21.205
60031W        W60896  10.372  10.191  19.663
60032W        W60897  10.401   8.747  19.568
60033W        W60898   8.518   8.420  19.784
60034W        W60899   8.763   8.682  21.108
60035W        W60900   9.874   9.835  20.971
60036W        W60901   8.524   8.289  21.083
60037W        W60902   8.503  10.755  19.699
60038W        W60903   7.820  10.714  21.333
60039W        W60904   7.932  10.075  18.463
60040W        W60905  10.449   9.833  19.273
60041W        W60906   8.053   8.625  21.159
60042W        W60907  10.826   8.555  18.640
60043W        W60908   8.571   9.612  19.111
60044W        W60909   9.670   8.994  21.192
60045W        W60910   9.561   8.622  20.736
60046W        W60911   8.121   8.994  20.765
60047W        W60912  10.331  10.882  20.594
60048W        W60913  10.122   7.516  21.588
60049W        W60914   7.786   7.666  21.175
60050W        W60915   8.125   8.689  20.228
60051W        W60916   8.494   8.503  18.350
60052W        W60917   7.297  10.262  20.895
60053W        W60918   8.882   8.971  20.338
60054W        W60919   8.705   7.996  18.443
60055W        W60920   7.840   8.812  19.224
60056W        W60921   7.611  10.664  20.661
60057W        W60922  10.406   8.890  18.769
60058W        W60923  10.501   7.806  21.455
60059W        W60924   9.937  10.015  19.418
60060W        W60925   7.535   8.939  21.595
60061W        W60926  10.501   7.403  18.891
60062W        W60927  10.021   9.878  18.902
60063W        W60928   8.923   8.936  18.987
60064W        W60929  10.110   7.740  18.510
60065W        W60930  10.175   8.347  20.696
60066W        W60931   7.884   8.940  19.903
60067W        W60932   8.178   9.879  19.552
60068W        W60933   9.941   8.499  19.517
60069W        W60934   8.964   7.878  20.213
60070W        W60935  10.926   9.789  20.724
60071W        W60936  10.844   7.776  20.285
60072W        W60937   7.383  10.606  19.661
60073W        W60938   7.892   9.793  19.197
60074W        W60939   7.807   7.410  21.750
60075W        W60940   8.926  10.263  21.852
60076W        W60941  10.681   9.231  19.642
60077W        W60942  10.035   9.408  18.522
60078W        W60943   9.330  10.929  20.734
60079W        W60944  10.187   9.651  21.771
60080W        W60945   9.002   7.361  19.051
60081W        W60946   9.715   8.230  19.910
60082W        W60947   7.401   9.817  20.242
60083W        W60948   8.654   7.779  18.883
60084W        W60949   8.458   9.263  21.732
60085W        W60950   9.452   8.244  19.446
60086W        W60951   9.657   9.654  20.568
60087W        W60952   7.811  10.259  21.003
60088W        W60953   8.402  10.242  21.726
60089W        W60954   8.253   8.039  18.740
60090W        W60955   9.770   8.181  19.065
60091W        W60956   9.728  10.289  21.302
60092W        W60957   8.413   8.881  19.901
60093W        W60958   8.068  10.579  20.766
60094W        W60959  10.813  10.696  18.367
60095W        W60960   7.676   9.368  21.363
60096W        W60961   9.671   9.630  20.051
60097W        W60962   8.107   9.279  19.293
60098W        W60963   8.478  10.286  20.688
60099W        W60964   8.856   7.705  19.729
60100W        W60965   7.467   9.689  18.659
60101W        W60966   8.986   8.640  18.529
60102W        W60967   7.632   9.189  19.548
60103W        W60968   8.922   7.831  21.012
60104W        W60969  10.594   7.540  18.439
60105W        W60970  10.687   9.286  21.538
60106W        W60971   9.341  10.543  21.690
60107W        W60972  10.899   9.637  21.212
60108W        W60973  10.307  10.435  21.823
60109W        W60974   8.046  10.891  20.301
60110W        W60975  10.905   9.513  19.175
60111W        W60976   9.435   8.780  19.688
60112W        W60977   9.202   7.392  19.578
60113W        W60978   8.261  10.376  19.415
60114W        W60979   8.760   8.117  20.640
60115W        W60980   8.460   7.486  20.109
60116W        W60981   7.523  10.308  18.657
60117W        W60982   9.339   9.672  19.375
60118W        W60983   8.214  10.467  21.254
60119W        W60984   7.691   9.290  18.950
60120W        W60985   7.576   7.833  19.949
60121W        W60986   9.124   9.798  20.006
60122W        W60987   7.376   7.652  19.026
60123W        W60988  10.040   8.858  20.953
60124W        W60989   9.917   8.244  18.525
60125W        W60990  10.434   9.916  20.173
60126W        W60991   9.095  10.400  20.004
60127W        W60992   8.507  10.504  18.915
60128W        W60993   9.789   7.407  18.345
60129W        W60994   7.589  10.667  20.086
60130W        W60995   9.786   8.425  21.721
60131W        W60996   7.769   7.955  21.720
60132W        W60997   7.500   8.555  19.053
60133W        W60998   8.191   8.544  18.778
60134W        W60999   9.954   8.871  21.595
60135W        W61000   8.297   9.152  20.304
60136W        W61001   9.771   7.438  19.424
60137W        W61002   8.902  10.869  19.927
60138W        W61003  10.116  10.331  20.864
60139W        W61004   9.700  10.480  19.975
60140W        W61005   9.719   9.460  19.569
60141W        W61006   9.181   7.685  18.640
60142W        W61007  10.862   7.313  19.362
60143W        W61008   8.550   8.948  18.525
60144W        W61009  10.716   8.285  19.515
60145W        W61010   9.408   9.455  18.392
60146W        W61011  10.344   9.655  21.140
60147W        W61012   9.998  10.356  18.607
60148W        W61013   8.613   8.031  21.513
60149W        W61014   8.433   8.615  20.754
60150W        W61015  10.525  10.110  21.031
60151W        W61016   9.625   8.060  21.408
60152W        W61017   7.469   8.531  21.185
60153W        W61018   9.229   9.008  20.911
60154W        W61019   7.586   9.766  19.568
60155W        W61020   7.733   9.063  20.458
60156W        W61021  10.050   9.349  20.808
60157W        W61022   9.822  10.729  21.619
60158W        W61023   9.718   8.468  21.172
60159W        W61024   9.995  10.522  19.577
60160W        W61025   8.997  10.242  20.900
60161W        W61026   8.482  10.597  20.169
60162W        W61027  10.287   9.768  20.588
60163W        W61028   9.337   9.840  21.725
60164W        W61029   7.942   9.793  20.064
60165W        W61030  10.288   9.552  19.709
60166W        W61031   9.929  10.618  20.460
60167W        W61032   7.907  10.347  20.330
60168W        W61033   8.928   8.399  21.540
60169W        W61034   9.379  10.565  19.051
60170W        W61035   8.687   9.820  21.689
60171W        W61036   8.813  10.058  19.066
60172W        W61037   8.034   8.798  18.325
60173W        W61038   7.373  10.884  25.225
60174W        W61039   7.749   9.777  24.748
60175W        W61040  10.454   9.507  22.518
60176W        W61041  10.584  10.592  24.545
60177W        W61042   8.502  10.583  22.071
60178W        W61043   8.585   8.735  23.054
60179W        W61044   8.100   8.583  23.218
60180W        W61045   9.091   9.398  22.652
60181W        W61046   8.766  10.490  25.007
60182W        W61047   7.415   8.051  24.970
60183W        W61048   8.177   7.331  24.772
60184W        W61049   9.871   7.719  23.659
60185W        W61050   9.520   8.590  22.229
60186W        W61051  10.090   8.024  25.320
60187W        W61052   7.456   7.816  24.445
60188W        W61053   7.555  10.435  25.466
60189W        W61054   9.077   9.825  22.198
60190W        W61055   7.509   8.608  23.891
60191W        W61056   8.402   8.499  25.128
60192W        W61057  10.861   8.358  23.627
60193W        W61058  10.625   9.401  24.486
60194W        W61059   8.933   8.734  23.513
60195W        W61060   9.479  10.073  23.882
60196W        W61061   7.979   9.507  24.114
60197W        W61062   7.338   9.035  23.685
60198W        W61063   8.374   9.007  24.877
60199W        W61064  10.645   8.790  25.131
60200W        W61065   8.261  10.234  23.576
60201W        W61066   9.382   9.923  24.710
60202W        W61067   8.602   8.563  23.935
60203W        W61068   8.894   9.347  23.578
60204W        W61069   9.891  10.120  25.426
60205W        W61070   8.970   9.440  25.436
60206W        W61071   8.951   9.156  24.914
60207W        W61072   7.360   8.547  25.436
60208W        W61073  10.192  10.082  25.035
60209W        W61074   7.773   7.664  23.033
60210W        W61075   8.300   9.922  24.032
60211W        W61076  10.763   9.705  23.322
60212W        W61077  10.176   8.105  23.889
60213W        W61078  10.461   8.058  21.984
60214W        W61079  10.926   8.859  24.290
60215W        W61080   8.893  10.566  24.043
60216W        W61081  10.667  10.032  22.481
60217W        W61082   7.796  10.818  22.235
60218W        W61083   8.189  10.864  22.911
60219W        W61084   7.986   7.618  24.337
60220W        W61085  10.609   8.636  24.612
60221W        W61086  10.014   9.058  23.071
60222W        W61087   9.980   8.746  22.098
60223W        W61088   9.188   9.890  24.238
60224W        W61089   8.994   8.220  23.437
60225W        W61090   9.594  10.307  24.431
60226W        W61091  10.465   9.098  22.853
60227W        W61092   9.367   7.756  22.869
60228W        W61093   8.024  10.450  22.552
60229W        W61094   7.395   7.949  23.151
60230W        W61095  10.181   8.556  23.625
60231W        W61096   7.639  10.173  23.540
60232W        W61097   8.980  10.523  22.410
60233W        W61098  10.372   8.549  21.874
60234W        W61099   7.395  10.307  24.038
60235W        W61100   8.186   9.879  24.518
60236W        W61101   8.559   9.239  23.137
60237W        W61102   8.581   7.644  24.230
60238W        W61103  10.810   7.406  23.527
60239W        W61104   8.029   9.278  21.995
60240W        W61105   7.684   8.311  22.174
60241W        W61106   7.746  10.267  22.968
60242W        W61107   8.877   9.750  23.216
60243W        W61108  10.209  10.609  24.930
60244W        W61109   9.135   8.251  22.614
60245W        W61110  10.518  10.649  23.386
60246W        W61111  10.195   8.502  24.984
60247W        W61112  10.908  10.158  23.118
60248W        W61113   9.535   9.450  24.602
60249W        W61114   7.301   9.001  22.808
60250W        W61115   8.412   9.416  24.381
60251W        W61116   9.616   8.680  22.759
60252W        W61117   9.493   9.170  22.863
60253W        W61118   7.836   8.590  24.337
60254W        W61119   7.821   8.466  25.259
60255W        W61120   7.711   7.383  23.418
60256W        W61121   9.479   7.730  23.979
60257W        W61122   9.127   7.915  25.142
60258W        W61123   9.482   8.064  22.320
60259W        W61124  10.665  10.457  25.074
60260W        W61125   9.632   7.538  25.113
60261W        W61126  10.651   9.839  25.235
60262W        W61127  10.081   8.006  24.831
60263W        W61128   9.881   7.944  23.101
60264W        W61129  10.274   9.078  25.505
60265W        W61130   8.014  10.654  23.491
60266W        W61131   8.672   8.371  22.477
60267W        W61132   8.241   7.655  25.141
60268W        W61133  10.293   8.139  22.822
60269W        W61134  10.660   8.621  22.767
60270W        W61135   8.403  10.838  25.238
60271W        W61136   8.329   7.374  22.473
60272W        W61137  10.650   7.908  23.508
60273W        W61138  10.800  10.157  21.953
60274W        W61139   7.707   9.360  23.655
60275W        W61140   9.624   7.947  21.885
60276W        W61141  10.758  10.279  23.605
60277W        W61142  10.797   7.473  24.355
60278W        W61143   9.242   8.685  24.909
60279W        W61144   9.335  10.024  22.612
60280W        W61145   9.735   9.318  25.352
60281W        W61146   9.409   7.295  23.661
60282W        W61147   8.021   8.198  23.724
60283W        W61148   7.575   9.398  24.498
60284W        W61149   9.434  10.591  23.204
60285W        W61150  10.628   8.188  24.076
60286W        W61151   9.265  10.535  24.843
60287W        W61152  10.608   9.594  22.048
60288W        W61153   9.043   9.077  23.109
60289W        W61154  10.895   7.588  24.850
60290W        W61155   9.044   9.423  24.444
60291W        W61156   9.261   8.309  23.889
60292W        W61157  10.113   8.607  22.727
60293W        W61158  10.400   8.340  22.369
60294W        W61159  10.209  10.380  22.758
60295W        W61160  10.043   9.983  23.554
60296W        W61161   9.939   9.062  22.532
60297W        W61162   9.372   9.272  23.518
60298W        W61163  10.253   9.060  23.585
60299W        W61164   7.628   8.075  24.009
60300W        W61165  10.406   9.127  24.836
60301W        W61166  10.757  10.745  23.982
60302W        W61167   8.687  10.189  23.384
60303W        W61168   9.694  10.722  24.708
60304W        W61169   9.688   8.052  24.472
60305W        W61170   8.895  10.760  24.533
60306W        W61171  10.592   7.714  22.999
60307W        W61172  10.383   9.033  24.300
60308W        W61173   7.366   8.354  24.338
60309W        W61174  10.226   8.149  23.356
60310W        W61175  10.637   8.300  25.133
60311W        W61176   9.522   9.999  23.351
60312W        W61177   8.778  10.590  22.964
60313W        W61178   7.893   7.770  22.222
60314W        W61179   8.997   7.424  24.032
60315W        W61180   8.025  10.544  21.880
60316W        W61181   8.399   9.010  22.631
60317W        W61182   9.053   9.639  24.944
60318W        W61183   8.883   7.997  22.934
60319W        W61184  10.239   7.594  23.362
60320W        W61185   9.959  10.876  23.690
60321W        W61186   9.371  10.524  24.030
60322W        W61187   8.767   9.561  23.991
60323W        W61188  10.537  10.284  24.117
60324W        W61189   8.231   7.787  22.886
60325W        W61190   8.753  10.084  23.846
60326W        W61191   8.236   8.015  21.911
60327W        W61192   9.037   8.624  24.305
60328W        W61193   9.885   7.490  24.175
60329W        W61194   7.305   9.333  24.060
60330W        W61195   9.009   9.151  22.218
60331W        W61196   8.277   7.466  21.988
60332W        W61197   9.015   8.547  23.039
60333W        W61198   9.985   7.523  24.738
60334W        W61199   8.573   9.535  24.847
60335W        W61200   9.377   9.317  25.064
60336W        W61201   9.994   9.347  24.957
60337W        W61202   9.278   7.487  25.462
60338W        W61203   8.500   8.103  23.855
60339W        W61204   7.926   8.059  23.253
60340W        W61205   7.712  10.771  22.929
60341W        W61206   9.044  10.101  25.054
60342W        W61207   8.079   9.586  22.413
60343W        W61208   9.759   8.971  23.634
60344W        W61209  10.039   8.770  24.033
60345W        W61210   9.244   9.444  23.967
60346W        W61211   9.714   9.818  22.099
60347W        W61212   9.386   7.839  23.427
60348W        W61213  10.865   8.117  22.695
60349W        W61214   7.359  10.706  24.726
60350W        W61215   7.776   9.932  24.258
60351W        W61216   7.343  10.778  22.490
60352W        W61217   9.242   8.048  24.296
60353W        W61218   8.605  10.071  22.145
60354W        W61219  10.510  10.453  22.331
60355W        W61220   9.485   9.106  22.345
60356W        W61221   8.328   8.297  22.862
60357W        W61222   9.160   8.207  21.914
60358W        W61223   9.744   9.772  25.092
60359W        W61224  10.097   7.678  22.709
60360W        W61225   7.427   7.526  22.157
60361W        W61226   8.713   9.845  24.447
60362W        W61227   8.512   9.761  23.539
60363W        W61228   8.254   9.713  21.937
60364W        W61229   7.495   9.954  22.705
60365W        W61230   7.999   9.024  25.147
60366W        W61231   8.703   7.584  25.333
60367W        W61232   9.412   7.726  24.689
60368W        W61233   8.607   7.494  22.970
60369W        W61234   9.666   7.571  22.475
60370W        W61235   7.611   7.503  24.052
60371W        W61236   7.659   8.466  23.422
60372W        W61237  10.348   7.574  23.828
60373W        W61238   7.770   8.072  22.642
60374W        W61239  10.341   7.760  24.258
60375W        W61240  10.737   8.963  21.943
60376W        W61241   8.029   7.721  23.762
60377W        W61242   9.143   8.293  24.702
60378W        W61243   7.291   7.983  22.180
60379W        W61244   8.077   9.372  24.741
60380W        W61245   9.435   8.770  23.920
60381W        W61246   9.302  10.849  22.216
60382W        W61247   7.448   9.356  21.913
60383W        W61248   8.183   9.767  25.039
60384W        W61249   7.704   8.934  24.670
60385W        W61250   8.695   9.039  24.464
60386W        W61251  10.463   7.398  24.726
60387W        W61252  10.861   9.008  24.717
60388W        W61253  10.849   9.208  22.403
60389W        W61254   9.712   9.540  22.502
60390W        W61255  10.186  10.840  22.197
60391W        W61256   9.363   8.830  25.339
60392W        W61257   7.693   9.797  25.379
60393W        W61258  10.899   7.719  25.331
60394W        W61259  10.617   8.647  23.952
60395W        W61260   8.925  10.777  25.429
60396W        W61261   8.780   7.406  22.156
60397W        W61262  10.319  10.005  22.099
60398W        W61263   8.088   8.098  24.985
60399W        W61264   8.522  10.092  24.847
60400W        W61265  10.648   8.083  24.645
60401W        W61266   9.859  10.742  22.613
60402W        W61267  10.098   9.361  23.980
60403W        W61268   8.348   7.777  24.647
60404W        W61269   8.817   8.846  25.404
60405W        W61270   8.320  10.025  22.598
60406W        W61271  10.075   9.523  22.862
60407W        W61272   7.843   8.149  24.586
60408W        W61273   9.172  10.211  23.050
60409W        W61274  10.922   8.771  23.231
60410W        W61275   9.144   7.404  24.950
60411W        W61276   9.924  10.109  24.029
60412W        W61277  10.227  10.453  23.737
60413W        W61278   9.446  10.255  22.165
60414W        W61279   7.456  10.147  25.007
60415W        W61280   8.199   8.139  24.245
60416W        W61281   8.169   7.487  23.355
60417W        W61282   9.790   8.329  24.047
60418W        W61283   8.588   9.500  22.247
60419W        W61284  10.586   9.442  23.746
60420W        W61285   7.913  10.200  25.169
60421W        W61286  10.300  10.882  22.966
60422W        W61287   8.399   7.902  23.411
60423W        W61288   8.168   9.395  23.501
60424W        W61289   8.481  10.806  24.251
60425W        W61290  10.548  10.902  25.283
60426W        W61291   9.707   9.090  24.216
60427W        W61292   7.556   8.888  22.131
60428W        W61293  10.690  10.546  22.828
60429W        W61294  10.527   7.870  22.447
60430W        W61295   8.666   7.389  24.850
60431W        W61296  10.372  10.191  23.308
60432W        W61297  10.401   8.747  23.213
60433W        W61298   8.518   8.420  23.429
60434W        W61299   8.763   8.682  24.753
60435W        W61300   9.874   9.835  24.616
60436W        W61301   8.524   8.289  24.728
60437W        W61302   8.503  10.755  23.344
60438W        W61303   7.820  10.714  24.978
60439W        W61304   7.932  10.075  22.108
60440W        W61305  10.449   9.833  22.918
60441W        W61306   8.053   8.625  24.804
60442W        W61307  10.826   8.555  22.285
60443W        W61308   8.571   9.612  22.756
60444W        W61309   9.670   8.994  24.837
60445W        W61310   9.561   8.622  24.381
60446W        W61311   8.121   8.994  24.410
60447W        W61312  10.331  10.882  24.239
60448W        W61313  10.122   7.516  25.233
60449W        W61314   7.786   7.666  24.820
60450W        W61315   8.125   8.689  23.873
60451W        W61316   8.494   8.503  21.995
60452W        W61317   7.297  10.262  24.540
60453W        W61318   8.882   8.971  23.983
60454W        W61319   8.705   7.996  22.088
60455W        W61320   7.840   8.812  22.869
60456W        W61321   7.611  10.664  24.306
60457W        W61322  10.406   8.890  22.414
60458W        W61323  10.501   7.806  25.100
60459W        W61324   9.937  10.015  23.063
60460W        W61325   7.535   8.939  25.240
60461W        W61326  10.501   7.403  22.536
60462W        W61327  10.021   9.878  22.547
60463W        W61328   8.923   8.936  22.632
60464W        W61329  10.110   7.740  22.155
60465W        W61330  10.175   8.347  24.341
60466W        W61331   7.884   8.940  23.548
60467W        W61332   8.178   9.879  23.197
60468W        W61333   9.941   8.499  23.162
60469W        W61334   8.964   7.878  23.858
60470W        W61335  10.926   9.789  24.369
60471W        W61336  10.844   7.776  23.930
60472W        W61337   7.383  10.606  23.306
60473W        W61338   7.892   9.793  22.842
60474W        W61339   7.807   7.410  25.395
60475W        W61340   8.926  10.263  25.497
60476W        W61341  10.681   9.231  23.287
60477W        W61342  10.035   9.408  22.167
60478W        W61343   9.330  10.929  24.379
60479W        W61344  10.187   9.651  25.416
60480W        W61345   9.002   7.361  22.696
60481W        W61346   9.715   8.230  23.555
60482W        W61347   7.401   9.817  23.887
60483W        W61348   8.654   7.779  22.528
60484W        W61349   8.458   9.263  25.377
60485W        W61350   9.452   8.244  23.091
60486W        W61351   9.657   9.654  24.213
60487W        W61352   7.811  10.259  24.648
60488W        W61353   8.402  10.242  25.371
60489W        W61354   8.253   8.039  22.385
60490W        W61355   9.770   8.181  22.710
60491W        W61356   9.728  10.289  24.947
60492W        W61357   8.413   8.881  23.546
60493W        W61358   8.068  10.579  24.411
60494W        W61359  10.813  10.696  22.012
60495W        W61360   7.676   9.368  25.008
60496W        W61361   9.671   9.630  23.696
60497W        W61362   8.107   9.279  22.938
60498W        W61363   8.478  10.286  24.333
60499W        W61364   8.856   7.705  23.374
60500W        W61365   7.467   9.689  22.304
60501W        W61366   8.986   8.640  22.174
60502W        W61367   7.632   9.189  23.193
60503W        W61368   8.922   7.831  24.657
60504W        W61369  10.594   7.540  22.084
60505W        W61370  10.687   9.286  25.183
60506W        W61371   9.341  10.543  25.335
60507W        W61372  10.899   9.637  24.857
60508W        W61373  10.307  10.435  25.468
60509W        W61374   8.046  10.891  23.946
60510W        W61375  10.905   9.513  22.820
60511W        W61376   9.435   8.780  23.333
60512W        W61377   9.202   7.392  23.223
60513W        W61378   8.261  10.376  23.060
60514W        W61379   8.760   8.117  24.285
60515W        W61380   8.460   7.486  23.754
60516W        W61381   7.523  10.308  22.302
60517W        W61382   9.339   9.672  23.020
60518W        W61383   8.214  10.467  24.899
60519W        W61384   7.691   9.290  22.595
60520W        W61385   7.576   7.833  23.594
60521W        W61386   9.124   9.798  23.651
60522W        W61387   7.376   7.652  22.671
60523W        W61388  10.040   8.858  24.598
60524W        W61389   9.917   8.244  22.170
60525W        W61390  10.434   9.916  23.818
60526W        W61391   9.095  10.400  23.649
60527W        W61392   8.507  10.504  22.560
60528W        W61393   9.789   7.407  21.990
60529W        W61394   7.589  10.667  23.731
60530W        W61395   9.786   8.425  25.366
60531W        W61396   7.769   7.955  25.365
60532W        W61397   7.500   8.555  22.698
60533W        W61398   8.191   8.544  22.423
60534W        W61399   9.954   8.871  25.240
60535W        W61400   8.297   9.152  23.949
60536W        W61401   9.771   7.438  23.069
60537W        W61402   8.902  10.869  23.572
60538W        W61403  10.116  10.331  24.509
60539W        W61404   9.700  10.480  23.620
60540W        W61405   9.719   9.460  23.214
60541W        W61406   9.181   7.685  22.285
60542W        W61407  10.862   7.313  23.007
60543W        W61408   8.550   8.948  22.170
60544W        W61409  10.716   8.285  23.160
60545W        W61410   9.408   9.455  22.037
60546W        W61411  10.344   9.655  24.785
60547W        W61412   9.998  10.356  22.252
60548W        W61413   8.613   8.031  25.158
60549W        W61414   8.433   8.615  24.399
60550W        W61415  10.525  10.110  24.676
60551W        W61416   9.625   8.060  25.053
60552W        W61417   7.469   8.531  24.830
60553W        W61418   9.229   9.008  24.556
60554W        W61419   7.586   9.766  23.213
60555W        W61420   7.733   9.063  24.103
60556W        W61421  10.050   9.349  24.453
60557W        W61422   9.822  10.729  25.264
60558W        W61423   9.718   8.468  24.817
60559W        W61424   9.995  10.522  23.222
60560W        W61425   8.997  10.242  24.545
60561W        W61426   8.482  10.597  23.814
60562W        W61427  10.287   9.768  24.233
60563W        W61428   9.337   9.840  25.370
60564W        W61429   7.942   9.793  23.709
60565W        W61430  10.288   9.552  23.354
60566W        W61431   9.929  10.618  24.105
60567W        W61432   7.907  10.347  23.975
60568W        W61433   8.928   8.399  25.185
60569W        W61434   9.379  10.565  22.696
60570W        W61435   8.687   9.820  25.334
60571W        W61436   8.813  10.058  22.711
60572W        W61437   8.034   8.798  21.970
60573W        W61438   7.373  10.884  28.869
60574W        W61439   7.749   9.777  28.392
60575W        W61440  10.454   9.507  26.162
60576W        W61441  10.584  10.592  28.189
60577W        W61442   8.502  10.583  25.715
60578W        W61443   8.585   8.735  26.698
60579W        W61444   8.100   8.583  26.862
60580W        W61445   9.091   9.398  26.296
60581W        W61446   8.766  10.490  28.651
60582W        W61447   7.415   8.051  28.614
60583W        W61448   8.177   7.331  28.416
60584W        W61449   9.871   7.719  27.303
60585W        W61450   9.520   8.590  25.873
60586W        W61451  10.090   8.024  28.964
60587W        W61452   7.456   7.816  28.089
60588W        W61453   7.555  10.435  29.110
60589W        W61454   9.077   9.825  25.842
60590W        W61455   7.509   8.608  27.535
60591W        W61456   8.402   8.499  28.772
60592W        W61457  10.861   8.358  27.271
60593W        W61458  10.625   9.401  28.130
60594W        W61459   8.933   8.734  27.157
60595W        W61460   9.479  10.073  27.526
60596W        W61461   7.979   9.507  27.758
60597W        W61462   7.338   9.035  27.329
60598W        W61463   8.374   9.007  28.521
60599W        W61464  10.645   8.790  28.775
60600W        W61465   8.261  10.234  27.220
60601W        W61466   9.382   9.923  28.354
60602W        W61467   8.602   8.563  27.579
60603W        W61468   8.894   9.347  27.222
60604W        W61469   9.891  10.120  29.070
60605W        W61470   8.970   9.440  29.080
60606W        W61471   8.951   9.156  28.558
60607W        W61472   7.360   8.547  29.080
60608W        W61473  10.192  10.082  28.679
60609W        W61474   7.773   7.664  26.677
60610W        W61475   8.300   9.922  27.676
60611W        W61476  10.763   9.705  26.966
60612W        W61477  10.176   8.105  27.533
60613W        W61478  10.461   8.058  25.628
60614W        W61479  10.926   8.859  27.934
60615W        W61480   8.893  10.566  27.687
60616W        W61481  10.667  10.032  26.125
60617W        W61482   7.796  10.818  25.879
60618W        W61483   8.189  10.864  26.555
60619W        W61484   7.986   7.618  27.981
60620W        W61485  10.609   8.636  28.256
60621W        W61486  10.014   9.058  26.715
60622W        W61487   9.980   8.746  25.742
60623W        W61488   9.188   9.890  27.882
60624W        W61489   8.994   8.220  27.081
60625W        W61490   9.594  10.307  28.075
60626W        W61491  10.465   9.098  26.497
60627W        W61492   9.367   7.756  26.513
60628W        W61493   8.024  10.450  26.196
60629W        W61494   7.395   7.949  26.795
60630W        W61495  10.181   8.556  27.269
60631W        W61496   7.639  10.173  27.184
60632W        W61497   8.980  10.523  26.054
60633W        W61498  10.372   8.549  25.518
60634W        W61499   7.395  10.307  27.682
60635W        W61500   8.186   9.879  28.162
60636W        W61501   8.559   9.239  26.781
60637W        W61502   8.581   7.644  27.874
60638W        W61503  10.810   7.406  27.171
60639W        W61504   8.029   9.278  25.639
60640W        W61505   7.684   8.311  25.818
60641W        W61506   7.746  10.267  26.612
60642W        W61507   8.877   9.750  26.860
60643W        W61508  10.209  10.609  28.574
60644W        W61509   9.135   8.251  26.258
60645W        W61510  10.518  10.649  27.030
60646W        W61511  10.195   8.502  28.628
60647W        W61512  10.908  10.158  26.762
60648W        W61513   9.535   9.450  28.246
60649W        W61514   7.301   9.001  26.452
60650W        W61515   8.412   9.416  28.025
60651W        W61516   9.616   8.680  26.403
60652W        W61517   9.493   9.170  26.507
60653W        W61518   7.836   8.590  27.981
60654W        W61519   7.821   8.466  28.903
60655W        W61520   7.711   7.383  27.062
60656W        W61521   9.479   7.730  27.623
60657W        W61522   9.127   7.915  28.786
60658W        W61523   9.482   8.064  25.964
60659W        W61524  10.665  10.457  28.718
60660W        W61525   9.632   7.538  28.757
60661W        W61526  10.651   9.839  28.879
60662W        W61527  10.081   8.006  28.475
60663W        W61528   9.881   7.944  26.745
60664W        W61529  10.274   9.078  29.149
60665W        W61530   8.014  10.654  27.135
60666W        W61531   8.672   8.371  26.121
60667W        W61532   8.241   7.655  28.785
60668W        W61533  10.293   8.139  26.466
60669W        W61534  10.660   8.621  26.411
60670W        W61535   8.403  10.838  28.882
60671W        W61536   8.329   7.374  26.117
60672W        W61537  10.650   7.908  27.152
60673W        W61538  10.800  10.157  25.597
60674W        W61539   7.707   9.360  27.299
60675W        W61540   9.624   7.947  25.529
60676W        W61541  10.758  10.279  27.249
60677W        W61542  10.797   7.473  27.999
60678W        W61543   9.242   8.685  28.553
60679W        W61544   9.335  10.024  26.256
60680W        W61545   9.735   9.318  28.996
60681W        W61546   9.409   7.295  27.305
60682W        W61547   8.021   8.198  27.368
60683W        W61548   7.575   9.398  28.142
60684W        W61549   9.434  10.591  26.848
60685W        W61550  10.628   8.188  27.720
60686W        W61551   9.265  10.535  28.487
60687W        W61552  10.608   9.594  25.692
60688W        W61553   9.043   9.077  26.753
60689W        W61554  10.895   7.588  28.494
60690W        W61555   9.044   9.423  28.088
60691W        W61556   9.261   8.309  27.533
60692W        W61557  10.113   8.607  26.371
60693W        W61558  10.400   8.340  26.013
60694W        W61559  10.209  10.380  26.402
60695W        W61560  10.043   9.983  27.198
60696W        W61561   9.939   9.062  26.176
60697W        W61562   9.372   9.272  27.162
60698W        W61563  10.253   9.060  27.229
60699W        W61564   7.628   8.075  27.653
60700W        W61565  10.406   9.127  28.480
60701W        W61566  10.757  10.745  27.626
60702W        W61567   8.687  10.189  27.028
60703W        W61568   9.694  10.722  28.352
60704W        W61569   9.688   8.052  28.116
60705W        W61570   8.895  10.760  28.177
60706W        W61571  10.592   7.714  26.643
60707W        W61572  10.383   9.033  27.944
60708W        W61573   7.366   8.354  27.982
60709W        W61574  10.226   8.149  27.000
60710W        W61575  10.637   8.300  28.777
60711W        W61576   9.522   9.999  26.995
60712W        W61577   8.778  10.590  26.608
60713W        W61578   7.893   7.770  25.866
60714W        W61579   8.997   7.424  27.676
60715W        W61580   8.025  10.544  25.524
60716W        W61581   8.399   9.010  26.275
60717W        W61582   9.053   9.639  28.588
60718W        W61583   8.883   7.997  26.578
60719W        W61584  10.239   7.594  27.006
60720W        W61585   9.959  10.876  27.334
60721W        W61586   9.371  10.524  27.674
60722W        W61587   8.767   9.561  27.635
60723W        W61588  10.537  10.284  27.761
60724W        W61589   8.231   7.787  26.530
60725W        W61590   8.753  10.084  27.490
60726W        W61591   8.236   8.015  25.555
60727W        W61592   9.037   8.624  27.949
60728W        W61593   9.885   7.490  27.819
60729W        W61594   7.305   9.333  27.704
60730W        W61595   9.009   9.151  25.862
60731W        W61596   8.277   7.466  25.632
60732W        W61597   9.015   8.547  26.683
60733W        W61598   9.985   7.523  28.382
60734W        W61599   8.573   9.535  28.491
60735W        W61600   9.377   9.317  28.708
60736W        W61601   9.994   9.347  28.601
60737W        W61602   9.278   7.487  29.106
60738W        W61603   8.500   8.103  27.499
60739W        W61604   7.926   8.059  26.897
60740W        W61605   7.712  10.771  26.573
60741W        W61606   9.044  10.101  28.698
60742W        W61607   8.079   9.586  26.057
60743W        W61608   9.759   8.971  27.278
60744W        W61609  10.039   8.770  27.677
60745W        W61610   9.244   9.444  27.611
60746W        W61611   9.714   9.818  25.743
60747W        W61612   9.386   7.839  27.071
60748W        W61613  10.865   8.117  26.339
60749W        W61614   7.359  10.706  28.370
60750W        W61615   7.776   9.932  27.902
60751W        W61616   7.343  10.778  26.134
60752W        W61617   9.242   8.048  27.940
60753W        W61618   8.605  10.071  25.789
60754W        W61619  10.510  10.453  25.975
60755W        W61620   9.485   9.106  25.989
60756W        W61621   8.328   8.297  26.506
60757W        W61622   9.160   8.207  25.558
60758W        W61623   9.744   9.772  28.736
60759W        W61624  10.097   7.678  26.353
60760W        W61625   7.427   7.526  25.801
60761W        W61626   8.713   9.845  28.091
60762W        W61627   8.512   9.761  27.183
60763W        W61628   8.254   9.713  25.581
60764W        W61629   7.495   9.954  26.349
60765W        W61630   7.999   9.024  28.791
60766W        W61631   8.703   7.584  28.977
60767W        W61632   9.412   7.726  28.333
60768W        W61633   8.607   7.494  26.614
60769W        W61634   9.666   7.571  26.119
60770W        W61635   7.611   7.503  27.696
60771W        W61636   7.659   8.466  27.066
60772W        W61637  10.348   7.574  27.472
60773W        W61638   7.770   8.072  26.286
60774W        W61639  10.341   7.760  27.902
60775W        W61640  10.737   8.963  25.587
60776W        W61641   8.029   7.721  27.406
60777W        W61642   9.143   8.293  28.346
60778W        W61643   7.291   7.983  25.824
60779W        W61644   8.077   9.372  28.385
60780W        W61645   9.435   8.770  27.564
60781W        W61646   9.302  10.849  25.860
60782W        W61647   7.448   9.356  25.557
60783W        W61648   8.183   9.767  28.683
60784W        W61649   7.704   8.934  28.314
60785W        W61650   8.695   9.039  28.108
60786W        W61651  10.463   7.398  28.370
60787W        W61652  10.861   9.008  28.361
60788W        W61653  10.849   9.208  26.047
60789W        W61654   9.712   9.540  26.146
60790W        W61655  10.186  10.840  25.841
60791W        W61656   9.363   8.830  28.983
60792W        W61657   7.693   9.797  29.023
60793W        W61658  10.899   7.719  28.975
60794W        W61659  10.617   8.647  27.596
60795W        W61660   8.925  10.777  29.073
60796W        W61661   8.780   7.406  25.800
60797W        W61662  10.319  10.005  25.743
60798W        W61663   8.088   8.098  28.629
60799W        W61664   8.522  10.092  28.491
60800W        W61665  10.648   8.083  28.289
60801W        W61666   9.859  10.742  26.257
60802W        W61667  10.098   9.361  27.624
60803W        W61668   8.348   7.777  28.291
60804W        W61669   8.817   8.846  29.048
60805W        W61670   8.320  10.025  26.242
60806W        W61671  10.075   9.523  26.506
60807W        W61672   7.843   8.149  28.230
60808W        W61673   9.172  10.211  26.694
60809W        W61674  10.922   8.771  26.875
60810W        W61675   9.144   7.404  28.594
60811W        W61676   9.924  10.109  27.673
60812W        W61677  10.227  10.453  27.381
60813W        W61678   9.446  10.255  25.809
60814W        W61679   7.456  10.147  28.651
60815W        W61680   8.199   8.139  27.889
60816W        W61681   8.169   7.487  26.999
60817W        W61682   9.790   8.329  27.691
60818W        W61683   8.588   9.500  25.891
60819W        W61684  10.586   9.442  27.390
60820W        W61685   7.913  10.200  28.813
60821W        W61686  10.300  10.882  26.610
60822W        W61687   8.399   7.902  27.055
60823W        W61688   8.168   9.395  27.145
60824W        W61689   8.481  10.806  27.895
60825W        W61690  10.548  10.902  28.927
60826W        W61691   9.707   9.090  27.860
60827W        W61692   7.556   8.888  25.775
60828W        W61693  10.690  10.546  26.472
60829W        W61694  10.527   7.870  26.091
60830W        W61695   8.666   7.389  28.494
60831W        W61696  10.372  10.191  26.952
60832W        W61697  10.401   8.747  26.857
60833W        W61698   8.518   8.420  27.073
60834W        W61699   8.763   8.682  28.397
60835W        W61700   9.874   9.835  28.260
60836W        W61701   8.524   8.289  28.372
60837W        W61702   8.503  10.755  26.988
60838W        W61703   7.820  10.714  28.622
60839W        W61704   7.932  10.075  25.752
60840W        W61705  10.449   9.833  26.562
60841W        W61706   8.053   8.625  28.448
60842W        W61707  10.826   8.555  25.929
60843W        W61708   8.571   9.612  26.400
60844W        W61709   9.670   8.994  28.481
60845W        W61710   9.561   8.622  28.025
60846W        W61711   8.121   8.994  28.054
60847W        W61712  10.331  10.882  27.883
60848W        W61713  10.122   7.516  28.877
60849W        W61714   7.786   7.666  28.464
60850W        W61715   8.125   8.689  27.517
60851W        W61716   8.494   8.503  25.639
60852W        W61717   7.297  10.262  28.184
60853W        W61718   8.882   8.971  27.627
60854W        W61719   8.705   7.996  25.732
60855W        W61720   7.840   8.812  26.513
60856W        W61721   7.611  10.664  27.950
60857W        W61722  10.406   8.890  26.058
60858W        W61723  10.501   7.806  28.744
60859W        W61724   9.937  10.015  26.707
60860W        W61725   7.535   8.939  28.884
60861W        W61726  10.501   7.403  26.180
60862W        W61727  10.021   9.878  26.191
60863W        W61728   8.923   8.936  26.276
60864W        W61729  10.110   7.740  25.799
60865W        W61730  10.175   8.347  27.985
60866W        W61731   7.884   8.940  27.192
60867W        W61732   8.178   9.879  26.841
60868W        W61733   9.941   8.499  26.806
60869W        W61734   8.964   7.878  27.502
60870W        W61735  10.926   9.789  28.013
60871W        W61736  10.844   7.776  27.574
60872W        W61737   7.383  10.606  26.950
60873W        W61738   7.892   9.793  26.486
60874W        W61739   7.807   7.410  29.039
60875W        W61740   8.926  10.263  29.141
60876W        W61741  10.681   9.231  26.931
60877W        W61742  10.035   9.408  25.811
60878W        W61743   9.330  10.929  28.023
60879W        W61744  10.187   9.651  29.060
60880W        W61745   9.002   7.361  26.340
60881W        W61746   9.715   8.230  27.199
60882W        W61747   7.401   9.817  27.531
60883W        W61748   8.654   7.779  26.172
60884W        W61749   8.458   9.263  29.021
60885W        W61750   9.452   8.244  26.735
60886W        W61751   9.657   9.654  27.857
60887W        W61752   7.811  10.259  28.292
60888W        W61753   8.402  10.242  29.015
60889W        W61754   8.253   8.039  26.029
60890W        W61755   9.770   8.181  26.354
60891W        W61756   9.728  10.289  28.591
60892W        W61757   8.413   8.881  27.190
60893W        W61758   8.068  10.579  28.055
60894W        W61759  10.813  10.696  25.656
60895W        W61760   7.676   9.368  28.652
60896W        W61761   9.671   9.630  27.340
60897W        W61762   8.107   9.279  26.582
60898W        W61763   8.478  10.286  27.977
60899W        W61764   8.856   7.705  27.018
60900W        W61765   7.467   9.689  25.948
60901W        W61766   8.986   8.640  25.818
60902W        W61767   7.632   9.189  26.837
60903W        W61768   8.922   7.831  28.301
60904W        W61769  10.594   7.540  25.728
60905W        W61770  10.687   9.286  28.827
60906W        W61771   9.341  10.543  28.979
60907W        W61772  10.899   9.637  28.501
60908W        W61773  10.307  10.435  29.112
60909W        W61774   8.046  10.891  27.590
60910W        W61775  10.905   9.513  26.464
60911W        W61776   9.435   8.780  26.977
60912W        W61777   9.202   7.392  26.867
60913W        W61778   8.261  10.376  26.704
60914W        W61779   8.760   8.117  27.929
60915W        W61780   8.460   7.486  27.398
60916W        W61781   7.523  10.308  25.946
60917W        W61782   9.339   9.672  26.664
60918W        W61783   8.214  10.467  28.543
60919W        W61784   7.691   9.290  26.239
60920W        W61785   7.576   7.833  27.238
60921W        W61786   9.124   9.798  27.295
60922W        W61787   7.376   7.652  26.315
60923W        W61788  10.040   8.858  28.242
60924W        W61789   9.917   8.244  25.814
60925W        W61790  10.434   9.916  27.462
60926W        W61791   9.095  10.400  27.293
60927W        W61792   8.507  10.504  26.204
60928W        W61793   9.789   7.407  25.634
60929W        W61794   7.589  10.667  27.375
60930W        W61795   9.786   8.425  29.010
60931W        W61796   7.769   7.955  29.009
60932W        W61797   7.500   8.555  26.342
60933W        W61798   8.191   8.544  26.067
60934W        W61799   9.954   8.871  28.884
60935W        W61800   8.297   9.152  27.593
60936W        W61801   9.771   7.438  26.713
60937W        W61802   8.902  10.869  27.216
60938W        W61803  10.116  10.331  28.153
60939W        W61804   9.700  10.480  27.264
60940W        W61805   9.719   9.460  26.858
60941W        W61806   9.181   7.685  25.929
60942W        W61807  10.862   7.313  26.651
60943W        W61808   8.550   8.948  25.814
60944W        W61809  10.716   8.285  26.804
60945W        W61810   9.408   9.455  25.681
60946W        W61811  10.344   9.655  28.429
60947W        W61812   9.998  10.356  25.896
60948W        W61813   8.613   8.031  28.802
60949W        W61814   8.433   8.615  28.043
60950W        W61815  10.525  10.110  28.320
60951W        W61816   9.625   8.060  28.697
60952W        W61817   7.469   8.531  28.474
60953W        W61818   9.229   9.008  28.200
60954W        W61819   7.586   9.766  26.857
60955W        W61820   7.733   9.063  27.747
60956W        W61821  10.050   9.349  28.097
60957W        W61822   9.822  10.729  28.908
60958W        W61823   9.718   8.468  28.461
60959W        W61824   9.995  10.522  26.866
60960W        W61825   8.997  10.242  28.189
60961W        W61826   8.482  10.597  27.458
60962W        W61827  10.287   9.768  27.877
60963W        W61828   9.337   9.840  29.014
60964W        W61829   7.942   9.793  27.353
60965W        W61830  10.288   9.552  26.998
60966W        W61831   9.929  10.618  27.749
60967W        W61832   7.907  10.347  27.619
60968W        W61833   8.928   8.399  28.829
60969W        W61834   9.379  10.565  26.340
60970W        W61835   8.687   9.820  28.978
60971W        W61836   8.813  10.058  26.355
60972W        W61837   8.034   8.798  25.614
60973W        W61838   7.373  14.528   3.359
60974W        W61839   7.749  13.421   2.882
60975W        W61840  10.454  13.151   0.652
60976W        W61841  10.584  14.236   2.679
60977W        W61842   8.502  14.227   0.205
60978W        W61843   8.585  12.379   1.188
60979W        W61844   8.100  12.227   1.352
60980W        W61845   9.091  13.042   0.786
60981W        W61846   8.766  14.134   3.141
60982W        W61847   7.415  11.695   3.104
60983W        W61848   8.177  10.975   2.906
60984W        W61849   9.871  11.363   1.793
60985W        W61850   9.520  12.234   0.363
60986W        W61851  10.090  11.668   3.454
60987W        W61852   7.456  11.460   2.579
60988W        W61853   7.555  14.079   3.600
60989W        W61854   9.077  13.469   0.332
60990W        W61855   7.509  12.252   2.025
60991W        W61856   8.402  12.143   3.262
60992W        W61857  10.861  12.002   1.761
60993W        W61858  10.625  13.045   2.620
60994W        W61859   8.933  12.378   1.647
60995W        W61860   9.479  13.717   2.016
60996W        W61861   7.979  13.151   2.248
60997W        W61862   7.338  12.679   1.819
60998W        W61863   8.374  12.651   3.011
60999W        W61864  10.645  12.434   3.265
61000W        W61865   8.261  13.878   1.710
61001W        W61866   9.382  13.567   2.844
61002W        W61867   8.602  12.207   2.069
61003W        W61868   8.894  12.991   1.712
61004W        W61869   9.891  13.764   3.560
61005W        W61870   8.970  13.084   3.570
61006W        W61871   8.951  12.800   3.048
61007W        W61872   7.360  12.191   3.570
61008W        W61873  10.192  13.726   3.169
61009W        W61874   7.773  11.308   1.167
61010W        W61875   8.300  13.566   2.166
61011W        W61876  10.763  13.349   1.456
61012W        W61877  10.176  11.749   2.023
61013W        W61878  10.461  11.702   0.118
61014W        W61879  10.926  12.503   2.424
61015W        W61880   8.893  14.210   2.177
61016W        W61881  10.667  13.676   0.615
61017W        W61882   7.796  14.462   0.369
61018W        W61883   8.189  14.508   1.045
61019W        W61884   7.986  11.262   2.471
61020W        W61885  10.609  12.280   2.746
61021W        W61886  10.014  12.702   1.205
61022W        W61887   9.980  12.390   0.232
61023W        W61888   9.188  13.534   2.372
61024W        W61889   8.994  11.864   1.571
61025W        W61890   9.594  13.951   2.565
61026W        W61891  10.465  12.742   0.987
61027W        W61892   9.367  11.400   1.003
61028W        W61893   8.024  14.094   0.686
61029W        W61894   7.395  11.593   1.285
61030W        W61895  10.181  12.200   1.759
61031W        W61896   7.639  13.817   1.674
61032W        W61897   8.980  14.167   0.544
61033W        W61898  10.372  12.193   0.008
61034W        W61899   7.395  13.951   2.172
61035W        W61900   8.186  13.523   2.652
61036W        W61901   8.559  12.883   1.271
61037W        W61902   8.581  11.288   2.364
61038W        W61903  10.810  11.050   1.661
61039W        W61904   8.029  12.922   0.129
61040W        W61905   7.684  11.955   0.308
61041W        W61906   7.746  13.911   1.102
61042W        W61907   8.877  13.394   1.350
61043W        W61908  10.209  14.253   3.064
61044W        W61909   9.135  11.895   0.748
61045W        W61910  10.518  14.293   1.520
61046W        W61911  10.195  12.146   3.118
61047W        W61912  10.908  13.802   1.252
61048W        W61913   9.535  13.094   2.736
61049W        W61914   7.301  12.645   0.942
61050W        W61915   8.412  13.060   2.515
61051W        W61916   9.616  12.324   0.893
61052W        W61917   9.493  12.814   0.997
61053W        W61918   7.836  12.234   2.471
61054W        W61919   7.821  12.110   3.393
61055W        W61920   7.711  11.027   1.552
61056W        W61921   9.479  11.374   2.113
61057W        W61922   9.127  11.559   3.276
61058W        W61923   9.482  11.708   0.454
61059W        W61924  10.665  14.101   3.208
61060W        W61925   9.632  11.182   3.247
61061W        W61926  10.651  13.483   3.369
61062W        W61927  10.081  11.650   2.965
61063W        W61928   9.881  11.588   1.235
61064W        W61929  10.274  12.722   3.639
61065W        W61930   8.014  14.298   1.625
61066W        W61931   8.672  12.015   0.611
61067W        W61932   8.241  11.299   3.275
61068W        W61933  10.293  11.783   0.956
61069W        W61934  10.660  12.265   0.901
61070W        W61935   8.403  14.482   3.372
61071W        W61936   8.329  11.018   0.607
61072W        W61937  10.650  11.552   1.642
61073W        W61938  10.800  13.801   0.087
61074W        W61939   7.707  13.004   1.789
61075W        W61940   9.624  11.591   0.019
61076W        W61941  10.758  13.923   1.739
61077W        W61942  10.797  11.117   2.489
61078W        W61943   9.242  12.329   3.043
61079W        W61944   9.335  13.668   0.746
61080W        W61945   9.735  12.962   3.486
61081W        W61946   9.409  10.939   1.795
61082W        W61947   8.021  11.842   1.858
61083W        W61948   7.575  13.042   2.632
61084W        W61949   9.434  14.235   1.338
61085W        W61950  10.628  11.832   2.210
61086W        W61951   9.265  14.179   2.977
61087W        W61952  10.608  13.238   0.182
61088W        W61953   9.043  12.721   1.243
61089W        W61954  10.895  11.232   2.984
61090W        W61955   9.044  13.067   2.578
61091W        W61956   9.261  11.953   2.023
61092W        W61957  10.113  12.251   0.861
61093W        W61958  10.400  11.984   0.503
61094W        W61959  10.209  14.024   0.892
61095W        W61960  10.043  13.627   1.688
61096W        W61961   9.939  12.706   0.666
61097W        W61962   9.372  12.916   1.652
61098W        W61963  10.253  12.704   1.719
61099W        W61964   7.628  11.719   2.143
61100W        W61965  10.406  12.771   2.970
61101W        W61966  10.757  14.389   2.116
61102W        W61967   8.687  13.833   1.518
61103W        W61968   9.694  14.366   2.842
61104W        W61969   9.688  11.696   2.606
61105W        W61970   8.895  14.404   2.667
61106W        W61971  10.592  11.358   1.133
61107W        W61972  10.383  12.677   2.434
61108W        W61973   7.366  11.998   2.472
61109W        W61974  10.226  11.793   1.490
61110W        W61975  10.637  11.944   3.267
61111W        W61976   9.522  13.643   1.485
61112W        W61977   8.778  14.234   1.098
61113W        W61978   7.893  11.414   0.356
61114W        W61979   8.997  11.068   2.166
61115W        W61980   8.025  14.188   0.014
61116W        W61981   8.399  12.654   0.765
61117W        W61982   9.053  13.283   3.078
61118W        W61983   8.883  11.641   1.068
61119W        W61984  10.239  11.238   1.496
61120W        W61985   9.959  14.520   1.824
61121W        W61986   9.371  14.168   2.164
61122W        W61987   8.767  13.205   2.125
61123W        W61988  10.537  13.928   2.251
61124W        W61989   8.231  11.431   1.020
61125W        W61990   8.753  13.728   1.980
61126W        W61991   8.236  11.659   0.045
61127W        W61992   9.037  12.268   2.439
61128W        W61993   9.885  11.134   2.309
61129W        W61994   7.305  12.977   2.194
61130W        W61995   9.009  12.795   0.352
61131W        W61996   8.277  11.110   0.122
61132W        W61997   9.015  12.191   1.173
61133W        W61998   9.985  11.167   2.872
61134W        W61999   8.573  13.179   2.981
61135W        W62000   9.377  12.961   3.198
61136W        W62001   9.994  12.991   3.091
61137W        W62002   9.278  11.131   3.596
61138W        W62003   8.500  11.747   1.989
61139W        W62004   7.926  11.703   1.387
61140W        W62005   7.712  14.415   1.063
61141W        W62006   9.044  13.745   3.188
61142W        W62007   8.079  13.230   0.547
61143W        W62008   9.759  12.615   1.768
61144W        W62009  10.039  12.414   2.167
61145W        W62010   9.244  13.088   2.101
61146W        W62011   9.714  13.462   0.233
61147W        W62012   9.386  11.483   1.561
61148W        W62013  10.865  11.761   0.829
61149W        W62014   7.359  14.350   2.860
61150W        W62015   7.776  13.576   2.392
61151W        W62016   7.343  14.422   0.624
61152W        W62017   9.242  11.692   2.430
61153W        W62018   8.605  13.715   0.279
61154W        W62019  10.510  14.097   0.465
61155W        W62020   9.485  12.750   0.479
61156W        W62021   8.328  11.941   0.996
61157W        W62022   9.160  11.851   0.048
61158W        W62023   9.744  13.416   3.226
61159W        W62024  10.097  11.322   0.843
61160W        W62025   7.427  11.170   0.291
61161W        W62026   8.713  13.489   2.581
61162W        W62027   8.512  13.405   1.673
61163W        W62028   8.254  13.357   0.071
61164W        W62029   7.495  13.598   0.839
61165W        W62030   7.999  12.668   3.281
61166W        W62031   8.703  11.228   3.467
61167W        W62032   9.412  11.370   2.823
61168W        W62033   8.607  11.138   1.104
61169W        W62034   9.666  11.215   0.609
61170W        W62035   7.611  11.147   2.186
61171W        W62036   7.659  12.110   1.556
61172W        W62037  10.348  11.218   1.962
61173W        W62038   7.770  11.716   0.776
61174W        W62039  10.341  11.404   2.392
61175W        W62040  10.737  12.607   0.077
61176W        W62041   8.029  11.365   1.896
61177W        W62042   9.143  11.937   2.836
61178W        W62043   7.291  11.627   0.314
61179W        W62044   8.077  13.016   2.875
61180W        W62045   9.435  12.414   2.054
61181W        W62046   9.302  14.493   0.350
61182W        W62047   7.448  13.000   0.047
61183W        W62048   8.183  13.411   3.173
61184W        W62049   7.704  12.578   2.804
61185W        W62050   8.695  12.683   2.598
61186W        W62051  10.463  11.042   2.860
61187W        W62052  10.861  12.652   2.851
61188W        W62053  10.849  12.852   0.537
61189W        W62054   9.712  13.184   0.636
61190W        W62055  10.186  14.484   0.331
61191W        W62056   9.363  12.474   3.473
61192W        W62057   7.693  13.441   3.513
61193W        W62058  10.899  11.363   3.465
61194W        W62059  10.617  12.291   2.086
61195W        W62060   8.925  14.421   3.563
61196W        W62061   8.780  11.050   0.290
61197W        W62062  10.319  13.649   0.233
61198W        W62063   8.088  11.742   3.119
61199W        W62064   8.522  13.736   2.981
61200W        W62065  10.648  11.727   2.779
61201W        W62066   9.859  14.386   0.747
61202W        W62067  10.098  13.005   2.114
61203W        W62068   8.348  11.421   2.781
61204W        W62069   8.817  12.490   3.538
61205W        W62070   8.320  13.669   0.732
61206W        W62071  10.075  13.167   0.996
61207W        W62072   7.843  11.793   2.720
61208W        W62073   9.172  13.855   1.184
61209W        W62074  10.922  12.415   1.365
61210W        W62075   9.144  11.048   3.084
61211W        W62076   9.924  13.753   2.163
61212W        W62077  10.227  14.097   1.871
61213W        W62078   9.446  13.899   0.299
61214W        W62079   7.456  13.791   3.141
61215W        W62080   8.199  11.783   2.379
61216W        W62081   8.169  11.131   1.489
61217W        W62082   9.790  11.973   2.181
61218W        W62083   8.588  13.144   0.381
61219W        W62084  10.586  13.086   1.880
61220W        W62085   7.913  13.844   3.303
61221W        W62086  10.300  14.526   1.100
61222W        W62087   8.399  11.546   1.545
61223W        W62088   8.168  13.039   1.635
61224W        W62089   8.481  14.450   2.385
61225W        W62090  10.548  14.546   3.417
61226W        W62091   9.707  12.734   2.350
61227W        W62092   7.556  12.532   0.265
61228W        W62093  10.690  14.190   0.962
61229W        W62094  10.527  11.514   0.581
61230W        W62095   8.666  11.033   2.984
61231W        W62096  10.372  13.835   1.442
61232W        W62097  10.401  12.391   1.347
61233W        W62098   8.518  12.064   1.563
61234W        W62099   8.763  12.326   2.887
61235W        W62100   9.874  13.479   2.750
61236W        W62101   8.524  11.933   2.862
61237W        W62102   8.503  14.399   1.478
61238W        W62103   7.820  14.358   3.112
61239W        W62104   7.932  13.719   0.242
61240W        W62105  10.449  13.477   1.052
61241W        W62106   8.053  12.269   2.938
61242W        W62107  10.826  12.199   0.419
61243W        W62108   8.571  13.256   0.890
61244W        W62109   9.670  12.638   2.971
61245W        W62110   9.561  12.266   2.515
61246W        W62111   8.121  12.638   2.544
61247W        W62112  10.331  14.526   2.373
61248W        W62113  10.122  11.160   3.367
61249W        W62114   7.786  11.310   2.954
61250W        W62115   8.125  12.333   2.007
61251W        W62116   8.494  12.147   0.129
61252W        W62117   7.297  13.906   2.674
61253W        W62118   8.882  12.615   2.117
61254W        W62119   8.705  11.640   0.222
61255W        W62120   7.840  12.456   1.003
61256W        W62121   7.611  14.308   2.440
61257W        W62122  10.406  12.534   0.548
61258W        W62123  10.501  11.450   3.234
61259W        W62124   9.937  13.659   1.197
61260W        W62125   7.535  12.583   3.374
61261W        W62126  10.501  11.047   0.670
61262W        W62127  10.021  13.522   0.681
61263W        W62128   8.923  12.580   0.766
61264W        W62129  10.110  11.384   0.289
61265W        W62130  10.175  11.991   2.475
61266W        W62131   7.884  12.584   1.682
61267W        W62132   8.178  13.523   1.331
61268W        W62133   9.941  12.143   1.296
61269W        W62134   8.964  11.522   1.992
61270W        W62135  10.926  13.433   2.503
61271W        W62136  10.844  11.420   2.064
61272W        W62137   7.383  14.250   1.440
61273W        W62138   7.892  13.437   0.976
61274W        W62139   7.807  11.054   3.529
61275W        W62140   8.926  13.907   3.631
61276W        W62141  10.681  12.875   1.421
61277W        W62142  10.035  13.052   0.301
61278W        W62143   9.330  14.573   2.513
61279W        W62144  10.187  13.295   3.550
61280W        W62145   9.002  11.005   0.830
61281W        W62146   9.715  11.874   1.689
61282W        W62147   7.401  13.461   2.021
61283W        W62148   8.654  11.423   0.662
61284W        W62149   8.458  12.907   3.511
61285W        W62150   9.452  11.888   1.225
61286W        W62151   9.657  13.298   2.347
61287W        W62152   7.811  13.903   2.782
61288W        W62153   8.402  13.886   3.505
61289W        W62154   8.253  11.683   0.519
61290W        W62155   9.770  11.825   0.844
61291W        W62156   9.728  13.933   3.081
61292W        W62157   8.413  12.525   1.680
61293W        W62158   8.068  14.223   2.545
61294W        W62159  10.813  14.340   0.146
61295W        W62160   7.676  13.012   3.142
61296W        W62161   9.671  13.274   1.830
61297W        W62162   8.107  12.923   1.072
61298W        W62163   8.478  13.930   2.467
61299W        W62164   8.856  11.349   1.508
61300W        W62165   7.467  13.333   0.438
61301W        W62166   8.986  12.284   0.308
61302W        W62167   7.632  12.833   1.327
61303W        W62168   8.922  11.475   2.791
61304W        W62169  10.594  11.184   0.218
61305W        W62170  10.687  12.930   3.317
61306W        W62171   9.341  14.187   3.469
61307W        W62172  10.899  13.281   2.991
61308W        W62173  10.307  14.079   3.602
61309W        W62174   8.046  14.535   2.080
61310W        W62175  10.905  13.157   0.954
61311W        W62176   9.435  12.424   1.467
61312W        W62177   9.202  11.036   1.357
61313W        W62178   8.261  14.020   1.194
61314W        W62179   8.760  11.761   2.419
61315W        W62180   8.460  11.130   1.888
61316W        W62181   7.523  13.952   0.436
61317W        W62182   9.339  13.316   1.154
61318W        W62183   8.214  14.111   3.033
61319W        W62184   7.691  12.934   0.729
61320W        W62185   7.576  11.477   1.728
61321W        W62186   9.124  13.442   1.785
61322W        W62187   7.376  11.296   0.805
61323W        W62188  10.040  12.502   2.732
61324W        W62189   9.917  11.888   0.304
61325W        W62190  10.434  13.560   1.952
61326W        W62191   9.095  14.044   1.783
61327W        W62192   8.507  14.148   0.694
61328W        W62193   9.789  11.051   0.124
61329W        W62194   7.589  14.311   1.865
61330W        W62195   9.786  12.069   3.500
61331W        W62196   7.769  11.599   3.499
61332W        W62197   7.500  12.199   0.832
61333W        W62198   8.191  12.188   0.557
61334W        W62199   9.954  12.515   3.374
61335W        W62200   8.297  12.796   2.083
61336W        W62201   9.771  11.082   1.203
61337W        W62202   8.902  14.513   1.706
61338W        W62203  10.116  13.975   2.643
61339W        W62204   9.700  14.124   1.754
61340W        W62205   9.719  13.104   1.348
61341W        W62206   9.181  11.329   0.419
61342W        W62207  10.862  10.957   1.141
61343W        W62208   8.550  12.592   0.304
61344W        W62209  10.716  11.929   1.294
61345W        W62210   9.408  13.099   0.171
61346W        W62211  10.344  13.299   2.919
61347W        W62212   9.998  14.000   0.386
61348W        W62213   8.613  11.675   3.292
61349W        W62214   8.433  12.259   2.533
61350W        W62215  10.525  13.754   2.810
61351W        W62216   9.625  11.704   3.187
61352W        W62217   7.469  12.175   2.964
61353W        W62218   9.229  12.652   2.690
61354W        W62219   7.586  13.410   1.347
61355W        W62220   7.733  12.707   2.237
61356W        W62221  10.050  12.993   2.587
61357W        W62222   9.822  14.373   3.398
61358W        W62223   9.718  12.112   2.951
61359W        W62224   9.995  14.166   1.356
61360W        W62225   8.997  13.886   2.679
61361W        W62226   8.482  14.241   1.948
61362W        W62227  10.287  13.412   2.367
61363W        W62228   9.337  13.484   3.504
61364W        W62229   7.942  13.437   1.843
61365W        W62230  10.288  13.196   1.488
61366W        W62231   9.929  14.262   2.239
61367W        W62232   7.907  13.991   2.109
61368W        W62233   8.928  12.043   3.319
61369W        W62234   9.379  14.209   0.830
61370W        W62235   8.687  13.464   3.468
61371W        W62236   8.813  13.702   0.845
61372W        W62237   8.034  12.442   0.104
61373W        W62238   7.373  14.528   7.003
61374W        W62239   7.749  13.421   6.526
61375W        W62240  10.454  13.151   4.296
61376W        W62241  10.584  14.236   6.323
61377W        W62242   8.502  14.227   3.849
61378W        W62243   8.585  12.379   4.832
61379W        W62244   8.100  12.227   4.996
61380W        W62245   9.091  13.042   4.430
61381W        W62246   8.766  14.134   6.785
61382W        W62247   7.415  11.695   6.748
61383W        W62248   8.177  10.975   6.550
61384W        W62249   9.871  11.363   5.437
61385W        W62250   9.520  12.234   4.007
61386W        W62251  10.090  11.668   7.098
61387W        W62252   7.456  11.460   6.223
61388W        W62253   7.555  14.079   7.244
61389W        W62254   9.077  13.469   3.976
61390W        W62255   7.509  12.252   5.669
61391W        W62256   8.402  12.143   6.906
61392W        W62257  10.861  12.002   5.405
61393W        W62258  10.625  13.045   6.264
61394W        W62259   8.933  12.378   5.291
61395W        W62260   9.479  13.717   5.660
61396W        W62261   7.979  13.151   5.892
61397W        W62262   7.338  12.679   5.463
61398W        W62263   8.374  12.651   6.655
61399W        W62264  10.645  12.434   6.909
61400W        W62265   8.261  13.878   5.354
61401W        W62266   9.382  13.567   6.488
61402W        W62267   8.602  12.207   5.713
61403W        W62268   8.894  12.991   5.356
61404W        W62269   9.891  13.764   7.204
61405W        W62270   8.970  13.084   7.214
61406W        W62271   8.951  12.800   6.692
61407W        W62272   7.360  12.191   7.214
61408W        W62273  10.192  13.726   6.813
61409W        W62274   7.773  11.308   4.811
61410W        W62275   8.300  13.566   5.810
61411W        W62276  10.763  13.349   5.100
61412W        W62277  10.176  11.749   5.667
61413W        W62278  10.461  11.702   3.762
61414W        W62279  10.926  12.503   6.068
61415W        W62280   8.893  14.210   5.821
61416W        W62281  10.667  13.676   4.259
61417W        W62282   7.796  14.462   4.013
61418W        W62283   8.189  14.508   4.689
61419W        W62284   7.986  11.262   6.115
61420W        W62285  10.609  12.280   6.390
61421W        W62286  10.014  12.702   4.849
61422W        W62287   9.980  12.390   3.876
61423W        W62288   9.188  13.534   6.016
61424W        W62289   8.994  11.864   5.215
61425W        W62290   9.594  13.951   6.209
61426W        W62291  10.465  12.742   4.631
61427W        W62292   9.367  11.400   4.647
61428W        W62293   8.024  14.094   4.330
61429W        W62294   7.395  11.593   4.929
61430W        W62295  10.181  12.200   5.403
61431W        W62296   7.639  13.817   5.318
61432W        W62297   8.980  14.167   4.188
61433W        W62298  10.372  12.193   3.652
61434W        W62299   7.395  13.951   5.816
61435W        W62300   8.186  13.523   6.296
61436W        W62301   8.559  12.883   4.915
61437W        W62302   8.581  11.288   6.008
61438W        W62303  10.810  11.050   5.305
61439W        W62304   8.029  12.922   3.773
61440W        W62305   7.684  11.955   3.952
61441W        W62306   7.746  13.911   4.746
61442W        W62307   8.877  13.394   4.994
61443W        W62308  10.209  14.253   6.708
61444W        W62309   9.135  11.895   4.392
61445W        W62310  10.518  14.293   5.164
61446W        W62311  10.195  12.146   6.762
61447W        W62312  10.908  13.802   4.896
61448W        W62313   9.535  13.094   6.380
61449W        W62314   7.301  12.645   4.586
61450W        W62315   8.412  13.060   6.159
61451W        W62316   9.616  12.324   4.537
61452W        W62317   9.493  12.814   4.641
61453W        W62318   7.836  12.234   6.115
61454W        W62319   7.821  12.110   7.037
61455W        W62320   7.711  11.027   5.196
61456W        W62321   9.479  11.374   5.757
61457W        W62322   9.127  11.559   6.920
61458W        W62323   9.482  11.708   4.098
61459W        W62324  10.665  14.101   6.852
61460W        W62325   9.632  11.182   6.891
61461W        W62326  10.651  13.483   7.013
61462W        W62327  10.081  11.650   6.609
61463W        W62328   9.881  11.588   4.879
61464W        W62329  10.274  12.722   7.283
61465W        W62330   8.014  14.298   5.269
61466W        W62331   8.672  12.015   4.255
61467W        W62332   8.241  11.299   6.919
61468W        W62333  10.293  11.783   4.600
61469W        W62334  10.660  12.265   4.545
61470W        W62335   8.403  14.482   7.016
61471W        W62336   8.329  11.018   4.251
61472W        W62337  10.650  11.552   5.286
61473W        W62338  10.800  13.801   3.731
61474W        W62339   7.707  13.004   5.433
61475W        W62340   9.624  11.591   3.663
61476W        W62341  10.758  13.923   5.383
61477W        W62342  10.797  11.117   6.133
61478W        W62343   9.242  12.329   6.687
61479W        W62344   9.335  13.668   4.390
61480W        W62345   9.735  12.962   7.130
61481W        W62346   9.409  10.939   5.439
61482W        W62347   8.021  11.842   5.502
61483W        W62348   7.575  13.042   6.276
61484W        W62349   9.434  14.235   4.982
61485W        W62350  10.628  11.832   5.854
61486W        W62351   9.265  14.179   6.621
61487W        W62352  10.608  13.238   3.826
61488W        W62353   9.043  12.721   4.887
61489W        W62354  10.895  11.232   6.628
61490W        W62355   9.044  13.067   6.222
61491W        W62356   9.261  11.953   5.667
61492W        W62357  10.113  12.251   4.505
61493W        W62358  10.400  11.984   4.147
61494W        W62359  10.209  14.024   4.536
61495W        W62360  10.043  13.627   5.332
61496W        W62361   9.939  12.706   4.310
61497W        W62362   9.372  12.916   5.296
61498W        W62363  10.253  12.704   5.363
61499W        W62364   7.628  11.719   5.787
61500W        W62365  10.406  12.771   6.614
61501W        W62366  10.757  14.389   5.760
61502W        W62367   8.687  13.833   5.162
61503W        W62368   9.694  14.366   6.486
61504W        W62369   9.688  11.696   6.250
61505W        W62370   8.895  14.404   6.311
61506W        W62371  10.592  11.358   4.777
61507W        W62372  10.383  12.677   6.078
61508W        W62373   7.366  11.998   6.116
61509W        W62374  10.226  11.793   5.134
61510W        W62375  10.637  11.944   6.911
61511W        W62376   9.522  13.643   5.129
61512W        W62377   8.778  14.234   4.742
61513W        W62378   7.893  11.414   4.000
61514W        W62379   8.997  11.068   5.810
61515W        W62380   8.025  14.188   3.658
61516W        W62381   8.399  12.654   4.409
61517W        W62382   9.053  13.283   6.722
61518W        W62383   8.883  11.641   4.712
61519W        W62384  10.239  11.238   5.140
61520W        W62385   9.959  14.520   5.468
61521W        W62386   9.371  14.168   5.808
61522W        W62387   8.767  13.205   5.769
61523W        W62388  10.537  13.928   5.895
61524W        W62389   8.231  11.431   4.664
61525W        W62390   8.753  13.728   5.624
61526W        W62391   8.236  11.659   3.689
61527W        W62392   9.037  12.268   6.083
61528W        W62393   9.885  11.134   5.953
61529W        W62394   7.305  12.977   5.838
61530W        W62395   9.009  12.795   3.996
61531W        W62396   8.277  11.110   3.766
61532W        W62397   9.015  12.191   4.817
61533W        W62398   9.985  11.167   6.516
61534W        W62399   8.573  13.179   6.625
61535W        W62400   9.377  12.961   6.842
61536W        W62401   9.994  12.991   6.735
61537W        W62402   9.278  11.131   7.240
61538W        W62403   8.500  11.747   5.633
61539W        W62404   7.926  11.703   5.031
61540W        W62405   7.712  14.415   4.707
61541W        W62406   9.044  13.745   6.832
61542W        W62407   8.079  13.230   4.191
61543W        W62408   9.759  12.615   5.412
61544W        W62409  10.039  12.414   5.811
61545W        W62410   9.244  13.088   5.745
61546W        W62411   9.714  13.462   3.877
61547W        W62412   9.386  11.483   5.205
61548W        W62413  10.865  11.761   4.473
61549W        W62414   7.359  14.350   6.504
61550W        W62415   7.776  13.576   6.036
61551W        W62416   7.343  14.422   4.268
61552W        W62417   9.242  11.692   6.074
61553W        W62418   8.605  13.715   3.923
61554W        W62419  10.510  14.097   4.109
61555W        W62420   9.485  12.750   4.123
61556W        W62421   8.328  11.941   4.640
61557W        W62422   9.160  11.851   3.692
61558W        W62423   9.744  13.416   6.870
61559W        W62424  10.097  11.322   4.487
61560W        W62425   7.427  11.170   3.935
61561W        W62426   8.713  13.489   6.225
61562W        W62427   8.512  13.405   5.317
61563W        W62428   8.254  13.357   3.715
61564W        W62429   7.495  13.598   4.483
61565W        W62430   7.999  12.668   6.925
61566W        W62431   8.703  11.228   7.111
61567W        W62432   9.412  11.370   6.467
61568W        W62433   8.607  11.138   4.748
61569W        W62434   9.666  11.215   4.253
61570W        W62435   7.611  11.147   5.830
61571W        W62436   7.659  12.110   5.200
61572W        W62437  10.348  11.218   5.606
61573W        W62438   7.770  11.716   4.420
61574W        W62439  10.341  11.404   6.036
61575W        W62440  10.737  12.607   3.721
61576W        W62441   8.029  11.365   5.540
61577W        W62442   9.143  11.937   6.480
61578W        W62443   7.291  11.627   3.958
61579W        W62444   8.077  13.016   6.519
61580W        W62445   9.435  12.414   5.698
61581W        W62446   9.302  14.493   3.994
61582W        W62447   7.448  13.000   3.691
61583W        W62448   8.183  13.411   6.817
61584W        W62449   7.704  12.578   6.448
61585W        W62450   8.695  12.683   6.242
61586W        W62451  10.463  11.042   6.504
61587W        W62452  10.861  12.652   6.495
61588W        W62453  10.849  12.852   4.181
61589W        W62454   9.712  13.184   4.280
61590W        W62455  10.186  14.484   3.975
61591W        W62456   9.363  12.474   7.117
61592W        W62457   7.693  13.441   7.157
61593W        W62458  10.899  11.363   7.109
61594W        W62459  10.617  12.291   5.730
61595W        W62460   8.925  14.421   7.207
61596W        W62461   8.780  11.050   3.934
61597W        W62462  10.319  13.649   3.877
61598W        W62463   8.088  11.742   6.763
61599W        W62464   8.522  13.736   6.625
61600W        W62465  10.648  11.727   6.423
61601W        W62466   9.859  14.386   4.391
61602W        W62467  10.098  13.005   5.758
61603W        W62468   8.348  11.421   6.425
61604W        W62469   8.817  12.490   7.182
61605W        W62470   8.320  13.669   4.376
61606W        W62471  10.075  13.167   4.640
61607W        W62472   7.843  11.793   6.364
61608W        W62473   9.172  13.855   4.828
61609W        W62474  10.922  12.415   5.009
61610W        W62475   9.144  11.048   6.728
61611W        W62476   9.924  13.753   5.807
61612W        W62477  10.227  14.097   5.515
61613W        W62478   9.446  13.899   3.943
61614W        W62479   7.456  13.791   6.785
61615W        W62480   8.199  11.783   6.023
61616W        W62481   8.169  11.131   5.133
61617W        W62482   9.790  11.973   5.825
61618W        W62483   8.588  13.144   4.025
61619W        W62484  10.586  13.086   5.524
61620W        W62485   7.913  13.844   6.947
61621W        W62486  10.300  14.526   4.744
61622W        W62487   8.399  11.546   5.189
61623W        W62488   8.168  13.039   5.279
61624W        W62489   8.481  14.450   6.029
61625W        W62490  10.548  14.546   7.061
61626W        W62491   9.707  12.734   5.994
61627W        W62492   7.556  12.532   3.909
61628W        W62493  10.690  14.190   4.606
61629W        W62494  10.527  11.514   4.225
61630W        W62495   8.666  11.033   6.628
61631W        W62496  10.372  13.835   5.086
61632W        W62497  10.401  12.391   4.991
61633W        W62498   8.518  12.064   5.207
61634W        W62499   8.763  12.326   6.531
61635W        W62500   9.874  13.479   6.394
61636W        W62501   8.524  11.933   6.506
61637W        W62502   8.503  14.399   5.122
61638W        W62503   7.820  14.358   6.756
61639W        W62504   7.932  13.719   3.886
61640W        W62505  10.449  13.477   4.696
61641W        W62506   8.053  12.269   6.582
61642W        W62507  10.826  12.199   4.063
61643W        W62508   8.571  13.256   4.534
61644W        W62509   9.670  12.638   6.615
61645W        W62510   9.561  12.266   6.159
61646W        W62511   8.121  12.638   6.188
61647W        W62512  10.331  14.526   6.017
61648W        W62513  10.122  11.160   7.011
61649W        W62514   7.786  11.310   6.598
61650W        W62515   8.125  12.333   5.651
61651W        W62516   8.494  12.147   3.773
61652W        W62517   7.297  13.906   6.318
61653W        W62518   8.882  12.615   5.761
61654W        W62519   8.705  11.640   3.866
61655W        W62520   7.840  12.456   4.647
61656W        W62521   7.611  14.308   6.084
61657W        W62522  10.406  12.534   4.192
61658W        W62523  10.501  11.450   6.878
61659W        W62524   9.937  13.659   4.841
61660W        W62525   7.535  12.583   7.018
61661W        W62526  10.501  11.047   4.314
61662W        W62527  10.021  13.522   4.325
61663W        W62528   8.923  12.580   4.410
61664W        W62529  10.110  11.384   3.933
61665W        W62530  10.175  11.991   6.119
61666W        W62531   7.884  12.584   5.326
61667W        W62532   8.178  13.523   4.975
61668W        W62533   9.941  12.143   4.940
61669W        W62534   8.964  11.522   5.636
61670W        W62535  10.926  13.433   6.147
61671W        W62536  10.844  11.420   5.708
61672W        W62537   7.383  14.250   5.084
61673W        W62538   7.892  13.437   4.620
61674W        W62539   7.807  11.054   7.173
61675W        W62540   8.926  13.907   7.275
61676W        W62541  10.681  12.875   5.065
61677W        W62542  10.035  13.052   3.945
61678W        W62543   9.330  14.573   6.157
61679W        W62544  10.187  13.295   7.194
61680W        W62545   9.002  11.005   4.474
61681W        W62546   9.715  11.874   5.333
61682W        W62547   7.401  13.461   5.665
61683W        W62548   8.654  11.423   4.306
61684W        W62549   8.458  12.907   7.155
61685W        W62550   9.452  11.888   4.869
61686W        W62551   9.657  13.298   5.991
61687W        W62552   7.811  13.903   6.426
61688W        W62553   8.402  13.886   7.149
61689W        W62554   8.253  11.683   4.163
61690W        W62555   9.770  11.825   4.488
61691W        W62556   9.728  13.933   6.725
61692W        W62557   8.413  12.525   5.324
61693W        W62558   8.068  14.223   6.189
61694W        W62559  10.813  14.340   3.790
61695W        W62560   7.676  13.012   6.786
61696W        W62561   9.671  13.274   5.474
61697W        W62562   8.107  12.923   4.716
61698W        W62563   8.478  13.930   6.111
61699W        W62564   8.856  11.349   5.152
61700W        W62565   7.467  13.333   4.082
61701W        W62566   8.986  12.284   3.952
61702W        W62567   7.632  12.833   4.971
61703W        W62568   8.922  11.475   6.435
61704W        W62569  10.594  11.184   3.862
61705W        W62570  10.687  12.930   6.961
61706W        W62571   9.341  14.187   7.113
61707W        W62572  10.899  13.281   6.635
61708W        W62573  10.307  14.079   7.246
61709W        W62574   8.046  14.535   5.724
61710W        W62575  10.905  13.157   4.598
61711W        W62576   9.435  12.424   5.111
61712W        W62577   9.202  11.036   5.001
61713W        W62578   8.261  14.020   4.838
61714W        W62579   8.760  11.761   6.063
61715W        W62580   8.460  11.130   5.532
61716W        W62581   7.523  13.952   4.080
61717W        W62582   9.339  13.316   4.798
61718W        W62583   8.214  14.111   6.677
61719W        W62584   7.691  12.934   4.373
61720W        W62585   7.576  11.477   5.372
61721W        W62586   9.124  13.442   5.429
61722W        W62587   7.376  11.296   4.449
61723W        W62588  10.040  12.502   6.376
61724W        W62589   9.917  11.888   3.948
61725W        W62590  10.434  13.560   5.596
61726W        W62591   9.095  14.044   5.427
61727W        W62592   8.507  14.148   4.338
61728W        W62593   9.789  11.051   3.768
61729W        W62594   7.589  14.311   5.509
61730W        W62595   9.786  12.069   7.144
61731W        W62596   7.769  11.599   7.143
61732W        W62597   7.500  12.199   4.476
61733W        W62598   8.191  12.188   4.201
61734W        W62599   9.954  12.515   7.018
61735W        W62600   8.297  12.796   5.727
61736W        W62601   9.771  11.082   4.847
61737W        W62602   8.902  14.513   5.350
61738W        W62603  10.116  13.975   6.287
61739W        W62604   9.700  14.124   5.398
61740W        W62605   9.719  13.104   4.992
61741W        W62606   9.181  11.329   4.063
61742W        W62607  10.862  10.957   4.785
61743W        W62608   8.550  12.592   3.948
61744W        W62609  10.716  11.929   4.938
61745W        W62610   9.408  13.099   3.815
61746W        W62611  10.344  13.299   6.563
61747W        W62612   9.998  14.000   4.030
61748W        W62613   8.613  11.675   6.936
61749W        W62614   8.433  12.259   6.177
61750W        W62615  10.525  13.754   6.454
61751W        W62616   9.625  11.704   6.831
61752W        W62617   7.469  12.175   6.608
61753W        W62618   9.229  12.652   6.334
61754W        W62619   7.586  13.410   4.991
61755W        W62620   7.733  12.707   5.881
61756W        W62621  10.050  12.993   6.231
61757W        W62622   9.822  14.373   7.042
61758W        W62623   9.718  12.112   6.595
61759W        W62624   9.995  14.166   5.000
61760W        W62625   8.997  13.886   6.323
61761W        W62626   8.482  14.241   5.592
61762W        W62627  10.287  13.412   6.011
61763W        W62628   9.337  13.484   7.148
61764W        W62629   7.942  13.437   5.487
61765W        W62630  10.288  13.196   5.132
61766W        W62631   9.929  14.262   5.883
61767W        W62632   7.907  13.991   5.753
61768W        W62633   8.928  12.043   6.963
61769W        W62634   9.379  14.209   4.474
61770W        W62635   8.687  13.464   7.112
61771W        W62636   8.813  13.702   4.489
61772W        W62637   8.034  12.442   3.748
61773W        W62638   7.373  14.528  10.648
61774W        W62639   7.749  13.421  10.171
61775W        W62640  10.454  13.151   7.941
61776W        W62641  10.584  14.236   9.968
61777W        W62642   8.502  14.227   7.494
61778W        W62643   8.585  12.379   8.477
61779W        W62644   8.100  12.227   8.641
61780W        W62645   9.091  13.042   8.075
61781W        W62646   8.766  14.134  10.430
61782W        W62647   7.415  11.695  10.393
61783W        W62648   8.177  10.975  10.195
61784W        W62649   9.871  11.363   9.082
61785W        W62650   9.520  12.234   7.652
61786W        W62651  10.090  11.668  10.743
61787W        W62652   7.456  11.460   9.868
61788W        W62653   7.555  14.079  10.889
61789W        W62654   9.077  13.469   7.621
61790W        W62655   7.509  12.252   9.314
61791W        W62656   8.402  12.143  10.551
61792W        W62657  10.861  12.002   9.050
61793W        W62658  10.625  13.045   9.909
61794W        W62659   8.933  12.378   8.936
61795W        W62660   9.479  13.717   9.305
61796W        W62661   7.979  13.151   9.537
61797W        W62662   7.338  12.679   9.108
61798W        W62663   8.374  12.651  10.300
61799W        W62664  10.645  12.434  10.554
61800W        W62665   8.261  13.878   8.999
61801W        W62666   9.382  13.567  10.133
61802W        W62667   8.602  12.207   9.358
61803W        W62668   8.894  12.991   9.001
61804W        W62669   9.891  13.764  10.849
61805W        W62670   8.970  13.084  10.859
61806W        W62671   8.951  12.800  10.337
61807W        W62672   7.360  12.191  10.859
61808W        W62673  10.192  13.726  10.458
61809W        W62674   7.773  11.308   8.456
61810W        W62675   8.300  13.566   9.455
61811W        W62676  10.763  13.349   8.745
61812W        W62677  10.176  11.749   9.312
61813W        W62678  10.461  11.702   7.407
61814W        W62679  10.926  12.503   9.713
61815W        W62680   8.893  14.210   9.466
61816W        W62681  10.667  13.676   7.904
61817W        W62682   7.796  14.462   7.658
61818W        W62683   8.189  14.508   8.334
61819W        W62684   7.986  11.262   9.760
61820W        W62685  10.609  12.280  10.035
61821W        W62686  10.014  12.702   8.494
61822W        W62687   9.980  12.390   7.521
61823W        W62688   9.188  13.534   9.661
61824W        W62689   8.994  11.864   8.860
61825W        W62690   9.594  13.951   9.854
61826W        W62691  10.465  12.742   8.276
61827W        W62692   9.367  11.400   8.292
61828W        W62693   8.024  14.094   7.975
61829W        W62694   7.395  11.593   8.574
61830W        W62695  10.181  12.200   9.048
61831W        W62696   7.639  13.817   8.963
61832W        W62697   8.980  14.167   7.833
61833W        W62698  10.372  12.193   7.297
61834W        W62699   7.395  13.951   9.461
61835W        W62700   8.186  13.523   9.941
61836W        W62701   8.559  12.883   8.560
61837W        W62702   8.581  11.288   9.653
61838W        W62703  10.810  11.050   8.950
61839W        W62704   8.029  12.922   7.418
61840W        W62705   7.684  11.955   7.597
61841W        W62706   7.746  13.911   8.391
61842W        W62707   8.877  13.394   8.639
61843W        W62708  10.209  14.253  10.353
61844W        W62709   9.135  11.895   8.037
61845W        W62710  10.518  14.293   8.809
61846W        W62711  10.195  12.146  10.407
61847W        W62712  10.908  13.802   8.541
61848W        W62713   9.535  13.094  10.025
61849W        W62714   7.301  12.645   8.231
61850W        W62715   8.412  13.060   9.804
61851W        W62716   9.616  12.324   8.182
61852W        W62717   9.493  12.814   8.286
61853W        W62718   7.836  12.234   9.760
61854W        W62719   7.821  12.110  10.682
61855W        W62720   7.711  11.027   8.841
61856W        W62721   9.479  11.374   9.402
61857W        W62722   9.127  11.559  10.565
61858W        W62723   9.482  11.708   7.743
61859W        W62724  10.665  14.101  10.497
61860W        W62725   9.632  11.182  10.536
61861W        W62726  10.651  13.483  10.658
61862W        W62727  10.081  11.650  10.254
61863W        W62728   9.881  11.588   8.524
61864W        W62729  10.274  12.722  10.928
61865W        W62730   8.014  14.298   8.914
61866W        W62731   8.672  12.015   7.900
61867W        W62732   8.241  11.299  10.564
61868W        W62733  10.293  11.783   8.245
61869W        W62734  10.660  12.265   8.190
61870W        W62735   8.403  14.482  10.661
61871W        W62736   8.329  11.018   7.896
61872W        W62737  10.650  11.552   8.931
61873W        W62738  10.800  13.801   7.376
61874W        W62739   7.707  13.004   9.078
61875W        W62740   9.624  11.591   7.308
61876W        W62741  10.758  13.923   9.028
61877W        W62742  10.797  11.117   9.778
61878W        W62743   9.242  12.329  10.332
61879W        W62744   9.335  13.668   8.035
61880W        W62745   9.735  12.962  10.775
61881W        W62746   9.409  10.939   9.084
61882W        W62747   8.021  11.842   9.147
61883W        W62748   7.575  13.042   9.921
61884W        W62749   9.434  14.235   8.627
61885W        W62750  10.628  11.832   9.499
61886W        W62751   9.265  14.179  10.266
61887W        W62752  10.608  13.238   7.471
61888W        W62753   9.043  12.721   8.532
61889W        W62754  10.895  11.232  10.273
61890W        W62755   9.044  13.067   9.867
61891W        W62756   9.261  11.953   9.312
61892W        W62757  10.113  12.251   8.150
61893W        W62758  10.400  11.984   7.792
61894W        W62759  10.209  14.024   8.181
61895W        W62760  10.043  13.627   8.977
61896W        W62761   9.939  12.706   7.955
61897W        W62762   9.372  12.916   8.941
61898W        W62763  10.253  12.704   9.008
61899W        W62764   7.628  11.719   9.432
61900W        W62765  10.406  12.771  10.259
61901W        W62766  10.757  14.389   9.405
61902W        W62767   8.687  13.833   8.807
61903W        W62768   9.694  14.366  10.131
61904W        W62769   9.688  11.696   9.895
61905W        W62770   8.895  14.404   9.956
61906W        W62771  10.592  11.358   8.422
61907W        W62772  10.383  12.677   9.723
61908W        W62773   7.366  11.998   9.761
61909W        W62774  10.226  11.793   8.779
61910W        W62775  10.637  11.944  10.556
61911W        W62776   9.522  13.643   8.774
61912W        W62777   8.778  14.234   8.387
61913W        W62778   7.893  11.414   7.645
61914W        W62779   8.997  11.068   9.455
61915W        W62780   8.025  14.188   7.303
61916W        W62781   8.399  12.654   8.054
61917W        W62782   9.053  13.283  10.367
61918W        W62783   8.883  11.641   8.357
61919W        W62784  10.239  11.238   8.785
61920W        W62785   9.959  14.520   9.113
61921W        W62786   9.371  14.168   9.453
61922W        W62787   8.767  13.205   9.414
61923W        W62788  10.537  13.928   9.540
61924W        W62789   8.231  11.431   8.309
61925W        W62790   8.753  13.728   9.269
61926W        W62791   8.236  11.659   7.334
61927W        W62792   9.037  12.268   9.728
61928W        W62793   9.885  11.134   9.598
61929W        W62794   7.305  12.977   9.483
61930W        W62795   9.009  12.795   7.641
61931W        W62796   8.277  11.110   7.411
61932W        W62797   9.015  12.191   8.462
61933W        W62798   9.985  11.167  10.161
61934W        W62799   8.573  13.179  10.270
61935W        W62800   9.377  12.961  10.487
61936W        W62801   9.994  12.991  10.380
61937W        W62802   9.278  11.131  10.885
61938W        W62803   8.500  11.747   9.278
61939W        W62804   7.926  11.703   8.676
61940W        W62805   7.712  14.415   8.352
61941W        W62806   9.044  13.745  10.477
61942W        W62807   8.079  13.230   7.836
61943W        W62808   9.759  12.615   9.057
61944W        W62809  10.039  12.414   9.456
61945W        W62810   9.244  13.088   9.390
61946W        W62811   9.714  13.462   7.522
61947W        W62812   9.386  11.483   8.850
61948W        W62813  10.865  11.761   8.118
61949W        W62814   7.359  14.350  10.149
61950W        W62815   7.776  13.576   9.681
61951W        W62816   7.343  14.422   7.913
61952W        W62817   9.242  11.692   9.719
61953W        W62818   8.605  13.715   7.568
61954W        W62819  10.510  14.097   7.754
61955W        W62820   9.485  12.750   7.768
61956W        W62821   8.328  11.941   8.285
61957W        W62822   9.160  11.851   7.337
61958W        W62823   9.744  13.416  10.515
61959W        W62824  10.097  11.322   8.132
61960W        W62825   7.427  11.170   7.580
61961W        W62826   8.713  13.489   9.870
61962W        W62827   8.512  13.405   8.962
61963W        W62828   8.254  13.357   7.360
61964W        W62829   7.495  13.598   8.128
61965W        W62830   7.999  12.668  10.570
61966W        W62831   8.703  11.228  10.756
61967W        W62832   9.412  11.370  10.112
61968W        W62833   8.607  11.138   8.393
61969W        W62834   9.666  11.215   7.898
61970W        W62835   7.611  11.147   9.475
61971W        W62836   7.659  12.110   8.845
61972W        W62837  10.348  11.218   9.251
61973W        W62838   7.770  11.716   8.065
61974W        W62839  10.341  11.404   9.681
61975W        W62840  10.737  12.607   7.366
61976W        W62841   8.029  11.365   9.185
61977W        W62842   9.143  11.937  10.125
61978W        W62843   7.291  11.627   7.603
61979W        W62844   8.077  13.016  10.164
61980W        W62845   9.435  12.414   9.343
61981W        W62846   9.302  14.493   7.639
61982W        W62847   7.448  13.000   7.336
61983W        W62848   8.183  13.411  10.462
61984W        W62849   7.704  12.578  10.093
61985W        W62850   8.695  12.683   9.887
61986W        W62851  10.463  11.042  10.149
61987W        W62852  10.861  12.652  10.140
61988W        W62853  10.849  12.852   7.826
61989W        W62854   9.712  13.184   7.925
61990W        W62855  10.186  14.484   7.620
61991W        W62856   9.363  12.474  10.762
61992W        W62857   7.693  13.441  10.802
61993W        W62858  10.899  11.363  10.754
61994W        W62859  10.617  12.291   9.375
61995W        W62860   8.925  14.421  10.852
61996W        W62861   8.780  11.050   7.579
61997W        W62862  10.319  13.649   7.522
61998W        W62863   8.088  11.742  10.408
61999W        W62864   8.522  13.736  10.270
62000W        W62865  10.648  11.727  10.068
62001W        W62866   9.859  14.386   8.036
62002W        W62867  10.098  13.005   9.403
62003W        W62868   8.348  11.421  10.070
62004W        W62869   8.817  12.490  10.827
62005W        W62870   8.320  13.669   8.021
62006W        W62871  10.075  13.167   8.285
62007W        W62872   7.843  11.793  10.009
62008W        W62873   9.172  13.855   8.473
62009W        W62874  10.922  12.415   8.654
62010W        W62875   9.144  11.048  10.373
62011W        W62876   9.924  13.753   9.452
62012W        W62877  10.227  14.097   9.160
62013W        W62878   9.446  13.899   7.588
62014W        W62879   7.456  13.791  10.430
62015W        W62880   8.199  11.783   9.668
62016W        W62881   8.169  11.131   8.778
62017W        W62882   9.790  11.973   9.470
62018W        W62883   8.588  13.144   7.670
62019W        W62884  10.586  13.086   9.169
62020W        W62885   7.913  13.844  10.592
62021W        W62886  10.300  14.526   8.389
62022W        W62887   8.399  11.546   8.834
62023W        W62888   8.168  13.039   8.924
62024W        W62889   8.481  14.450   9.674
62025W        W62890  10.548  14.546  10.706
62026W        W62891   9.707  12.734   9.639
62027W        W62892   7.556  12.532   7.554
62028W        W62893  10.690  14.190   8.251
62029W        W62894  10.527  11.514   7.870
62030W        W62895   8.666  11.033  10.273
62031W        W62896  10.372  13.835   8.731
62032W        W62897  10.401  12.391   8.636
62033W        W62898   8.518  12.064   8.852
62034W        W62899   8.763  12.326  10.176
62035W        W62900   9.874  13.479  10.039
62036W        W62901   8.524  11.933  10.151
62037W        W62902   8.503  14.399   8.767
62038W        W62903   7.820  14.358  10.401
62039W        W62904   7.932  13.719   7.531
62040W        W62905  10.449  13.477   8.341
62041W        W62906   8.053  12.269  10.227
62042W        W62907  10.826  12.199   7.708
62043W        W62908   8.571  13.256   8.179
62044W        W62909   9.670  12.638  10.260
62045W        W62910   9.561  12.266   9.804
62046W        W62911   8.121  12.638   9.833
62047W        W62912  10.331  14.526   9.662
62048W        W62913  10.122  11.160  10.656
62049W        W62914   7.786  11.310  10.243
62050W        W62915   8.125  12.333   9.296
62051W        W62916   8.494  12.147   7.418
62052W        W62917   7.297  13.906   9.963
62053W        W62918   8.882  12.615   9.406
62054W        W62919   8.705  11.640   7.511
62055W        W62920   7.840  12.456   8.292
62056W        W62921   7.611  14.308   9.729
62057W        W62922  10.406  12.534   7.837
62058W        W62923  10.501  11.450  10.523
62059W        W62924   9.937  13.659   8.486
62060W        W62925   7.535  12.583  10.663
62061W        W62926  10.501  11.047   7.959
62062W        W62927  10.021  13.522   7.970
62063W        W62928   8.923  12.580   8.055
62064W        W62929  10.110  11.384   7.578
62065W        W62930  10.175  11.991   9.764
62066W        W62931   7.884  12.584   8.971
62067W        W62932   8.178  13.523   8.620
62068W        W62933   9.941  12.143   8.585
62069W        W62934   8.964  11.522   9.281
62070W        W62935  10.926  13.433   9.792
62071W        W62936  10.844  11.420   9.353
62072W        W62937   7.383  14.250   8.729
62073W        W62938   7.892  13.437   8.265
62074W        W62939   7.807  11.054  10.818
62075W        W62940   8.926  13.907  10.920
62076W        W62941  10.681  12.875   8.710
62077W        W62942  10.035  13.052   7.590
62078W        W62943   9.330  14.573   9.802
62079W        W62944  10.187  13.295  10.839
62080W        W62945   9.002  11.005   8.119
62081W        W62946   9.715  11.874   8.978
62082W        W62947   7.401  13.461   9.310
62083W        W62948   8.654  11.423   7.951
62084W        W62949   8.458  12.907  10.800
62085W        W62950   9.452  11.888   8.514
62086W        W62951   9.657  13.298   9.636
62087W        W62952   7.811  13.903  10.071
62088W        W62953   8.402  13.886  10.794
62089W        W62954   8.253  11.683   7.808
62090W        W62955   9.770  11.825   8.133
62091W        W62956   9.728  13.933  10.370
62092W        W62957   8.413  12.525   8.969
62093W        W62958   8.068  14.223   9.834
62094W        W62959  10.813  14.340   7.435
62095W        W62960   7.676  13.012  10.431
62096W        W62961   9.671  13.274   9.119
62097W        W62962   8.107  12.923   8.361
62098W        W62963   8.478  13.930   9.756
62099W        W62964   8.856  11.349   8.797
62100W        W62965   7.467  13.333   7.727
62101W        W62966   8.986  12.284   7.597
62102W        W62967   7.632  12.833   8.616
62103W        W62968   8.922  11.475  10.080
62104W        W62969  10.594  11.184   7.507
62105W        W62970  10.687  12.930  10.606
62106W        W62971   9.341  14.187  10.758
62107W        W62972  10.899  13.281  10.280
62108W        W62973  10.307  14.079  10.891
62109W        W62974   8.046  14.535   9.369
62110W        W62975  10.905  13.157   8.243
62111W        W62976   9.435  12.424   8.756
62112W        W62977   9.202  11.036   8.646
62113W        W62978   8.261  14.020   8.483
62114W        W62979   8.760  11.761   9.708
62115W        W62980   8.460  11.130   9.177
62116W        W62981   7.523  13.952   7.725
62117W        W62982   9.339  13.316   8.443
62118W        W62983   8.214  14.111  10.322
62119W        W62984   7.691  12.934   8.018
62120W        W62985   7.576  11.477   9.017
62121W        W62986   9.124  13.442   9.074
62122W        W62987   7.376  11.296   8.094
62123W        W62988  10.040  12.502  10.021
62124W        W62989   9.917  11.888   7.593
62125W        W62990  10.434  13.560   9.241
62126W        W62991   9.095  14.044   9.072
62127W        W62992   8.507  14.148   7.983
62128W        W62993   9.789  11.051   7.413
62129W        W62994   7.589  14.311   9.154
62130W        W62995   9.786  12.069  10.789
62131W        W62996   7.769  11.599  10.788
62132W        W62997   7.500  12.199   8.121
62133W        W62998   8.191  12.188   7.846
62134W        W62999   9.954  12.515  10.663
62135W        W63000   8.297  12.796   9.372
62136W        W63001   9.771  11.082   8.492
62137W        W63002   8.902  14.513   8.995
62138W        W63003  10.116  13.975   9.932
62139W        W63004   9.700  14.124   9.043
62140W        W63005   9.719  13.104   8.637
62141W        W63006   9.181  11.329   7.708
62142W        W63007  10.862  10.957   8.430
62143W        W63008   8.550  12.592   7.593
62144W        W63009  10.716  11.929   8.583
62145W        W63010   9.408  13.099   7.460
62146W        W63011  10.344  13.299  10.208
62147W        W63012   9.998  14.000   7.675
62148W        W63013   8.613  11.675  10.581
62149W        W63014   8.433  12.259   9.822
62150W        W63015  10.525  13.754  10.099
62151W        W63016   9.625  11.704  10.476
62152W        W63017   7.469  12.175  10.253
62153W        W63018   9.229  12.652   9.979
62154W        W63019   7.586  13.410   8.636
62155W        W63020   7.733  12.707   9.526
62156W        W63021  10.050  12.993   9.876
62157W        W63022   9.822  14.373  10.687
62158W        W63023   9.718  12.112  10.240
62159W        W63024   9.995  14.166   8.645
62160W        W63025   8.997  13.886   9.968
62161W        W63026   8.482  14.241   9.237
62162W        W63027  10.287  13.412   9.656
62163W        W63028   9.337  13.484  10.793
62164W        W63029   7.942  13.437   9.132
62165W        W63030  10.288  13.196   8.777
62166W        W63031   9.929  14.262   9.528
62167W        W63032   7.907  13.991   9.398
62168W        W63033   8.928  12.043  10.608
62169W        W63034   9.379  14.209   8.119
62170W        W63035   8.687  13.464  10.757
62171W        W63036   8.813  13.702   8.134
62172W        W63037   8.034  12.442   7.393
62173W        W63038   7.373  14.528  14.292
62174W        W63039   7.749  13.421  13.815
62175W        W63040  10.454  13.151  11.585
62176W        W63041  10.584  14.236  13.612
62177W        W63042   8.502  14.227  11.138
62178W        W63043   8.585  12.379  12.121
62179W        W63044   8.100  12.227  12.285
62180W        W63045   9.091  13.042  11.719
62181W        W63046   8.766  14.134  14.074
62182W        W63047   7.415  11.695  14.037
62183W        W63048   8.177  10.975  13.839
62184W        W63049   9.871  11.363  12.726
62185W        W63050   9.520  12.234  11.296
62186W        W63051  10.090  11.668  14.387
62187W        W63052   7.456  11.460  13.512
62188W        W63053   7.555  14.079  14.533
62189W        W63054   9.077  13.469  11.265
62190W        W63055   7.509  12.252  12.958
62191W        W63056   8.402  12.143  14.195
62192W        W63057  10.861  12.002  12.694
62193W        W63058  10.625  13.045  13.553
62194W        W63059   8.933  12.378  12.580
62195W        W63060   9.479  13.717  12.949
62196W        W63061   7.979  13.151  13.181
62197W        W63062   7.338  12.679  12.752
62198W        W63063   8.374  12.651  13.944
62199W        W63064  10.645  12.434  14.198
62200W        W63065   8.261  13.878  12.643
62201W        W63066   9.382  13.567  13.777
62202W        W63067   8.602  12.207  13.002
62203W        W63068   8.894  12.991  12.645
62204W        W63069   9.891  13.764  14.493
62205W        W63070   8.970  13.084  14.503
62206W        W63071   8.951  12.800  13.981
62207W        W63072   7.360  12.191  14.503
62208W        W63073  10.192  13.726  14.102
62209W        W63074   7.773  11.308  12.100
62210W        W63075   8.300  13.566  13.099
62211W        W63076  10.763  13.349  12.389
62212W        W63077  10.176  11.749  12.956
62213W        W63078  10.461  11.702  11.051
62214W        W63079  10.926  12.503  13.357
62215W        W63080   8.893  14.210  13.110
62216W        W63081  10.667  13.676  11.548
62217W        W63082   7.796  14.462  11.302
62218W        W63083   8.189  14.508  11.978
62219W        W63084   7.986  11.262  13.404
62220W        W63085  10.609  12.280  13.679
62221W        W63086  10.014  12.702  12.138
62222W        W63087   9.980  12.390  11.165
62223W        W63088   9.188  13.534  13.305
62224W        W63089   8.994  11.864  12.504
62225W        W63090   9.594  13.951  13.498
62226W        W63091  10.465  12.742  11.920
62227W        W63092   9.367  11.400  11.936
62228W        W63093   8.024  14.094  11.619
62229W        W63094   7.395  11.593  12.218
62230W        W63095  10.181  12.200  12.692
62231W        W63096   7.639  13.817  12.607
62232W        W63097   8.980  14.167  11.477
62233W        W63098  10.372  12.193  10.941
62234W        W63099   7.395  13.951  13.105
62235W        W63100   8.186  13.523  13.585
62236W        W63101   8.559  12.883  12.204
62237W        W63102   8.581  11.288  13.297
62238W        W63103  10.810  11.050  12.594
62239W        W63104   8.029  12.922  11.062
62240W        W63105   7.684  11.955  11.241
62241W        W63106   7.746  13.911  12.035
62242W        W63107   8.877  13.394  12.283
62243W        W63108  10.209  14.253  13.997
62244W        W63109   9.135  11.895  11.681
62245W        W63110  10.518  14.293  12.453
62246W        W63111  10.195  12.146  14.051
62247W        W63112  10.908  13.802  12.185
62248W        W63113   9.535  13.094  13.669
62249W        W63114   7.301  12.645  11.875
62250W        W63115   8.412  13.060  13.448
62251W        W63116   9.616  12.324  11.826
62252W        W63117   9.493  12.814  11.930
62253W        W63118   7.836  12.234  13.404
62254W        W63119   7.821  12.110  14.326
62255W        W63120   7.711  11.027  12.485
62256W        W63121   9.479  11.374  13.046
62257W        W63122   9.127  11.559  14.209
62258W        W63123   9.482  11.708  11.387
62259W        W63124  10.665  14.101  14.141
62260W        W63125   9.632  11.182  14.180
62261W        W63126  10.651  13.483  14.302
62262W        W63127  10.081  11.650  13.898
62263W        W63128   9.881  11.588  12.168
62264W        W63129  10.274  12.722  14.572
62265W        W63130   8.014  14.298  12.558
62266W        W63131   8.672  12.015  11.544
62267W        W63132   8.241  11.299  14.208
62268W        W63133  10.293  11.783  11.889
62269W        W63134  10.660  12.265  11.834
62270W        W63135   8.403  14.482  14.305
62271W        W63136   8.329  11.018  11.540
62272W        W63137  10.650  11.552  12.575
62273W        W63138  10.800  13.801  11.020
62274W        W63139   7.707  13.004  12.722
62275W        W63140   9.624  11.591  10.952
62276W        W63141  10.758  13.923  12.672
62277W        W63142  10.797  11.117  13.422
62278W        W63143   9.242  12.329  13.976
62279W        W63144   9.335  13.668  11.679
62280W        W63145   9.735  12.962  14.419
62281W        W63146   9.409  10.939  12.728
62282W        W63147   8.021  11.842  12.791
62283W        W63148   7.575  13.042  13.565
62284W        W63149   9.434  14.235  12.271
62285W        W63150  10.628  11.832  13.143
62286W        W63151   9.265  14.179  13.910
62287W        W63152  10.608  13.238  11.115
62288W        W63153   9.043  12.721  12.176
62289W        W63154  10.895  11.232  13.917
62290W        W63155   9.044  13.067  13.511
62291W        W63156   9.261  11.953  12.956
62292W        W63157  10.113  12.251  11.794
62293W        W63158  10.400  11.984  11.436
62294W        W63159  10.209  14.024  11.825
62295W        W63160  10.043  13.627  12.621
62296W        W63161   9.939  12.706  11.599
62297W        W63162   9.372  12.916  12.585
62298W        W63163  10.253  12.704  12.652
62299W        W63164   7.628  11.719  13.076
62300W        W63165  10.406  12.771  13.903
62301W        W63166  10.757  14.389  13.049
62302W        W63167   8.687  13.833  12.451
62303W        W63168   9.694  14.366  13.775
62304W        W63169   9.688  11.696  13.539
62305W        W63170   8.895  14.404  13.600
62306W        W63171  10.592  11.358  12.066
62307W        W63172  10.383  12.677  13.367
62308W        W63173   7.366  11.998  13.405
62309W        W63174  10.226  11.793  12.423
62310W        W63175  10.637  11.944  14.200
62311W        W63176   9.522  13.643  12.418
62312W        W63177   8.778  14.234  12.031
62313W        W63178   7.893  11.414  11.289
62314W        W63179   8.997  11.068  13.099
62315W        W63180   8.025  14.188  10.947
62316W        W63181   8.399  12.654  11.698
62317W        W63182   9.053  13.283  14.011
62318W        W63183   8.883  11.641  12.001
62319W        W63184  10.239  11.238  12.429
62320W        W63185   9.959  14.520  12.757
62321W        W63186   9.371  14.168  13.097
62322W        W63187   8.767  13.205  13.058
62323W        W63188  10.537  13.928  13.184
62324W        W63189   8.231  11.431  11.953
62325W        W63190   8.753  13.728  12.913
62326W        W63191   8.236  11.659  10.978
62327W        W63192   9.037  12.268  13.372
62328W        W63193   9.885  11.134  13.242
62329W        W63194   7.305  12.977  13.127
62330W        W63195   9.009  12.795  11.285
62331W        W63196   8.277  11.110  11.055
62332W        W63197   9.015  12.191  12.106
62333W        W63198   9.985  11.167  13.805
62334W        W63199   8.573  13.179  13.914
62335W        W63200   9.377  12.961  14.131
62336W        W63201   9.994  12.991  14.024
62337W        W63202   9.278  11.131  14.529
62338W        W63203   8.500  11.747  12.922
62339W        W63204   7.926  11.703  12.320
62340W        W63205   7.712  14.415  11.996
62341W        W63206   9.044  13.745  14.121
62342W        W63207   8.079  13.230  11.480
62343W        W63208   9.759  12.615  12.701
62344W        W63209  10.039  12.414  13.100
62345W        W63210   9.244  13.088  13.034
62346W        W63211   9.714  13.462  11.166
62347W        W63212   9.386  11.483  12.494
62348W        W63213  10.865  11.761  11.762
62349W        W63214   7.359  14.350  13.793
62350W        W63215   7.776  13.576  13.325
62351W        W63216   7.343  14.422  11.557
62352W        W63217   9.242  11.692  13.363
62353W        W63218   8.605  13.715  11.212
62354W        W63219  10.510  14.097  11.398
62355W        W63220   9.485  12.750  11.412
62356W        W63221   8.328  11.941  11.929
62357W        W63222   9.160  11.851  10.981
62358W        W63223   9.744  13.416  14.159
62359W        W63224  10.097  11.322  11.776
62360W        W63225   7.427  11.170  11.224
62361W        W63226   8.713  13.489  13.514
62362W        W63227   8.512  13.405  12.606
62363W        W63228   8.254  13.357  11.004
62364W        W63229   7.495  13.598  11.772
62365W        W63230   7.999  12.668  14.214
62366W        W63231   8.703  11.228  14.400
62367W        W63232   9.412  11.370  13.756
62368W        W63233   8.607  11.138  12.037
62369W        W63234   9.666  11.215  11.542
62370W        W63235   7.611  11.147  13.119
62371W        W63236   7.659  12.110  12.489
62372W        W63237  10.348  11.218  12.895
62373W        W63238   7.770  11.716  11.709
62374W        W63239  10.341  11.404  13.325
62375W        W63240  10.737  12.607  11.010
62376W        W63241   8.029  11.365  12.829
62377W        W63242   9.143  11.937  13.769
62378W        W63243   7.291  11.627  11.247
62379W        W63244   8.077  13.016  13.808
62380W        W63245   9.435  12.414  12.987
62381W        W63246   9.302  14.493  11.283
62382W        W63247   7.448  13.000  10.980
62383W        W63248   8.183  13.411  14.106
62384W        W63249   7.704  12.578  13.737
62385W        W63250   8.695  12.683  13.531
62386W        W63251  10.463  11.042  13.793
62387W        W63252  10.861  12.652  13.784
62388W        W63253  10.849  12.852  11.470
62389W        W63254   9.712  13.184  11.569
62390W        W63255  10.186  14.484  11.264
62391W        W63256   9.363  12.474  14.406
62392W        W63257   7.693  13.441  14.446
62393W        W63258  10.899  11.363  14.398
62394W        W63259  10.617  12.291  13.019
62395W        W63260   8.925  14.421  14.496
62396W        W63261   8.780  11.050  11.223
62397W        W63262  10.319  13.649  11.166
62398W        W63263   8.088  11.742  14.052
62399W        W63264   8.522  13.736  13.914
62400W        W63265  10.648  11.727  13.712
62401W        W63266   9.859  14.386  11.680
62402W        W63267  10.098  13.005  13.047
62403W        W63268   8.348  11.421  13.714
62404W        W63269   8.817  12.490  14.471
62405W        W63270   8.320  13.669  11.665
62406W        W63271  10.075  13.167  11.929
62407W        W63272   7.843  11.793  13.653
62408W        W63273   9.172  13.855  12.117
62409W        W63274  10.922  12.415  12.298
62410W        W63275   9.144  11.048  14.017
62411W        W63276   9.924  13.753  13.096
62412W        W63277  10.227  14.097  12.804
62413W        W63278   9.446  13.899  11.232
62414W        W63279   7.456  13.791  14.074
62415W        W63280   8.199  11.783  13.312
62416W        W63281   8.169  11.131  12.422
62417W        W63282   9.790  11.973  13.114
62418W        W63283   8.588  13.144  11.314
62419W        W63284  10.586  13.086  12.813
62420W        W63285   7.913  13.844  14.236
62421W        W63286  10.300  14.526  12.033
62422W        W63287   8.399  11.546  12.478
62423W        W63288   8.168  13.039  12.568
62424W        W63289   8.481  14.450  13.318
62425W        W63290  10.548  14.546  14.350
62426W        W63291   9.707  12.734  13.283
62427W        W63292   7.556  12.532  11.198
62428W        W63293  10.690  14.190  11.895
62429W        W63294  10.527  11.514  11.514
62430W        W63295   8.666  11.033  13.917
62431W        W63296  10.372  13.835  12.375
62432W        W63297  10.401  12.391  12.280
62433W        W63298   8.518  12.064  12.496
62434W        W63299   8.763  12.326  13.820
62435W        W63300   9.874  13.479  13.683
62436W        W63301   8.524  11.933  13.795
62437W        W63302   8.503  14.399  12.411
62438W        W63303   7.820  14.358  14.045
62439W        W63304   7.932  13.719  11.175
62440W        W63305  10.449  13.477  11.985
62441W        W63306   8.053  12.269  13.871
62442W        W63307  10.826  12.199  11.352
62443W        W63308   8.571  13.256  11.823
62444W        W63309   9.670  12.638  13.904
62445W        W63310   9.561  12.266  13.448
62446W        W63311   8.121  12.638  13.477
62447W        W63312  10.331  14.526  13.306
62448W        W63313  10.122  11.160  14.300
62449W        W63314   7.786  11.310  13.887
62450W        W63315   8.125  12.333  12.940
62451W        W63316   8.494  12.147  11.062
62452W        W63317   7.297  13.906  13.607
62453W        W63318   8.882  12.615  13.050
62454W        W63319   8.705  11.640  11.155
62455W        W63320   7.840  12.456  11.936
62456W        W63321   7.611  14.308  13.373
62457W        W63322  10.406  12.534  11.481
62458W        W63323  10.501  11.450  14.167
62459W        W63324   9.937  13.659  12.130
62460W        W63325   7.535  12.583  14.307
62461W        W63326  10.501  11.047  11.603
62462W        W63327  10.021  13.522  11.614
62463W        W63328   8.923  12.580  11.699
62464W        W63329  10.110  11.384  11.222
62465W        W63330  10.175  11.991  13.408
62466W        W63331   7.884  12.584  12.615
62467W        W63332   8.178  13.523  12.264
62468W        W63333   9.941  12.143  12.229
62469W        W63334   8.964  11.522  12.925
62470W        W63335  10.926  13.433  13.436
62471W        W63336  10.844  11.420  12.997
62472W        W63337   7.383  14.250  12.373
62473W        W63338   7.892  13.437  11.909
62474W        W63339   7.807  11.054  14.462
62475W        W63340   8.926  13.907  14.564
62476W        W63341  10.681  12.875  12.354
62477W        W63342  10.035  13.052  11.234
62478W        W63343   9.330  14.573  13.446
62479W        W63344  10.187  13.295  14.483
62480W        W63345   9.002  11.005  11.763
62481W        W63346   9.715  11.874  12.622
62482W        W63347   7.401  13.461  12.954
62483W        W63348   8.654  11.423  11.595
62484W        W63349   8.458  12.907  14.444
62485W        W63350   9.452  11.888  12.158
62486W        W63351   9.657  13.298  13.280
62487W        W63352   7.811  13.903  13.715
62488W        W63353   8.402  13.886  14.438
62489W        W63354   8.253  11.683  11.452
62490W        W63355   9.770  11.825  11.777
62491W        W63356   9.728  13.933  14.014
62492W        W63357   8.413  12.525  12.613
62493W        W63358   8.068  14.223  13.478
62494W        W63359  10.813  14.340  11.079
62495W        W63360   7.676  13.012  14.075
62496W        W63361   9.671  13.274  12.763
62497W        W63362   8.107  12.923  12.005
62498W        W63363   8.478  13.930  13.400
62499W        W63364   8.856  11.349  12.441
62500W        W63365   7.467  13.333  11.371
62501W        W63366   8.986  12.284  11.241
62502W        W63367   7.632  12.833  12.260
62503W        W63368   8.922  11.475  13.724
62504W        W63369  10.594  11.184  11.151
62505W        W63370  10.687  12.930  14.250
62506W        W63371   9.341  14.187  14.402
62507W        W63372  10.899  13.281  13.924
62508W        W63373  10.307  14.079  14.535
62509W        W63374   8.046  14.535  13.013
62510W        W63375  10.905  13.157  11.887
62511W        W63376   9.435  12.424  12.400
62512W        W63377   9.202  11.036  12.290
62513W        W63378   8.261  14.020  12.127
62514W        W63379   8.760  11.761  13.352
62515W        W63380   8.460  11.130  12.821
62516W        W63381   7.523  13.952  11.369
62517W        W63382   9.339  13.316  12.087
62518W        W63383   8.214  14.111  13.966
62519W        W63384   7.691  12.934  11.662
62520W        W63385   7.576  11.477  12.661
62521W        W63386   9.124  13.442  12.718
62522W        W63387   7.376  11.296  11.738
62523W        W63388  10.040  12.502  13.665
62524W        W63389   9.917  11.888  11.237
62525W        W63390  10.434  13.560  12.885
62526W        W63391   9.095  14.044  12.716
62527W        W63392   8.507  14.148  11.627
62528W        W63393   9.789  11.051  11.057
62529W        W63394   7.589  14.311  12.798
62530W        W63395   9.786  12.069  14.433
62531W        W63396   7.769  11.599  14.432
62532W        W63397   7.500  12.199  11.765
62533W        W63398   8.191  12.188  11.490
62534W        W63399   9.954  12.515  14.307
62535W        W63400   8.297  12.796  13.016
62536W        W63401   9.771  11.082  12.136
62537W        W63402   8.902  14.513  12.639
62538W        W63403  10.116  13.975  13.576
62539W        W63404   9.700  14.124  12.687
62540W        W63405   9.719  13.104  12.281
62541W        W63406   9.181  11.329  11.352
62542W        W63407  10.862  10.957  12.074
62543W        W63408   8.550  12.592  11.237
62544W        W63409  10.716  11.929  12.227
62545W        W63410   9.408  13.099  11.104
62546W        W63411  10.344  13.299  13.852
62547W        W63412   9.998  14.000  11.319
62548W        W63413   8.613  11.675  14.225
62549W        W63414   8.433  12.259  13.466
62550W        W63415  10.525  13.754  13.743
62551W        W63416   9.625  11.704  14.120
62552W        W63417   7.469  12.175  13.897
62553W        W63418   9.229  12.652  13.623
62554W        W63419   7.586  13.410  12.280
62555W        W63420   7.733  12.707  13.170
62556W        W63421  10.050  12.993  13.520
62557W        W63422   9.822  14.373  14.331
62558W        W63423   9.718  12.112  13.884
62559W        W63424   9.995  14.166  12.289
62560W        W63425   8.997  13.886  13.612
62561W        W63426   8.482  14.241  12.881
62562W        W63427  10.287  13.412  13.300
62563W        W63428   9.337  13.484  14.437
62564W        W63429   7.942  13.437  12.776
62565W        W63430  10.288  13.196  12.421
62566W        W63431   9.929  14.262  13.172
62567W        W63432   7.907  13.991  13.042
62568W        W63433   8.928  12.043  14.252
62569W        W63434   9.379  14.209  11.763
62570W        W63435   8.687  13.464  14.401
62571W        W63436   8.813  13.702  11.778
62572W        W63437   8.034  12.442  11.037
62573W        W63438   7.373  14.528  17.936
62574W        W63439   7.749  13.421  17.459
62575W        W63440  10.454  13.151  15.229
62576W        W63441  10.584  14.236  17.256
62577W        W63442   8.502  14.227  14.782
62578W        W63443   8.585  12.379  15.765
62579W        W63444   8.100  12.227  15.929
62580W        W63445   9.091  13.042  15.363
62581W        W63446   8.766  14.134  17.718
62582W        W63447   7.415  11.695  17.681
62583W        W63448   8.177  10.975  17.483
62584W        W63449   9.871  11.363  16.370
62585W        W63450   9.520  12.234  14.940
62586W        W63451  10.090  11.668  18.031
62587W        W63452   7.456  11.460  17.156
62588W        W63453   7.555  14.079  18.177
62589W        W63454   9.077  13.469  14.909
62590W        W63455   7.509  12.252  16.602
62591W        W63456   8.402  12.143  17.839
62592W        W63457  10.861  12.002  16.338
62593W        W63458  10.625  13.045  17.197
62594W        W63459   8.933  12.378  16.224
62595W        W63460   9.479  13.717  16.593
62596W        W63461   7.979  13.151  16.825
62597W        W63462   7.338  12.679  16.396
62598W        W63463   8.374  12.651  17.588
62599W        W63464  10.645  12.434  17.842
62600W        W63465   8.261  13.878  16.287
62601W        W63466   9.382  13.567  17.421
62602W        W63467   8.602  12.207  16.646
62603W        W63468   8.894  12.991  16.289
62604W        W63469   9.891  13.764  18.137
62605W        W63470   8.970  13.084  18.147
62606W        W63471   8.951  12.800  17.625
62607W        W63472   7.360  12.191  18.147
62608W        W63473  10.192  13.726  17.746
62609W        W63474   7.773  11.308  15.744
62610W        W63475   8.300  13.566  16.743
62611W        W63476  10.763  13.349  16.033
62612W        W63477  10.176  11.749  16.600
62613W        W63478  10.461  11.702  14.695
62614W        W63479  10.926  12.503  17.001
62615W        W63480   8.893  14.210  16.754
62616W        W63481  10.667  13.676  15.192
62617W        W63482   7.796  14.462  14.946
62618W        W63483   8.189  14.508  15.622
62619W        W63484   7.986  11.262  17.048
62620W        W63485  10.609  12.280  17.323
62621W        W63486  10.014  12.702  15.782
62622W        W63487   9.980  12.390  14.809
62623W        W63488   9.188  13.534  16.949
62624W        W63489   8.994  11.864  16.148
62625W        W63490   9.594  13.951  17.142
62626W        W63491  10.465  12.742  15.564
62627W        W63492   9.367  11.400  15.580
62628W        W63493   8.024  14.094  15.263
62629W        W63494   7.395  11.593  15.862
62630W        W63495  10.181  12.200  16.336
62631W        W63496   7.639  13.817  16.251
62632W        W63497   8.980  14.167  15.121
62633W        W63498  10.372  12.193  14.585
62634W        W63499   7.395  13.951  16.749
62635W        W63500   8.186  13.523  17.229
62636W        W63501   8.559  12.883  15.848
62637W        W63502   8.581  11.288  16.941
62638W        W63503  10.810  11.050  16.238
62639W        W63504   8.029  12.922  14.706
62640W        W63505   7.684  11.955  14.885
62641W        W63506   7.746  13.911  15.679
62642W        W63507   8.877  13.394  15.927
62643W        W63508  10.209  14.253  17.641
62644W        W63509   9.135  11.895  15.325
62645W        W63510  10.518  14.293  16.097
62646W        W63511  10.195  12.146  17.695
62647W        W63512  10.908  13.802  15.829
62648W        W63513   9.535  13.094  17.313
62649W        W63514   7.301  12.645  15.519
62650W        W63515   8.412  13.060  17.092
62651W        W63516   9.616  12.324  15.470
62652W        W63517   9.493  12.814  15.574
62653W        W63518   7.836  12.234  17.048
62654W        W63519   7.821  12.110  17.970
62655W        W63520   7.711  11.027  16.129
62656W        W63521   9.479  11.374  16.690
62657W        W63522   9.127  11.559  17.853
62658W        W63523   9.482  11.708  15.031
62659W        W63524  10.665  14.101  17.785
62660W        W63525   9.632  11.182  17.824
62661W        W63526  10.651  13.483  17.946
62662W        W63527  10.081  11.650  17.542
62663W        W63528   9.881  11.588  15.812
62664W        W63529  10.274  12.722  18.216
62665W        W63530   8.014  14.298  16.202
62666W        W63531   8.672  12.015  15.188
62667W        W63532   8.241  11.299  17.852
62668W        W63533  10.293  11.783  15.533
62669W        W63534  10.660  12.265  15.478
62670W        W63535   8.403  14.482  17.949
62671W        W63536   8.329  11.018  15.184
62672W        W63537  10.650  11.552  16.219
62673W        W63538  10.800  13.801  14.664
62674W        W63539   7.707  13.004  16.366
62675W        W63540   9.624  11.591  14.596
62676W        W63541  10.758  13.923  16.316
62677W        W63542  10.797  11.117  17.066
62678W        W63543   9.242  12.329  17.620
62679W        W63544   9.335  13.668  15.323
62680W        W63545   9.735  12.962  18.063
62681W        W63546   9.409  10.939  16.372
62682W        W63547   8.021  11.842  16.435
62683W        W63548   7.575  13.042  17.209
62684W        W63549   9.434  14.235  15.915
62685W        W63550  10.628  11.832  16.787
62686W        W63551   9.265  14.179  17.554
62687W        W63552  10.608  13.238  14.759
62688W        W63553   9.043  12.721  15.820
62689W        W63554  10.895  11.232  17.561
62690W        W63555   9.044  13.067  17.155
62691W        W63556   9.261  11.953  16.600
62692W        W63557  10.113  12.251  15.438
62693W        W63558  10.400  11.984  15.080
62694W        W63559  10.209  14.024  15.469
62695W        W63560  10.043  13.627  16.265
62696W        W63561   9.939  12.706  15.243
62697W        W63562   9.372  12.916  16.229
62698W        W63563  10.253  12.704  16.296
62699W        W63564   7.628  11.719  16.720
62700W        W63565  10.406  12.771  17.547
62701W        W63566  10.757  14.389  16.693
62702W        W63567   8.687  13.833  16.095
62703W        W63568   9.694  14.366  17.419
62704W        W63569   9.688  11.696  17.183
62705W        W63570   8.895  14.404  17.244
62706W        W63571  10.592  11.358  15.710
62707W        W63572  10.383  12.677  17.011
62708W        W63573   7.366  11.998  17.049
62709W        W63574  10.226  11.793  16.067
62710W        W63575  10.637  11.944  17.844
62711W        W63576   9.522  13.643  16.062
62712W        W63577   8.778  14.234  15.675
62713W        W63578   7.893  11.414  14.933
62714W        W63579   8.997  11.068  16.743
62715W        W63580   8.025  14.188  14.591
62716W        W63581   8.399  12.654  15.342
62717W        W63582   9.053  13.283  17.655
62718W        W63583   8.883  11.641  15.645
62719W        W63584  10.239  11.238  16.073
62720W        W63585   9.959  14.520  16.401
62721W        W63586   9.371  14.168  16.741
62722W        W63587   8.767  13.205  16.702
62723W        W63588  10.537  13.928  16.828
62724W        W63589   8.231  11.431  15.597
62725W        W63590   8.753  13.728  16.557
62726W        W63591   8.236  11.659  14.622
62727W        W63592   9.037  12.268  17.016
62728W        W63593   9.885  11.134  16.886
62729W        W63594   7.305  12.977  16.771
62730W        W63595   9.009  12.795  14.929
62731W        W63596   8.277  11.110  14.699
62732W        W63597   9.015  12.191  15.750
62733W        W63598   9.985  11.167  17.449
62734W        W63599   8.573  13.179  17.558
62735W        W63600   9.377  12.961  17.775
62736W        W63601   9.994  12.991  17.668
62737W        W63602   9.278  11.131  18.173
62738W        W63603   8.500  11.747  16.566
62739W        W63604   7.926  11.703  15.964
62740W        W63605   7.712  14.415  15.640
62741W        W63606   9.044  13.745  17.765
62742W        W63607   8.079  13.230  15.124
62743W        W63608   9.759  12.615  16.345
62744W        W63609  10.039  12.414  16.744
62745W        W63610   9.244  13.088  16.678
62746W        W63611   9.714  13.462  14.810
62747W        W63612   9.386  11.483  16.138
62748W        W63613  10.865  11.761  15.406
62749W        W63614   7.359  14.350  17.437
62750W        W63615   7.776  13.576  16.969
62751W        W63616   7.343  14.422  15.201
62752W        W63617   9.242  11.692  17.007
62753W        W63618   8.605  13.715  14.856
62754W        W63619  10.510  14.097  15.042
62755W        W63620   9.485  12.750  15.056
62756W        W63621   8.328  11.941  15.573
62757W        W63622   9.160  11.851  14.625
62758W        W63623   9.744  13.416  17.803
62759W        W63624  10.097  11.322  15.420
62760W        W63625   7.427  11.170  14.868
62761W        W63626   8.713  13.489  17.158
62762W        W63627   8.512  13.405  16.250
62763W        W63628   8.254  13.357  14.648
62764W        W63629   7.495  13.598  15.416
62765W        W63630   7.999  12.668  17.858
62766W        W63631   8.703  11.228  18.044
62767W        W63632   9.412  11.370  17.400
62768W        W63633   8.607  11.138  15.681
62769W        W63634   9.666  11.215  15.186
62770W        W63635   7.611  11.147  16.763
62771W        W63636   7.659  12.110  16.133
62772W        W63637  10.348  11.218  16.539
62773W        W63638   7.770  11.716  15.353
62774W        W63639  10.341  11.404  16.969
62775W        W63640  10.737  12.607  14.654
62776W        W63641   8.029  11.365  16.473
62777W        W63642   9.143  11.937  17.413
62778W        W63643   7.291  11.627  14.891
62779W        W63644   8.077  13.016  17.452
62780W        W63645   9.435  12.414  16.631
62781W        W63646   9.302  14.493  14.927
62782W        W63647   7.448  13.000  14.624
62783W        W63648   8.183  13.411  17.750
62784W        W63649   7.704  12.578  17.381
62785W        W63650   8.695  12.683  17.175
62786W        W63651  10.463  11.042  17.437
62787W        W63652  10.861  12.652  17.428
62788W        W63653  10.849  12.852  15.114
62789W        W63654   9.712  13.184  15.213
62790W        W63655  10.186  14.484  14.908
62791W        W63656   9.363  12.474  18.050
62792W        W63657   7.693  13.441  18.090
62793W        W63658  10.899  11.363  18.042
62794W        W63659  10.617  12.291  16.663
62795W        W63660   8.925  14.421  18.140
62796W        W63661   8.780  11.050  14.867
62797W        W63662  10.319  13.649  14.810
62798W        W63663   8.088  11.742  17.696
62799W        W63664   8.522  13.736  17.558
62800W        W63665  10.648  11.727  17.356
62801W        W63666   9.859  14.386  15.324
62802W        W63667  10.098  13.005  16.691
62803W        W63668   8.348  11.421  17.358
62804W        W63669   8.817  12.490  18.115
62805W        W63670   8.320  13.669  15.309
62806W        W63671  10.075  13.167  15.573
62807W        W63672   7.843  11.793  17.297
62808W        W63673   9.172  13.855  15.761
62809W        W63674  10.922  12.415  15.942
62810W        W63675   9.144  11.048  17.661
62811W        W63676   9.924  13.753  16.740
62812W        W63677  10.227  14.097  16.448
62813W        W63678   9.446  13.899  14.876
62814W        W63679   7.456  13.791  17.718
62815W        W63680   8.199  11.783  16.956
62816W        W63681   8.169  11.131  16.066
62817W        W63682   9.790  11.973  16.758
62818W        W63683   8.588  13.144  14.958
62819W        W63684  10.586  13.086  16.457
62820W        W63685   7.913  13.844  17.880
62821W        W63686  10.300  14.526  15.677
62822W        W63687   8.399  11.546  16.122
62823W        W63688   8.168  13.039  16.212
62824W        W63689   8.481  14.450  16.962
62825W        W63690  10.548  14.546  17.994
62826W        W63691   9.707  12.734  16.927
62827W        W63692   7.556  12.532  14.842
62828W        W63693  10.690  14.190  15.539
62829W        W63694  10.527  11.514  15.158
62830W        W63695   8.666  11.033  17.561
62831W        W63696  10.372  13.835  16.019
62832W        W63697  10.401  12.391  15.924
62833W        W63698   8.518  12.064  16.140
62834W        W63699   8.763  12.326  17.464
62835W        W63700   9.874  13.479  17.327
62836W        W63701   8.524  11.933  17.439
62837W        W63702   8.503  14.399  16.055
62838W        W63703   7.820  14.358  17.689
62839W        W63704   7.932  13.719  14.819
62840W        W63705  10.449  13.477  15.629
62841W        W63706   8.053  12.269  17.515
62842W        W63707  10.826  12.199  14.996
62843W        W63708   8.571  13.256  15.467
62844W        W63709   9.670  12.638  17.548
62845W        W63710   9.561  12.266  17.092
62846W        W63711   8.121  12.638  17.121
62847W        W63712  10.331  14.526  16.950
62848W        W63713  10.122  11.160  17.944
62849W        W63714   7.786  11.310  17.531
62850W        W63715   8.125  12.333  16.584
62851W        W63716   8.494  12.147  14.706
62852W        W63717   7.297  13.906  17.251
62853W        W63718   8.882  12.615  16.694
62854W        W63719   8.705  11.640  14.799
62855W        W63720   7.840  12.456  15.580
62856W        W63721   7.611  14.308  17.017
62857W        W63722  10.406  12.534  15.125
62858W        W63723  10.501  11.450  17.811
62859W        W63724   9.937  13.659  15.774
62860W        W63725   7.535  12.583  17.951
62861W        W63726  10.501  11.047  15.247
62862W        W63727  10.021  13.522  15.258
62863W        W63728   8.923  12.580  15.343
62864W        W63729  10.110  11.384  14.866
62865W        W63730  10.175  11.991  17.052
62866W        W63731   7.884  12.584  16.259
62867W        W63732   8.178  13.523  15.908
62868W        W63733   9.941  12.143  15.873
62869W        W63734   8.964  11.522  16.569
62870W        W63735  10.926  13.433  17.080
62871W        W63736  10.844  11.420  16.641
62872W        W63737   7.383  14.250  16.017
62873W        W63738   7.892  13.437  15.553
62874W        W63739   7.807  11.054  18.106
62875W        W63740   8.926  13.907  18.208
62876W        W63741  10.681  12.875  15.998
62877W        W63742  10.035  13.052  14.878
62878W        W63743   9.330  14.573  17.090
62879W        W63744  10.187  13.295  18.127
62880W        W63745   9.002  11.005  15.407
62881W        W63746   9.715  11.874  16.266
62882W        W63747   7.401  13.461  16.598
62883W        W63748   8.654  11.423  15.239
62884W        W63749   8.458  12.907  18.088
62885W        W63750   9.452  11.888  15.802
62886W        W63751   9.657  13.298  16.924
62887W        W63752   7.811  13.903  17.359
62888W        W63753   8.402  13.886  18.082
62889W        W63754   8.253  11.683  15.096
62890W        W63755   9.770  11.825  15.421
62891W        W63756   9.728  13.933  17.658
62892W        W63757   8.413  12.525  16.257
62893W        W63758   8.068  14.223  17.122
62894W        W63759  10.813  14.340  14.723
62895W        W63760   7.676  13.012  17.719
62896W        W63761   9.671  13.274  16.407
62897W        W63762   8.107  12.923  15.649
62898W        W63763   8.478  13.930  17.044
62899W        W63764   8.856  11.349  16.085
62900W        W63765   7.467  13.333  15.015
62901W        W63766   8.986  12.284  14.885
62902W        W63767   7.632  12.833  15.904
62903W        W63768   8.922  11.475  17.368
62904W        W63769  10.594  11.184  14.795
62905W        W63770  10.687  12.930  17.894
62906W        W63771   9.341  14.187  18.046
62907W        W63772  10.899  13.281  17.568
62908W        W63773  10.307  14.079  18.179
62909W        W63774   8.046  14.535  16.657
62910W        W63775  10.905  13.157  15.531
62911W        W63776   9.435  12.424  16.044
62912W        W63777   9.202  11.036  15.934
62913W        W63778   8.261  14.020  15.771
62914W        W63779   8.760  11.761  16.996
62915W        W63780   8.460  11.130  16.465
62916W        W63781   7.523  13.952  15.013
62917W        W63782   9.339  13.316  15.731
62918W        W63783   8.214  14.111  17.610
62919W        W63784   7.691  12.934  15.306
62920W        W63785   7.576  11.477  16.305
62921W        W63786   9.124  13.442  16.362
62922W        W63787   7.376  11.296  15.382
62923W        W63788  10.040  12.502  17.309
62924W        W63789   9.917  11.888  14.881
62925W        W63790  10.434  13.560  16.529
62926W        W63791   9.095  14.044  16.360
62927W        W63792   8.507  14.148  15.271
62928W        W63793   9.789  11.051  14.701
62929W        W63794   7.589  14.311  16.442
62930W        W63795   9.786  12.069  18.077
62931W        W63796   7.769  11.599  18.076
62932W        W63797   7.500  12.199  15.409
62933W        W63798   8.191  12.188  15.134
62934W        W63799   9.954  12.515  17.951
62935W        W63800   8.297  12.796  16.660
62936W        W63801   9.771  11.082  15.780
62937W        W63802   8.902  14.513  16.283
62938W        W63803  10.116  13.975  17.220
62939W        W63804   9.700  14.124  16.331
62940W        W63805   9.719  13.104  15.925
62941W        W63806   9.181  11.329  14.996
62942W        W63807  10.862  10.957  15.718
62943W        W63808   8.550  12.592  14.881
62944W        W63809  10.716  11.929  15.871
62945W        W63810   9.408  13.099  14.748
62946W        W63811  10.344  13.299  17.496
62947W        W63812   9.998  14.000  14.963
62948W        W63813   8.613  11.675  17.869
62949W        W63814   8.433  12.259  17.110
62950W        W63815  10.525  13.754  17.387
62951W        W63816   9.625  11.704  17.764
62952W        W63817   7.469  12.175  17.541
62953W        W63818   9.229  12.652  17.267
62954W        W63819   7.586  13.410  15.924
62955W        W63820   7.733  12.707  16.814
62956W        W63821  10.050  12.993  17.164
62957W        W63822   9.822  14.373  17.975
62958W        W63823   9.718  12.112  17.528
62959W        W63824   9.995  14.166  15.933
62960W        W63825   8.997  13.886  17.256
62961W        W63826   8.482  14.241  16.525
62962W        W63827  10.287  13.412  16.944
62963W        W63828   9.337  13.484  18.081
62964W        W63829   7.942  13.437  16.420
62965W        W63830  10.288  13.196  16.065
62966W        W63831   9.929  14.262  16.816
62967W        W63832   7.907  13.991  16.686
62968W        W63833   8.928  12.043  17.896
62969W        W63834   9.379  14.209  15.407
62970W        W63835   8.687  13.464  18.045
62971W        W63836   8.813  13.702  15.422
62972W        W63837   8.034  12.442  14.681
62973W        W63838   7.373  14.528  21.580
62974W        W63839   7.749  13.421  21.103
62975W        W63840  10.454  13.151  18.873
62976W        W63841  10.584  14.236  20.900
62977W        W63842   8.502  14.227  18.426
62978W        W63843   8.585  12.379  19.409
62979W        W63844   8.100  12.227  19.573
62980W        W63845   9.091  13.042  19.007
62981W        W63846   8.766  14.134  21.362
62982W        W63847   7.415  11.695  21.325
62983W        W63848   8.177  10.975  21.127
62984W        W63849   9.871  11.363  20.014
62985W        W63850   9.520  12.234  18.584
62986W        W63851  10.090  11.668  21.675
62987W        W63852   7.456  11.460  20.800
62988W        W63853   7.555  14.079  21.821
62989W        W63854   9.077  13.469  18.553
62990W        W63855   7.509  12.252  20.246
62991W        W63856   8.402  12.143  21.483
62992W        W63857  10.861  12.002  19.982
62993W        W63858  10.625  13.045  20.841
62994W        W63859   8.933  12.378  19.868
62995W        W63860   9.479  13.717  20.237
62996W        W63861   7.979  13.151  20.469
62997W        W63862   7.338  12.679  20.040
62998W        W63863   8.374  12.651  21.232
62999W        W63864  10.645  12.434  21.486
63000W        W63865   8.261  13.878  19.931
63001W        W63866   9.382  13.567  21.065
63002W        W63867   8.602  12.207  20.290
63003W        W63868   8.894  12.991  19.933
63004W        W63869   9.891  13.764  21.781
63005W        W63870   8.970  13.084  21.791
63006W        W63871   8.951  12.800  21.269
63007W        W63872   7.360  12.191  21.791
63008W        W63873  10.192  13.726  21.390
63009W        W63874   7.773  11.308  19.388
63010W        W63875   8.300  13.566  20.387
63011W        W63876  10.763  13.349  19.677
63012W        W63877  10.176  11.749  20.244
63013W        W63878  10.461  11.702  18.339
63014W        W63879  10.926  12.503  20.645
63015W        W63880   8.893  14.210  20.398
63016W        W63881  10.667  13.676  18.836
63017W        W63882   7.796  14.462  18.590
63018W        W63883   8.189  14.508  19.266
63019W        W63884   7.986  11.262  20.692
63020W        W63885  10.609  12.280  20.967
63021W        W63886  10.014  12.702  19.426
63022W        W63887   9.980  12.390  18.453
63023W        W63888   9.188  13.534  20.593
63024W        W63889   8.994  11.864  19.792
63025W        W63890   9.594  13.951  20.786
63026W        W63891  10.465  12.742  19.208
63027W        W63892   9.367  11.400  19.224
63028W        W63893   8.024  14.094  18.907
63029W        W63894   7.395  11.593  19.506
63030W        W63895  10.181  12.200  19.980
63031W        W63896   7.639  13.817  19.895
63032W        W63897   8.980  14.167  18.765
63033W        W63898  10.372  12.193  18.229
63034W        W63899   7.395  13.951  20.393
63035W        W63900   8.186  13.523  20.873
63036W        W63901   8.559  12.883  19.492
63037W        W63902   8.581  11.288  20.585
63038W        W63903  10.810  11.050  19.882
63039W        W63904   8.029  12.922  18.350
63040W        W63905   7.684  11.955  18.529
63041W        W63906   7.746  13.911  19.323
63042W        W63907   8.877  13.394  19.571
63043W        W63908  10.209  14.253  21.285
63044W        W63909   9.135  11.895  18.969
63045W        W63910  10.518  14.293  19.741
63046W        W63911  10.195  12.146  21.339
63047W        W63912  10.908  13.802  19.473
63048W        W63913   9.535  13.094  20.957
63049W        W63914   7.301  12.645  19.163
63050W        W63915   8.412  13.060  20.736
63051W        W63916   9.616  12.324  19.114
63052W        W63917   9.493  12.814  19.218
63053W        W63918   7.836  12.234  20.692
63054W        W63919   7.821  12.110  21.614
63055W        W63920   7.711  11.027  19.773
63056W        W63921   9.479  11.374  20.334
63057W        W63922   9.127  11.559  21.497
63058W        W63923   9.482  11.708  18.675
63059W        W63924  10.665  14.101  21.429
63060W        W63925   9.632  11.182  21.468
63061W        W63926  10.651  13.483  21.590
63062W        W63927  10.081  11.650  21.186
63063W        W63928   9.881  11.588  19.456
63064W        W63929  10.274  12.722  21.860
63065W        W63930   8.014  14.298  19.846
63066W        W63931   8.672  12.015  18.832
63067W        W63932   8.241  11.299  21.496
63068W        W63933  10.293  11.783  19.177
63069W        W63934  10.660  12.265  19.122
63070W        W63935   8.403  14.482  21.593
63071W        W63936   8.329  11.018  18.828
63072W        W63937  10.650  11.552  19.863
63073W        W63938  10.800  13.801  18.308
63074W        W63939   7.707  13.004  20.010
63075W        W63940   9.624  11.591  18.240
63076W        W63941  10.758  13.923  19.960
63077W        W63942  10.797  11.117  20.710
63078W        W63943   9.242  12.329  21.264
63079W        W63944   9.335  13.668  18.967
63080W        W63945   9.735  12.962  21.707
63081W        W63946   9.409  10.939  20.016
63082W        W63947   8.021  11.842  20.079
63083W        W63948   7.575  13.042  20.853
63084W        W63949   9.434  14.235  19.559
63085W        W63950  10.628  11.832  20.431
63086W        W63951   9.265  14.179  21.198
63087W        W63952  10.608  13.238  18.403
63088W        W63953   9.043  12.721  19.464
63089W        W63954  10.895  11.232  21.205
63090W        W63955   9.044  13.067  20.799
63091W        W63956   9.261  11.953  20.244
63092W        W63957  10.113  12.251  19.082
63093W        W63958  10.400  11.984  18.724
63094W        W63959  10.209  14.024  19.113
63095W        W63960  10.043  13.627  19.909
63096W        W63961   9.939  12.706  18.887
63097W        W63962   9.372  12.916  19.873
63098W        W63963  10.253  12.704  19.940
63099W        W63964   7.628  11.719  20.364
63100W        W63965  10.406  12.771  21.191
63101W        W63966  10.757  14.389  20.337
63102W        W63967   8.687  13.833  19.739
63103W        W63968   9.694  14.366  21.063
63104W        W63969   9.688  11.696  20.827
63105W        W63970   8.895  14.404  20.888
63106W        W63971  10.592  11.358  19.354
63107W        W63972  10.383  12.677  20.655
63108W        W63973   7.366  11.998  20.693
63109W        W63974  10.226  11.793  19.711
63110W        W63975  10.637  11.944  21.488
63111W        W63976   9.522  13.643  19.706
63112W        W63977   8.778  14.234  19.319
63113W        W63978   7.893  11.414  18.577
63114W        W63979   8.997  11.068  20.387
63115W        W63980   8.025  14.188  18.235
63116W        W63981   8.399  12.654  18.986
63117W        W63982   9.053  13.283  21.299
63118W        W63983   8.883  11.641  19.289
63119W        W63984  10.239  11.238  19.717
63120W        W63985   9.959  14.520  20.045
63121W        W63986   9.371  14.168  20.385
63122W        W63987   8.767  13.205  20.346
63123W        W63988  10.537  13.928  20.472
63124W        W63989   8.231  11.431  19.241
63125W        W63990   8.753  13.728  20.201
63126W        W63991   8.236  11.659  18.266
63127W        W63992   9.037  12.268  20.660
63128W        W63993   9.885  11.134  20.530
63129W        W63994   7.305  12.977  20.415
63130W        W63995   9.009  12.795  18.573
63131W        W63996   8.277  11.110  18.343
63132W        W63997   9.015  12.191  19.394
63133W        W63998   9.985  11.167  21.093
63134W        W63999   8.573  13.179  21.202
63135W        W64000   9.377  12.961  21.419
63136W        W64001   9.994  12.991  21.312
63137W        W64002   9.278  11.131  21.817
63138W        W64003   8.500  11.747  20.210
63139W        W64004   7.926  11.703  19.608
63140W        W64005   7.712  14.415  19.284
63141W        W64006   9.044  13.745  21.409
63142W        W64007   8.079  13.230  18.768
63143W        W64008   9.759  12.615  19.989
63144W        W64009  10.039  12.414  20.388
63145W        W64010   9.244  13.088  20.322
63146W        W64011   9.714  13.462  18.454
63147W        W64012   9.386  11.483  19.782
63148W        W64013  10.865  11.761  19.050
63149W        W64014   7.359  14.350  21.081
63150W        W64015   7.776  13.576  20.613
63151W        W64016   7.343  14.422  18.845
63152W        W64017   9.242  11.692  20.651
63153W        W64018   8.605  13.715  18.500
63154W        W64019  10.510  14.097  18.686
63155W        W64020   9.485  12.750  18.700
63156W        W64021   8.328  11.941  19.217
63157W        W64022   9.160  11.851  18.269
63158W        W64023   9.744  13.416  21.447
63159W        W64024  10.097  11.322  19.064
63160W        W64025   7.427  11.170  18.512
63161W        W64026   8.713  13.489  20.802
63162W        W64027   8.512  13.405  19.894
63163W        W64028   8.254  13.357  18.292
63164W        W64029   7.495  13.598  19.060
63165W        W64030   7.999  12.668  21.502
63166W        W64031   8.703  11.228  21.688
63167W        W64032   9.412  11.370  21.044
63168W        W64033   8.607  11.138  19.325
63169W        W64034   9.666  11.215  18.830
63170W        W64035   7.611  11.147  20.407
63171W        W64036   7.659  12.110  19.777
63172W        W64037  10.348  11.218  20.183
63173W        W64038   7.770  11.716  18.997
63174W        W64039  10.341  11.404  20.613
63175W        W64040  10.737  12.607  18.298
63176W        W64041   8.029  11.365  20.117
63177W        W64042   9.143  11.937  21.057
63178W        W64043   7.291  11.627  18.535
63179W        W64044   8.077  13.016  21.096
63180W        W64045   9.435  12.414  20.275
63181W        W64046   9.302  14.493  18.571
63182W        W64047   7.448  13.000  18.268
63183W        W64048   8.183  13.411  21.394
63184W        W64049   7.704  12.578  21.025
63185W        W64050   8.695  12.683  20.819
63186W        W64051  10.463  11.042  21.081
63187W        W64052  10.861  12.652  21.072
63188W        W64053  10.849  12.852  18.758
63189W        W64054   9.712  13.184  18.857
63190W        W64055  10.186  14.484  18.552
63191W        W64056   9.363  12.474  21.694
63192W        W64057   7.693  13.441  21.734
63193W        W64058  10.899  11.363  21.686
63194W        W64059  10.617  12.291  20.307
63195W        W64060   8.925  14.421  21.784
63196W        W64061   8.780  11.050  18.511
63197W        W64062  10.319  13.649  18.454
63198W        W64063   8.088  11.742  21.340
63199W        W64064   8.522  13.736  21.202
63200W        W64065  10.648  11.727  21.000
63201W        W64066   9.859  14.386  18.968
63202W        W64067  10.098  13.005  20.335
63203W        W64068   8.348  11.421  21.002
63204W        W64069   8.817  12.490  21.759
63205W        W64070   8.320  13.669  18.953
63206W        W64071  10.075  13.167  19.217
63207W        W64072   7.843  11.793  20.941
63208W        W64073   9.172  13.855  19.405
63209W        W64074  10.922  12.415  19.586
63210W        W64075   9.144  11.048  21.305
63211W        W64076   9.924  13.753  20.384
63212W        W64077  10.227  14.097  20.092
63213W        W64078   9.446  13.899  18.520
63214W        W64079   7.456  13.791  21.362
63215W        W64080   8.199  11.783  20.600
63216W        W64081   8.169  11.131  19.710
63217W        W64082   9.790  11.973  20.402
63218W        W64083   8.588  13.144  18.602
63219W        W64084  10.586  13.086  20.101
63220W        W64085   7.913  13.844  21.524
63221W        W64086  10.300  14.526  19.321
63222W        W64087   8.399  11.546  19.766
63223W        W64088   8.168  13.039  19.856
63224W        W64089   8.481  14.450  20.606
63225W        W64090  10.548  14.546  21.638
63226W        W64091   9.707  12.734  20.571
63227W        W64092   7.556  12.532  18.486
63228W        W64093  10.690  14.190  19.183
63229W        W64094  10.527  11.514  18.802
63230W        W64095   8.666  11.033  21.205
63231W        W64096  10.372  13.835  19.663
63232W        W64097  10.401  12.391  19.568
63233W        W64098   8.518  12.064  19.784
63234W        W64099   8.763  12.326  21.108
63235W        W64100   9.874  13.479  20.971
63236W        W64101   8.524  11.933  21.083
63237W        W64102   8.503  14.399  19.699
63238W        W64103   7.820  14.358  21.333
63239W        W64104   7.932  13.719  18.463
63240W        W64105  10.449  13.477  19.273
63241W        W64106   8.053  12.269  21.159
63242W        W64107  10.826  12.199  18.640
63243W        W64108   8.571  13.256  19.111
63244W        W64109   9.670  12.638  21.192
63245W        W64110   9.561  12.266  20.736
63246W        W64111   8.121  12.638  20.765
63247W        W64112  10.331  14.526  20.594
63248W        W64113  10.122  11.160  21.588
63249W        W64114   7.786  11.310  21.175
63250W        W64115   8.125  12.333  20.228
63251W        W64116   8.494  12.147  18.350
63252W        W64117   7.297  13.906  20.895
63253W        W64118   8.882  12.615  20.338
63254W        W64119   8.705  11.640  18.443
63255W        W64120   7.840  12.456  19.224
63256W        W64121   7.611  14.308  20.661
63257W        W64122  10.406  12.534  18.769
63258W        W64123  10.501  11.450  21.455
63259W        W64124   9.937  13.659  19.418
63260W        W64125   7.535  12.583  21.595
63261W        W64126  10.501  11.047  18.891
63262W        W64127  10.021  13.522  18.902
63263W        W64128   8.923  12.580  18.987
63264W        W64129  10.110  11.384  18.510
63265W        W64130  10.175  11.991  20.696
63266W        W64131   7.884  12.584  19.903
63267W        W64132   8.178  13.523  19.552
63268W        W64133   9.941  12.143  19.517
63269W        W64134   8.964  11.522  20.213
63270W        W64135  10.926  13.433  20.724
63271W        W64136  10.844  11.420  20.285
63272W        W64137   7.383  14.250  19.661
63273W        W64138   7.892  13.437  19.197
63274W        W64139   7.807  11.054  21.750
63275W        W64140   8.926  13.907  21.852
63276W        W64141  10.681  12.875  19.642
63277W        W64142  10.035  13.052  18.522
63278W        W64143   9.330  14.573  20.734
63279W        W64144  10.187  13.295  21.771
63280W        W64145   9.002  11.005  19.051
63281W        W64146   9.715  11.874  19.910
63282W        W64147   7.401  13.461  20.242
63283W        W64148   8.654  11.423  18.883
63284W        W64149   8.458  12.907  21.732
63285W        W64150   9.452  11.888  19.446
63286W        W64151   9.657  13.298  20.568
63287W        W64152   7.811  13.903  21.003
63288W        W64153   8.402  13.886  21.726
63289W        W64154   8.253  11.683  18.740
63290W        W64155   9.770  11.825  19.065
63291W        W64156   9.728  13.933  21.302
63292W        W64157   8.413  12.525  19.901
63293W        W64158   8.068  14.223  20.766
63294W        W64159  10.813  14.340  18.367
63295W        W64160   7.676  13.012  21.363
63296W        W64161   9.671  13.274  20.051
63297W        W64162   8.107  12.923  19.293
63298W        W64163   8.478  13.930  20.688
63299W        W64164   8.856  11.349  19.729
63300W        W64165   7.467  13.333  18.659
63301W        W64166   8.986  12.284  18.529
63302W        W64167   7.632  12.833  19.548
63303W        W64168   8.922  11.475  21.012
63304W        W64169  10.594  11.184  18.439
63305W        W64170  10.687  12.930  21.538
63306W        W64171   9.341  14.187  21.690
63307W        W64172  10.899  13.281  21.212
63308W        W64173  10.307  14.079  21.823
63309W        W64174   8.046  14.535  20.301
63310W        W64175  10.905  13.157  19.175
63311W        W64176   9.435  12.424  19.688
63312W        W64177   9.202  11.036  19.578
63313W        W64178   8.261  14.020  19.415
63314W        W64179   8.760  11.761  20.640
63315W        W64180   8.460  11.130  20.109
63316W        W64181   7.523  13.952  18.657
63317W        W64182   9.339  13.316  19.375
63318W        W64183   8.214  14.111  21.254
63319W        W64184   7.691  12.934  18.950
63320W        W64185   7.576  11.477  19.949
63321W        W64186   9.124  13.442  20.006
63322W        W64187   7.376  11.296  19.026
63323W        W64188  10.040  12.502  20.953
63324W        W64189   9.917  11.888  18.525
63325W        W64190  10.434  13.560  20.173
63326W        W64191   9.095  14.044  20.004
63327W        W64192   8.507  14.148  18.915
63328W        W64193   9.789  11.051  18.345
63329W        W64194   7.589  14.311  20.086
63330W        W64195   9.786  12.069  21.721
63331W        W64196   7.769  11.599  21.720
63332W        W64197   7.500  12.199  19.053
63333W        W64198   8.191  12.188  18.778
63334W        W64199   9.954  12.515  21.595
63335W        W64200   8.297  12.796  20.304
63336W        W64201   9.771  11.082  19.424
63337W        W64202   8.902  14.513  19.927
63338W        W64203  10.116  13.975  20.864
63339W        W64204   9.700  14.124  19.975
63340W        W64205   9.719  13.104  19.569
63341W        W64206   9.181  11.329  18.640
63342W        W64207  10.862  10.957  19.362
63343W        W64208   8.550  12.592  18.525
63344W        W64209  10.716  11.929  19.515
63345W        W64210   9.408  13.099  18.392
63346W        W64211  10.344  13.299  21.140
63347W        W64212   9.998  14.000  18.607
63348W        W64213   8.613  11.675  21.513
63349W        W64214   8.433  12.259  20.754
63350W        W64215  10.525  13.754  21.031
63351W        W64216   9.625  11.704  21.408
63352W        W64217   7.469  12.175  21.185
63353W        W64218   9.229  12.652  20.911
63354W        W64219   7.586  13.410  19.568
63355W        W64220   7.733  12.707  20.458
63356W        W64221  10.050  12.993  20.808
63357W        W64222   9.822  14.373  21.619
63358W        W64223   9.718  12.112  21.172
63359W        W64224   9.995  14.166  19.577
63360W        W64225   8.997  13.886  20.900
63361W        W64226   8.482  14.241  20.169
63362W        W64227  10.287  13.412  20.588
63363W        W64228   9.337  13.484  21.725
63364W        W64229   7.942  13.437  20.064
63365W        W64230  10.288  13.196  19.709
63366W        W64231   9.929  14.262  20.460
63367W        W64232   7.907  13.991  20.330
63368W        W64233   8.928  12.043  21.540
63369W        W64234   9.379  14.209  19.051
63370W        W64235   8.687  13.464  21.689
63371W        W64236   8.813  13.702  19.066
63372W        W64237   8.034  12.442  18.325
63373W        W64238   7.373  14.528  25.225
63374W        W64239   7.749  13.421  24.748
63375W        W64240  10.454  13.151  22.518
63376W        W64241  10.584  14.236  24.545
63377W        W64242   8.502  14.227  22.071
63378W        W64243   8.585  12.379  23.054
63379W        W64244   8.100  12.227  23.218
63380W        W64245   9.091  13.042  22.652
63381W        W64246   8.766  14.134  25.007
63382W        W64247   7.415  11.695  24.970
63383W        W64248   8.177  10.975  24.772
63384W        W64249   9.871  11.363  23.659
63385W        W64250   9.520  12.234  22.229
63386W        W64251  10.090  11.668  25.320
63387W        W64252   7.456  11.460  24.445
63388W        W64253   7.555  14.079  25.466
63389W        W64254   9.077  13.469  22.198
63390W        W64255   7.509  12.252  23.891
63391W        W64256   8.402  12.143  25.128
63392W        W64257  10.861  12.002  23.627
63393W        W64258  10.625  13.045  24.486
63394W        W64259   8.933  12.378  23.513
63395W        W64260   9.479  13.717  23.882
63396W        W64261   7.979  13.151  24.114
63397W        W64262   7.338  12.679  23.685
63398W        W64263   8.374  12.651  24.877
63399W        W64264  10.645  12.434  25.131
63400W        W64265   8.261  13.878  23.576
63401W        W64266   9.382  13.567  24.710
63402W        W64267   8.602  12.207  23.935
63403W        W64268   8.894  12.991  23.578
63404W        W64269   9.891  13.764  25.426
63405W        W64270   8.970  13.084  25.436
63406W        W64271   8.951  12.800  24.914
63407W        W64272   7.360  12.191  25.436
63408W        W64273  10.192  13.726  25.035
63409W        W64274   7.773  11.308  23.033
63410W        W64275   8.300  13.566  24.032
63411W        W64276  10.763  13.349  23.322
63412W        W64277  10.176  11.749  23.889
63413W        W64278  10.461  11.702  21.984
63414W        W64279  10.926  12.503  24.290
63415W        W64280   8.893  14.210  24.043
63416W        W64281  10.667  13.676  22.481
63417W        W64282   7.796  14.462  22.235
63418W        W64283   8.189  14.508  22.911
63419W        W64284   7.986  11.262  24.337
63420W        W64285  10.609  12.280  24.612
63421W        W64286  10.014  12.702  23.071
63422W        W64287   9.980  12.390  22.098
63423W        W64288   9.188  13.534  24.238
63424W        W64289   8.994  11.864  23.437
63425W        W64290   9.594  13.951  24.431
63426W        W64291  10.465  12.742  22.853
63427W        W64292   9.367  11.400  22.869
63428W        W64293   8.024  14.094  22.552
63429W        W64294   7.395  11.593  23.151
63430W        W64295  10.181  12.200  23.625
63431W        W64296   7.639  13.817  23.540
63432W        W64297   8.980  14.167  22.410
63433W        W64298  10.372  12.193  21.874
63434W        W64299   7.395  13.951  24.038
63435W        W64300   8.186  13.523  24.518
63436W        W64301   8.559  12.883  23.137
63437W        W64302   8.581  11.288  24.230
63438W        W64303  10.810  11.050  23.527
63439W        W64304   8.029  12.922  21.995
63440W        W64305   7.684  11.955  22.174
63441W        W64306   7.746  13.911  22.968
63442W        W64307   8.877  13.394  23.216
63443W        W64308  10.209  14.253  24.930
63444W        W64309   9.135  11.895  22.614
63445W        W64310  10.518  14.293  23.386
63446W        W64311  10.195  12.146  24.984
63447W        W64312  10.908  13.802  23.118
63448W        W64313   9.535  13.094  24.602
63449W        W64314   7.301  12.645  22.808
63450W        W64315   8.412  13.060  24.381
63451W        W64316   9.616  12.324  22.759
63452W        W64317   9.493  12.814  22.863
63453W        W64318   7.836  12.234  24.337
63454W        W64319   7.821  12.110  25.259
63455W        W64320   7.711  11.027  23.418
63456W        W64321   9.479  11.374  23.979
63457W        W64322   9.127  11.559  25.142
63458W        W64323   9.482  11.708  22.320
63459W        W64324  10.665  14.101  25.074
63460W        W64325   9.632  11.182  25.113
63461W        W64326  10.651  13.483  25.235
63462W        W64327  10.081  11.650  24.831
63463W        W64328   9.881  11.588  23.101
63464W        W64329  10.274  12.722  25.505
63465W        W64330   8.014  14.298  23.491
63466W        W64331   8.672  12.015  22.477
63467W        W64332   8.241  11.299  25.141
63468W        W64333  10.293  11.783  22.822
63469W        W64334  10.660  12.265  22.767
63470W        W64335   8.403  14.482  25.238
63471W        W64336   8.329  11.018  22.473
63472W        W64337  10.650  11.552  23.508
63473W        W64338  10.800  13.801  21.953
63474W        W64339   7.707  13.004  23.655
63475W        W64340   9.624  11.591  21.885
63476W        W64341  10.758  13.923  23.605
63477W        W64342  10.797  11.117  24.355
63478W        W64343   9.242  12.329  24.909
63479W        W64344   9.335  13.668  22.612
63480W        W64345   9.735  12.962  25.352
63481W        W64346   9.409  10.939  23.661
63482W        W64347   8.021  11.842  23.724
63483W        W64348   7.575  13.042  24.498
63484W        W64349   9.434  14.235  23.204
63485W        W64350  10.628  11.832  24.076
63486W        W64351   9.265  14.179  24.843
63487W        W64352  10.608  13.238  22.048
63488W        W64353   9.043  12.721  23.109
63489W        W64354  10.895  11.232  24.850
63490W        W64355   9.044  13.067  24.444
63491W        W64356   9.261  11.953  23.889
63492W        W64357  10.113  12.251  22.727
63493W        W64358  10.400  11.984  22.369
63494W        W64359  10.209  14.024  22.758
63495W        W64360  10.043  13.627  23.554
63496W        W64361   9.939  12.706  22.532
63497W        W64362   9.372  12.916  23.518
63498W        W64363  10.253  12.704  23.585
63499W        W64364   7.628  11.719  24.009
63500W        W64365  10.406  12.771  24.836
63501W        W64366  10.757  14.389  23.982
63502W        W64367   8.687  13.833  23.384
63503W        W64368   9.694  14.366  24.708
63504W        W64369   9.688  11.696  24.472
63505W        W64370   8.895  14.404  24.533
63506W        W64371  10.592  11.358  22.999
63507W        W64372  10.383  12.677  24.300
63508W        W64373   7.366  11.998  24.338
63509W        W64374  10.226  11.793  23.356
63510W        W64375  10.637  11.944  25.133
63511W        W64376   9.522  13.643  23.351
63512W        W64377   8.778  14.234  22.964
63513W        W64378   7.893  11.414  22.222
63514W        W64379   8.997  11.068  24.032
63515W        W64380   8.025  14.188  21.880
63516W        W64381   8.399  12.654  22.631
63517W        W64382   9.053  13.283  24.944
63518W        W64383   8.883  11.641  22.934
63519W        W64384  10.239  11.238  23.362
63520W        W64385   9.959  14.520  23.690
63521W        W64386   9.371  14.168  24.030
63522W        W64387   8.767  13.205  23.991
63523W        W64388  10.537  13.928  24.117
63524W        W64389   8.231  11.431  22.886
63525W        W64390   8.753  13.728  23.846
63526W        W64391   8.236  11.659  21.911
63527W        W64392   9.037  12.268  24.305
63528W        W64393   9.885  11.134  24.175
63529W        W64394   7.305  12.977  24.060
63530W        W64395   9.009  12.795  22.218
63531W        W64396   8.277  11.110  21.988
63532W        W64397   9.015  12.191  23.039
63533W        W64398   9.985  11.167  24.738
63534W        W64399   8.573  13.179  24.847
63535W        W64400   9.377  12.961  25.064
63536W        W64401   9.994  12.991  24.957
63537W        W64402   9.278  11.131  25.462
63538W        W64403   8.500  11.747  23.855
63539W        W64404   7.926  11.703  23.253
63540W        W64405   7.712  14.415  22.929
63541W        W64406   9.044  13.745  25.054
63542W        W64407   8.079  13.230  22.413
63543W        W64408   9.759  12.615  23.634
63544W        W64409  10.039  12.414  24.033
63545W        W64410   9.244  13.088  23.967
63546W        W64411   9.714  13.462  22.099
63547W        W64412   9.386  11.483  23.427
63548W        W64413  10.865  11.761  22.695
63549W        W64414   7.359  14.350  24.726
63550W        W64415   7.776  13.576  24.258
63551W        W64416   7.343  14.422  22.490
63552W        W64417   9.242  11.692  24.296
63553W        W64418   8.605  13.715  22.145
63554W        W64419  10.510  14.097  22.331
63555W        W64420   9.485  12.750  22.345
63556W        W64421   8.328  11.941  22.862
63557W        W64422   9.160  11.851  21.914
63558W        W64423   9.744  13.416  25.092
63559W        W64424  10.097  11.322  22.709
63560W        W64425   7.427  11.170  22.157
63561W        W64426   8.713  13.489  24.447
63562W        W64427   8.512  13.405  23.539
63563W        W64428   8.254  13.357  21.937
63564W        W64429   7.495  13.598  22.705
63565W        W64430   7.999  12.668  25.147
63566W        W64431   8.703  11.228  25.333
63567W        W64432   9.412  11.370  24.689
63568W        W64433   8.607  11.138  22.970
63569W        W64434   9.666  11.215  22.475
63570W        W64435   7.611  11.147  24.052
63571W        W64436   7.659  12.110  23.422
63572W        W64437  10.348  11.218  23.828
63573W        W64438   7.770  11.716  22.642
63574W        W64439  10.341  11.404  24.258
63575W        W64440  10.737  12.607  21.943
63576W        W64441   8.029  11.365  23.762
63577W        W64442   9.143  11.937  24.702
63578W        W64443   7.291  11.627  22.180
63579W        W64444   8.077  13.016  24.741
63580W        W64445   9.435  12.414  23.920
63581W        W64446   9.302  14.493  22.216
63582W        W64447   7.448  13.000  21.913
63583W        W64448   8.183  13.411  25.039
63584W        W64449   7.704  12.578  24.670
63585W        W64450   8.695  12.683  24.464
63586W        W64451  10.463  11.042  24.726
63587W        W64452  10.861  12.652  24.717
63588W        W64453  10.849  12.852  22.403
63589W        W64454   9.712  13.184  22.502
63590W        W64455  10.186  14.484  22.197
63591W        W64456   9.363  12.474  25.339
63592W        W64457   7.693  13.441  25.379
63593W        W64458  10.899  11.363  25.331
63594W        W64459  10.617  12.291  23.952
63595W        W64460   8.925  14.421  25.429
63596W        W64461   8.780  11.050  22.156
63597W        W64462  10.319  13.649  22.099
63598W        W64463   8.088  11.742  24.985
63599W        W64464   8.522  13.736  24.847
63600W        W64465  10.648  11.727  24.645
63601W        W64466   9.859  14.386  22.613
63602W        W64467  10.098  13.005  23.980
63603W        W64468   8.348  11.421  24.647
63604W        W64469   8.817  12.490  25.404
63605W        W64470   8.320  13.669  22.598
63606W        W64471  10.075  13.167  22.862
63607W        W64472   7.843  11.793  24.586
63608W        W64473   9.172  13.855  23.050
63609W        W64474  10.922  12.415  23.231
63610W        W64475   9.144  11.048  24.950
63611W        W64476   9.924  13.753  24.029
63612W        W64477  10.227  14.097  23.737
63613W        W64478   9.446  13.899  22.165
63614W        W64479   7.456  13.791  25.007
63615W        W64480   8.199  11.783  24.245
63616W        W64481   8.169  11.131  23.355
63617W        W64482   9.790  11.973  24.047
63618W        W64483   8.588  13.144  22.247
63619W        W64484  10.586  13.086  23.746
63620W        W64485   7.913  13.844  25.169
63621W        W64486  10.300  14.526  22.966
63622W        W64487   8.399  11.546  23.411
63623W        W64488   8.168  13.039  23.501
63624W        W64489   8.481  14.450  24.251
63625W        W64490  10.548  14.546  25.283
63626W        W64491   9.707  12.734  24.216
63627W        W64492   7.556  12.532  22.131
63628W        W64493  10.690  14.190  22.828
63629W        W64494  10.527  11.514  22.447
63630W        W64495   8.666  11.033  24.850
63631W        W64496  10.372  13.835  23.308
63632W        W64497  10.401  12.391  23.213
63633W        W64498   8.518  12.064  23.429
63634W        W64499   8.763  12.326  24.753
63635W        W64500   9.874  13.479  24.616
63636W        W64501   8.524  11.933  24.728
63637W        W64502   8.503  14.399  23.344
63638W        W64503   7.820  14.358  24.978
63639W        W64504   7.932  13.719  22.108
63640W        W64505  10.449  13.477  22.918
63641W        W64506   8.053  12.269  24.804
63642W        W64507  10.826  12.199  22.285
63643W        W64508   8.571  13.256  22.756
63644W        W64509   9.670  12.638  24.837
63645W        W64510   9.561  12.266  24.381
63646W        W64511   8.121  12.638  24.410
63647W        W64512  10.331  14.526  24.239
63648W        W64513  10.122  11.160  25.233
63649W        W64514   7.786  11.310  24.820
63650W        W64515   8.125  12.333  23.873
63651W        W64516   8.494  12.147  21.995
63652W        W64517   7.297  13.906  24.540
63653W        W64518   8.882  12.615  23.983
63654W        W64519   8.705  11.640  22.088
63655W        W64520   7.840  12.456  22.869
63656W        W64521   7.611  14.308  24.306
63657W        W64522  10.406  12.534  22.414
63658W        W64523  10.501  11.450  25.100
63659W        W64524   9.937  13.659  23.063
63660W        W64525   7.535  12.583  25.240
63661W        W64526  10.501  11.047  22.536
63662W        W64527  10.021  13.522  22.547
63663W        W64528   8.923  12.580  22.632
63664W        W64529  10.110  11.384  22.155
63665W        W64530  10.175  11.991  24.341
63666W        W64531   7.884  12.584  23.548
63667W        W64532   8.178  13.523  23.197
63668W        W64533   9.941  12.143  23.162
63669W        W64534   8.964  11.522  23.858
63670W        W64535  10.926  13.433  24.369
63671W        W64536  10.844  11.420  23.930
63672W        W64537   7.383  14.250  23.306
63673W        W64538   7.892  13.437  22.842
63674W        W64539   7.807  11.054  25.395
63675W        W64540   8.926  13.907  25.497
63676W        W64541  10.681  12.875  23.287
63677W        W64542  10.035  13.052  22.167
63678W        W64543   9.330  14.573  24.379
63679W        W64544  10.187  13.295  25.416
63680W        W64545   9.002  11.005  22.696
63681W        W64546   9.715  11.874  23.555
63682W        W64547   7.401  13.461  23.887
63683W        W64548   8.654  11.423  22.528
63684W        W64549   8.458  12.907  25.377
63685W        W64550   9.452  11.888  23.091
63686W        W64551   9.657  13.298  24.213
63687W        W64552   7.811  13.903  24.648
63688W        W64553   8.402  13.886  25.371
63689W        W64554   8.253  11.683  22.385
63690W        W64555   9.770  11.825  22.710
63691W        W64556   9.728  13.933  24.947
63692W        W64557   8.413  12.525  23.546
63693W        W64558   8.068  14.223  24.411
63694W        W64559  10.813  14.340  22.012
63695W        W64560   7.676  13.012  25.008
63696W        W64561   9.671  13.274  23.696
63697W        W64562   8.107  12.923  22.938
63698W        W64563   8.478  13.930  24.333
63699W        W64564   8.856  11.349  23.374
63700W        W64565   7.467  13.333  22.304
63701W        W64566   8.986  12.284  22.174
63702W        W64567   7.632  12.833  23.193
63703W        W64568   8.922  11.475  24.657
63704W        W64569  10.594  11.184  22.084
63705W        W64570  10.687  12.930  25.183
63706W        W64571   9.341  14.187  25.335
63707W        W64572  10.899  13.281  24.857
63708W        W64573  10.307  14.079  25.468
63709W        W64574   8.046  14.535  23.946
63710W        W64575  10.905  13.157  22.820
63711W        W64576   9.435  12.424  23.333
63712W        W64577   9.202  11.036  23.223
63713W        W64578   8.261  14.020  23.060
63714W        W64579   8.760  11.761  24.285
63715W        W64580   8.460  11.130  23.754
63716W        W64581   7.523  13.952  22.302
63717W        W64582   9.339  13.316  23.020
63718W        W64583   8.214  14.111  24.899
63719W        W64584   7.691  12.934  22.595
63720W        W64585   7.576  11.477  23.594
63721W        W64586   9.124  13.442  23.651
63722W        W64587   7.376  11.296  22.671
63723W        W64588  10.040  12.502  24.598
63724W        W64589   9.917  11.888  22.170
63725W        W64590  10.434  13.560  23.818
63726W        W64591   9.095  14.044  23.649
63727W        W64592   8.507  14.148  22.560
63728W        W64593   9.789  11.051  21.990
63729W        W64594   7.589  14.311  23.731
63730W        W64595   9.786  12.069  25.366
63731W        W64596   7.769  11.599  25.365
63732W        W64597   7.500  12.199  22.698
63733W        W64598   8.191  12.188  22.423
63734W        W64599   9.954  12.515  25.240
63735W        W64600   8.297  12.796  23.949
63736W        W64601   9.771  11.082  23.069
63737W        W64602   8.902  14.513  23.572
63738W        W64603  10.116  13.975  24.509
63739W        W64604   9.700  14.124  23.620
63740W        W64605   9.719  13.104  23.214
63741W        W64606   9.181  11.329  22.285
63742W        W64607  10.862  10.957  23.007
63743W        W64608   8.550  12.592  22.170
63744W        W64609  10.716  11.929  23.160
63745W        W64610   9.408  13.099  22.037
63746W        W64611  10.344  13.299  24.785
63747W        W64612   9.998  14.000  22.252
63748W        W64613   8.613  11.675  25.158
63749W        W64614   8.433  12.259  24.399
63750W        W64615  10.525  13.754  24.676
63751W        W64616   9.625  11.704  25.053
63752W        W64617   7.469  12.175  24.830
63753W        W64618   9.229  12.652  24.556
63754W        W64619   7.586  13.410  23.213
63755W        W64620   7.733  12.707  24.103
63756W        W64621  10.050  12.993  24.453
63757W        W64622   9.822  14.373  25.264
63758W        W64623   9.718  12.112  24.817
63759W        W64624   9.995  14.166  23.222
63760W        W64625   8.997  13.886  24.545
63761W        W64626   8.482  14.241  23.814
63762W        W64627  10.287  13.412  24.233
63763W        W64628   9.337  13.484  25.370
63764W        W64629   7.942  13.437  23.709
63765W        W64630  10.288  13.196  23.354
63766W        W64631   9.929  14.262  24.105
63767W        W64632   7.907  13.991  23.975
63768W        W64633   8.928  12.043  25.185
63769W        W64634   9.379  14.209  22.696
63770W        W64635   8.687  13.464  25.334
63771W        W64636   8.813  13.702  22.711
63772W        W64637   8.034  12.442  21.970
63773W        W64638   7.373  14.528  28.869
63774W        W64639   7.749  13.421  28.392
63775W        W64640  10.454  13.151  26.162
63776W        W64641  10.584  14.236  28.189
63777W        W64642   8.502  14.227  25.715
63778W        W64643   8.585  12.379  26.698
63779W        W64644   8.100  12.227  26.862
63780W        W64645   9.091  13.042  26.296
63781W        W64646   8.766  14.134  28.651
63782W        W64647   7.415  11.695  28.614
63783W        W64648   8.177  10.975  28.416
63784W        W64649   9.871  11.363  27.303
63785W        W64650   9.520  12.234  25.873
63786W        W64651  10.090  11.668  28.964
63787W        W64652   7.456  11.460  28.089
63788W        W64653   7.555  14.079  29.110
63789W        W64654   9.077  13.469  25.842
63790W        W64655   7.509  12.252  27.535
63791W        W64656   8.402  12.143  28.772
63792W        W64657  10.861  12.002  27.271
63793W        W64658  10.625  13.045  28.130
63794W        W64659   8.933  12.378  27.157
63795W        W64660   9.479  13.717  27.526
63796W        W64661   7.979  13.151  27.758
63797W        W64662   7.338  12.679  27.329
63798W        W64663   8.374  12.651  28.521
63799W        W64664  10.645  12.434  28.775
63800W        W64665   8.261  13.878  27.220
63801W        W64666   9.382  13.567  28.354
63802W        W64667   8.602  12.207  27.579
63803W        W64668   8.894  12.991  27.222
63804W        W64669   9.891  13.764  29.070
63805W        W64670   8.970  13.084  29.080
63806W        W64671   8.951  12.800  28.558
63807W        W64672   7.360  12.191  29.080
63808W        W64673  10.192  13.726  28.679
63809W        W64674   7.773  11.308  26.677
63810W        W64675   8.300  13.566  27.676
63811W        W64676  10.763  13.349  26.966
63812W        W64677  10.176  11.749  27.533
63813W        W64678  10.461  11.702  25.628
63814W        W64679  10.926  12.503  27.934
63815W        W64680   8.893  14.210  27.687
63816W        W64681  10.667  13.676  26.125
63817W        W64682   7.796  14.462  25.879
63818W        W64683   8.189  14.508  26.555
63819W        W64684   7.986  11.262  27.981
63820W        W64685  10.609  12.280  28.256
63821W        W64686  10.014  12.702  26.715
63822W        W64687   9.980  12.390  25.742
63823W        W64688   9.188  13.534  27.882
63824W        W64689   8.994  11.864  27.081
63825W        W64690   9.594  13.951  28.075
63826W        W64691  10.465  12.742  26.497
63827W        W64692   9.367  11.400  26.513
63828W        W64693   8.024  14.094  26.196
63829W        W64694   7.395  11.593  26.795
63830W        W64695  10.181  12.200  27.269
63831W        W64696   7.639  13.817  27.184
63832W        W64697   8.980  14.167  26.054
63833W        W64698  10.372  12.193  25.518
63834W        W64699   7.395  13.951  27.682
63835W        W64700   8.186  13.523  28.162
63836W        W64701   8.559  12.883  26.781
63837W        W64702   8.581  11.288  27.874
63838W        W64703  10.810  11.050  27.171
63839W        W64704   8.029  12.922  25.639
63840W        W64705   7.684  11.955  25.818
63841W        W64706   7.746  13.911  26.612
63842W        W64707   8.877  13.394  26.860
63843W        W64708  10.209  14.253  28.574
63844W        W64709   9.135  11.895  26.258
63845W        W64710  10.518  14.293  27.030
63846W        W64711  10.195  12.146  28.628
63847W        W64712  10.908  13.802  26.762
63848W        W64713   9.535  13.094  28.246
63849W        W64714   7.301  12.645  26.452
63850W        W64715   8.412  13.060  28.025
63851W        W64716   9.616  12.324  26.403
63852W        W64717   9.493  12.814  26.507
63853W        W64718   7.836  12.234  27.981
63854W        W64719   7.821  12.110  28.903
63855W        W64720   7.711  11.027  27.062
63856W        W64721   9.479  11.374  27.623
63857W        W64722   9.127  11.559  28.786
63858W        W64723   9.482  11.708  25.964
63859W        W64724  10.665  14.101  28.718
63860W        W64725   9.632  11.182  28.757
63861W        W64726  10.651  13.483  28.879
63862W        W64727  10.081  11.650  28.475
63863W        W64728   9.881  11.588  26.745
63864W        W64729  10.274  12.722  29.149
63865W        W64730   8.014  14.298  27.135
63866W        W64731   8.672  12.015  26.121
63867W        W64732   8.241  11.299  28.785
63868W        W64733  10.293  11.783  26.466
63869W        W64734  10.660  12.265  26.411
63870W        W64735   8.403  14.482  28.882
63871W        W64736   8.329  11.018  26.117
63872W        W64737  10.650  11.552  27.152
63873W        W64738  10.800  13.801  25.597
63874W        W64739   7.707  13.004  27.299
63875W        W64740   9.624  11.591  25.529
63876W        W64741  10.758  13.923  27.249
63877W        W64742  10.797  11.117  27.999
63878W        W64743   9.242  12.329  28.553
63879W        W64744   9.335  13.668  26.256
63880W        W64745   9.735  12.962  28.996
63881W        W64746   9.409  10.939  27.305
63882W        W64747   8.021  11.842  27.368
63883W        W64748   7.575  13.042  28.142
63884W        W64749   9.434  14.235  26.848
63885W        W64750  10.628  11.832  27.720
63886W        W64751   9.265  14.179  28.487
63887W        W64752  10.608  13.238  25.692
63888W        W64753   9.043  12.721  26.753
63889W        W64754  10.895  11.232  28.494
63890W        W64755   9.044  13.067  28.088
63891W        W64756   9.261  11.953  27.533
63892W        W64757  10.113  12.251  26.371
63893W        W64758  10.400  11.984  26.013
63894W        W64759  10.209  14.024  26.402
63895W        W64760  10.043  13.627  27.198
63896W        W64761   9.939  12.706  26.176
63897W        W64762   9.372  12.916  27.162
63898W        W64763  10.253  12.704  27.229
63899W        W64764   7.628  11.719  27.653
63900W        W64765  10.406  12.771  28.480
63901W        W64766  10.757  14.389  27.626
63902W        W64767   8.687  13.833  27.028
63903W        W64768   9.694  14.366  28.352
63904W        W64769   9.688  11.696  28.116
63905W        W64770   8.895  14.404  28.177
63906W        W64771  10.592  11.358  26.643
63907W        W64772  10.383  12.677  27.944
63908W        W64773   7.366  11.998  27.982
63909W        W64774  10.226  11.793  27.000
63910W        W64775  10.637  11.944  28.777
63911W        W64776   9.522  13.643  26.995
63912W        W64777   8.778  14.234  26.608
63913W        W64778   7.893  11.414  25.866
63914W        W64779   8.997  11.068  27.676
63915W        W64780   8.025  14.188  25.524
63916W        W64781   8.399  12.654  26.275
63917W        W64782   9.053  13.283  28.588
63918W        W64783   8.883  11.641  26.578
63919W        W64784  10.239  11.238  27.006
63920W        W64785   9.959  14.520  27.334
63921W        W64786   9.371  14.168  27.674
63922W        W64787   8.767  13.205  27.635
63923W        W64788  10.537  13.928  27.761
63924W        W64789   8.231  11.431  26.530
63925W        W64790   8.753  13.728  27.490
63926W        W64791   8.236  11.659  25.555
63927W        W64792   9.037  12.268  27.949
63928W        W64793   9.885  11.134  27.819
63929W        W64794   7.305  12.977  27.704
63930W        W64795   9.009  12.795  25.862
63931W        W64796   8.277  11.110  25.632
63932W        W64797   9.015  12.191  26.683
63933W        W64798   9.985  11.167  28.382
63934W        W64799   8.573  13.179  28.491
63935W        W64800   9.377  12.961  28.708
63936W        W64801   9.994  12.991  28.601
63937W        W64802   9.278  11.131  29.106
63938W        W64803   8.500  11.747  27.499
63939W        W64804   7.926  11.703  26.897
63940W        W64805   7.712  14.415  26.573
63941W        W64806   9.044  13.745  28.698
63942W        W64807   8.079  13.230  26.057
63943W        W64808   9.759  12.615  27.278
63944W        W64809  10.039  12.414  27.677
63945W        W64810   9.244  13.088  27.611
63946W        W64811   9.714  13.462  25.743
63947W        W64812   9.386  11.483  27.071
63948W        W64813  10.865  11.761  26.339
63949W        W64814   7.359  14.350  28.370
63950W        W64815   7.776  13.576  27.902
63951W        W64816   7.343  14.422  26.134
63952W        W64817   9.242  11.692  27.940
63953W        W64818   8.605  13.715  25.789
63954W        W64819  10.510  14.097  25.975
63955W        W64820   9.485  12.750  25.989
63956W        W64821   8.328  11.941  26.506
63957W        W64822   9.160  11.851  25.558
63958W        W64823   9.744  13.416  28.736
63959W        W64824  10.097  11.322  26.353
63960W        W64825   7.427  11.170  25.801
63961W        W64826   8.713  13.489  28.091
63962W        W64827   8.512  13.405  27.183
63963W        W64828   8.254  13.357  25.581
63964W        W64829   7.495  13.598  26.349
63965W        W64830   7.999  12.668  28.791
63966W        W64831   8.703  11.228  28.977
63967W        W64832   9.412  11.370  28.333
63968W        W64833   8.607  11.138  26.614
63969W        W64834   9.666  11.215  26.119
63970W        W64835   7.611  11.147  27.696
63971W        W64836   7.659  12.110  27.066
63972W        W64837  10.348  11.218  27.472
63973W        W64838   7.770  11.716  26.286
63974W        W64839  10.341  11.404  27.902
63975W        W64840  10.737  12.607  25.587
63976W        W64841   8.029  11.365  27.406
63977W        W64842   9.143  11.937  28.346
63978W        W64843   7.291  11.627  25.824
63979W        W64844   8.077  13.016  28.385
63980W        W64845   9.435  12.414  27.564
63981W        W64846   9.302  14.493  25.860
63982W        W64847   7.448  13.000  25.557
63983W        W64848   8.183  13.411  28.683
63984W        W64849   7.704  12.578  28.314
63985W        W64850   8.695  12.683  28.108
63986W        W64851  10.463  11.042  28.370
63987W        W64852  10.861  12.652  28.361
63988W        W64853  10.849  12.852  26.047
63989W        W64854   9.712  13.184  26.146
63990W        W64855  10.186  14.484  25.841
63991W        W64856   9.363  12.474  28.983
63992W        W64857   7.693  13.441  29.023
63993W        W64858  10.899  11.363  28.975
63994W        W64859  10.617  12.291  27.596
63995W        W64860   8.925  14.421  29.073
63996W        W64861   8.780  11.050  25.800
63997W        W64862  10.319  13.649  25.743
63998W        W64863   8.088  11.742  28.629
63999W        W64864   8.522  13.736  28.491
64000W        W64865  10.648  11.727  28.289
64001W        W64866   9.859  14.386  26.257
64002W        W64867  10.098  13.005  27.624
64003W        W64868   8.348  11.421  28.291
64004W        W64869   8.817  12.490  29.048
64005W        W64870   8.320  13.669  26.242
64006W        W64871  10.075  13.167  26.506
64007W        W64872   7.843  11.793  28.230
64008W        W64873   9.172  13.855  26.694
64009W        W64874  10.922  12.415  26.875
64010W        W64875   9.144  11.048  28.594
64011W        W64876   9.924  13.753  27.673
64012W        W64877  10.227  14.097  27.381
64013W        W64878   9.446  13.899  25.809
64014W        W64879   7.456  13.791  28.651
64015W        W64880   8.199  11.783  27.889
64016W        W64881   8.169  11.131  26.999
64017W        W64882   9.790  11.973  27.691
64018W        W64883   8.588  13.144  25.891
64019W        W64884  10.586  13.086  27.390
64020W        W64885   7.913  13.844  28.813
64021W        W64886  10.300  14.526  26.610
64022W        W64887   8.399  11.546  27.055
64023W        W64888   8.168  13.039  27.145
64024W        W64889   8.481  14.450  27.895
64025W        W64890  10.548  14.546  28.927
64026W        W64891   9.707  12.734  27.860
64027W        W64892   7.556  12.532  25.775
64028W        W64893  10.690  14.190  26.472
64029W        W64894  10.527  11.514  26.091
64030W        W64895   8.666  11.033  28.494
64031W        W64896  10.372  13.835  26.952
64032W        W64897  10.401  12.391  26.857
64033W        W64898   8.518  12.064  27.073
64034W        W64899   8.763  12.326  28.397
64035W        W64900   9.874  13.479  28.260
64036W        W64901   8.524  11.933  28.372
64037W        W64902   8.503  14.399  26.988
64038W        W64903   7.820  14.358  28.622
64039W        W64904   7.932  13.719  25.752
64040W        W64905  10.449  13.477  26.562
64041W        W64906   8.053  12.269  28.448
64042W        W64907  10.826  12.199  25.929
64043W        W64908   8.571  13.256  26.400
64044W        W64909   9.670  12.638  28.481
64045W        W64910   9.561  12.266  28.025
64046W        W64911   8.121  12.638  28.054
64047W        W64912  10.331  14.526  27.883
64048W        W64913  10.122  11.160  28.877
64049W        W64914   7.786  11.310  28.464
64050W        W64915   8.125  12.333  27.517
64051W        W64916   8.494  12.147  25.639
64052W        W64917   7.297  13.906  28.184
64053W        W64918   8.882  12.615  27.627
64054W        W64919   8.705  11.640  25.732
64055W        W64920   7.840  12.456  26.513
64056W        W64921   7.611  14.308  27.950
64057W        W64922  10.406  12.534  26.058
64058W        W64923  10.501  11.450  28.744
64059W        W64924   9.937  13.659  26.707
64060W        W64925   7.535  12.583  28.884
64061W        W64926  10.501  11.047  26.180
64062W        W64927  10.021  13.522  26.191
64063W        W64928   8.923  12.580  26.276
64064W        W64929  10.110  11.384  25.799
64065W        W64930  10.175  11.991  27.985
64066W        W64931   7.884  12.584  27.192
64067W        W64932   8.178  13.523  26.841
64068W        W64933   9.941  12.143  26.806
64069W        W64934   8.964  11.522  27.502
64070W        W64935  10.926  13.433  28.013
64071W        W64936  10.844  11.420  27.574
64072W        W64937   7.383  14.250  26.950
64073W        W64938   7.892  13.437  26.486
64074W        W64939   7.807  11.054  29.039
64075W        W64940   8.926  13.907  29.141
64076W        W64941  10.681  12.875  26.931
64077W        W64942  10.035  13.052  25.811
64078W        W64943   9.330  14.573  28.023
64079W        W64944  10.187  13.295  29.060
64080W        W64945   9.002  11.005  26.340
64081W        W64946   9.715  11.874  27.199
64082W        W64947   7.401  13.461  27.531
64083W        W64948   8.654  11.423  26.172
64084W        W64949   8.458  12.907  29.021
64085W        W64950   9.452  11.888  26.735
64086W        W64951   9.657  13.298  27.857
64087W        W64952   7.811  13.903  28.292
64088W        W64953   8.402  13.886  29.015
64089W        W64954   8.253  11.683  26.029
64090W        W64955   9.770  11.825  26.354
64091W        W64956   9.728  13.933  28.591
64092W        W64957   8.413  12.525  27.190
64093W        W64958   8.068  14.223  28.055
64094W        W64959  10.813  14.340  25.656
64095W        W64960   7.676  13.012  28.652
64096W        W64961   9.671  13.274  27.340
64097W        W64962   8.107  12.923  26.582
64098W        W64963   8.478  13.930  27.977
64099W        W64964   8.856  11.349  27.018
64100W        W64965   7.467  13.333  25.948
64101W        W64966   8.986  12.284  25.818
64102W        W64967   7.632  12.833  26.837
64103W        W64968   8.922  11.475  28.301
64104W        W64969  10.594  11.184  25.728
64105W        W64970  10.687  12.930  28.827
64106W        W64971   9.341  14.187  28.979
64107W        W64972  10.899  13.281  28.501
64108W        W64973  10.307  14.079  29.112
64109W        W64974   8.046  14.535  27.590
64110W        W64975  10.905  13.157  26.464
64111W        W64976   9.435  12.424  26.977
64112W        W64977   9.202  11.036  26.867
64113W        W64978   8.261  14.020  26.704
64114W        W64979   8.760  11.761  27.929
64115W        W64980   8.460  11.130  27.398
64116W        W64981   7.523  13.952  25.946
64117W        W64982   9.339  13.316  26.664
64118W        W64983   8.214  14.111  28.543
64119W        W64984   7.691  12.934  26.239
64120W        W64985   7.576  11.477  27.238
64121W        W64986   9.124  13.442  27.295
64122W        W64987   7.376  11.296  26.315
64123W        W64988  10.040  12.502  28.242
64124W        W64989   9.917  11.888  25.814
64125W        W64990  10.434  13.560  27.462
64126W        W64991   9.095  14.044  27.293
64127W        W64992   8.507  14.148  26.204
64128W        W64993   9.789  11.051  25.634
64129W        W64994   7.589  14.311  27.375
64130W        W64995   9.786  12.069  29.010
64131W        W64996   7.769  11.599  29.009
64132W        W64997   7.500  12.199  26.342
64133W        W64998   8.191  12.188  26.067
64134W        W64999   9.954  12.515  28.884
64135W        W65000   8.297  12.796  27.593
64136W        W65001   9.771  11.082  26.713
64137W        W65002   8.902  14.513  27.216
64138W        W65003  10.116  13.975  28.153
64139W        W65004   9.700  14.124  27.264
64140W        W65005   9.719  13.104  26.858
64141W        W65006   9.181  11.329  25.929
64142W        W65007  10.862  10.957  26.651
64143W        W65008   8.550  12.592  25.814
64144W        W65009  10.716  11.929  26.804
64145W        W65010   9.408  13.099  25.681
64146W        W65011  10.344  13.299  28.429
64147W        W65012   9.998  14.000  25.896
64148W        W65013   8.613  11.675  28.802
64149W        W65014   8.433  12.259  28.043
64150W        W65015  10.525  13.754  28.320
64151W        W65016   9.625  11.704  28.697
64152W        W65017   7.469  12.175  28.474
64153W        W65018   9.229  12.652  28.200
64154W        W65019   7.586  13.410  26.857
64155W        W65020   7.733  12.707  27.747
64156W        W65021  10.050  12.993  28.097
64157W        W65022   9.822  14.373  28.908
64158W        W65023   9.718  12.112  28.461
64159W        W65024   9.995  14.166  26.866
64160W        W65025   8.997  13.886  28.189
64161W        W65026   8.482  14.241  27.458
64162W        W65027  10.287  13.412  27.877
64163W        W65028   9.337  13.484  29.014
64164W        W65029   7.942  13.437  27.353
64165W        W65030  10.288  13.196  26.998
64166W        W65031   9.929  14.262  27.749
64167W        W65032   7.907  13.991  27.619
64168W        W65033   8.928  12.043  28.829
64169W        W65034   9.379  14.209  26.340
64170W        W65035   8.687  13.464  28.978
64171W        W65036   8.813  13.702  26.355
64172W        W65037   8.034  12.442  25.614
64173W        W65038   7.373  18.172   3.359
64174W        W65039   7.749  17.065   2.882
64175W        W65040  10.454  16.795   0.652
64176W        W65041  10.584  17.880   2.679
64177W        W65042   8.502  17.871   0.205
64178W        W65043   8.585  16.023   1.188
64179W        W65044   8.100  15.871   1.352
64180W        W65045   9.091  16.686   0.786
64181W        W65046   8.766  17.778   3.141
64182W        W65047   7.415  15.339   3.104
64183W        W65048   8.177  14.619   2.906
64184W        W65049   9.871  15.007   1.793
64185W        W65050   9.520  15.878   0.363
64186W        W65051  10.090  15.312   3.454
64187W        W65052   7.456  15.104   2.579
64188W        W65053   7.555  17.723   3.600
64189W        W65054   9.077  17.113   0.332
64190W        W65055   7.509  15.896   2.025
64191W        W65056   8.402  15.787   3.262
64192W        W65057  10.861  15.646   1.761
64193W        W65058  10.625  16.689   2.620
64194W        W65059   8.933  16.022   1.647
64195W        W65060   9.479  17.361   2.016
64196W        W65061   7.979  16.795   2.248
64197W        W65062   7.338  16.323   1.819
64198W        W65063   8.374  16.295   3.011
64199W        W65064  10.645  16.078   3.265
64200W        W65065   8.261  17.522   1.710
64201W        W65066   9.382  17.211   2.844
64202W        W65067   8.602  15.851   2.069
64203W        W65068   8.894  16.635   1.712
64204W        W65069   9.891  17.408   3.560
64205W        W65070   8.970  16.728   3.570
64206W        W65071   8.951  16.444   3.048
64207W        W65072   7.360  15.835   3.570
64208W        W65073  10.192  17.370   3.169
64209W        W65074   7.773  14.952   1.167
64210W        W65075   8.300  17.210   2.166
64211W        W65076  10.763  16.993   1.456
64212W        W65077  10.176  15.393   2.023
64213W        W65078  10.461  15.346   0.118
64214W        W65079  10.926  16.147   2.424
64215W        W65080   8.893  17.854   2.177
64216W        W65081  10.667  17.320   0.615
64217W        W65082   7.796  18.106   0.369
64218W        W65083   8.189  18.152   1.045
64219W        W65084   7.986  14.906   2.471
64220W        W65085  10.609  15.924   2.746
64221W        W65086  10.014  16.346   1.205
64222W        W65087   9.980  16.034   0.232
64223W        W65088   9.188  17.178   2.372
64224W        W65089   8.994  15.508   1.571
64225W        W65090   9.594  17.595   2.565
64226W        W65091  10.465  16.386   0.987
64227W        W65092   9.367  15.044   1.003
64228W        W65093   8.024  17.738   0.686
64229W        W65094   7.395  15.237   1.285
64230W        W65095  10.181  15.844   1.759
64231W        W65096   8.980  17.811   0.544
64232W        W65097  10.372  15.837   0.008
64233W        W65098   7.395  17.595   2.172
64234W        W65099   8.186  17.167   2.652
64235W        W65100   8.559  16.527   1.271
64236W        W65101   8.581  14.932   2.364
64237W        W65102  10.810  14.694   1.661
64238W        W65103   8.029  16.566   0.129
64239W        W65104   7.684  15.599   0.308
64240W        W65105   7.746  17.555   1.102
64241W        W65106   8.877  17.038   1.350
64242W        W65107  10.209  17.897   3.064
64243W        W65108   9.135  15.539   0.748
64244W        W65109  10.518  17.937   1.520
64245W        W65110  10.195  15.790   3.118
64246W        W65111  10.908  17.446   1.252
64247W        W65112   9.535  16.738   2.736
64248W        W65113   7.301  16.289   0.942
64249W        W65114   8.412  16.704   2.515
64250W        W65115   9.616  15.968   0.893
64251W        W65116   9.493  16.458   0.997
64252W        W65117   7.836  15.878   2.471
64253W        W65118   7.821  15.754   3.393
64254W        W65119   7.711  14.671   1.552
64255W        W65120   9.479  15.018   2.113
64256W        W65121   9.127  15.203   3.276
64257W        W65122   9.482  15.352   0.454
64258W        W65123  10.665  17.745   3.208
64259W        W65124   9.632  14.826   3.247
64260W        W65125  10.651  17.127   3.369
64261W        W65126  10.081  15.294   2.965
64262W        W65127   9.881  15.232   1.235
64263W        W65128  10.274  16.366   3.639
64264W        W65129   8.014  17.942   1.625
64265W        W65130   8.672  15.659   0.611
64266W        W65131   8.241  14.943   3.275
64267W        W65132  10.293  15.427   0.956
64268W        W65133  10.660  15.909   0.901
64269W        W65134   8.403  18.126   3.372
64270W        W65135   8.329  14.662   0.607
64271W        W65136  10.650  15.196   1.642
64272W        W65137  10.800  17.445   0.087
64273W        W65138   7.707  16.648   1.789
64274W        W65139   9.624  15.235   0.019
64275W        W65140  10.758  17.567   1.739
64276W        W65141  10.797  14.761   2.489
64277W        W65142   9.242  15.973   3.043
64278W        W65143   9.335  17.312   0.746
64279W        W65144   9.735  16.606   3.486
64280W        W65145   9.409  14.583   1.795
64281W        W65146   8.021  15.486   1.858
64282W        W65147   7.575  16.686   2.632
64283W        W65148   9.434  17.879   1.338
64284W        W65149  10.628  15.476   2.210
64285W        W65150   9.265  17.823   2.977
64286W        W65151  10.608  16.882   0.182
64287W        W65152   9.043  16.365   1.243
64288W        W65153  10.895  14.876   2.984
64289W        W65154   9.044  16.711   2.578
64290W        W65155   9.261  15.597   2.023
64291W        W65156  10.113  15.895   0.861
64292W        W65157  10.400  15.628   0.503
64293W        W65158  10.209  17.668   0.892
64294W        W65159  10.043  17.271   1.688
64295W        W65160   9.939  16.350   0.666
64296W        W65161   9.372  16.560   1.652
64297W        W65162  10.253  16.348   1.719
64298W        W65163   7.628  15.363   2.143
64299W        W65164  10.406  16.415   2.970
64300W        W65165  10.757  18.033   2.116
64301W        W65166   8.687  17.477   1.518
64302W        W65167   9.694  18.010   2.842
64303W        W65168   9.688  15.340   2.606
64304W        W65169   8.895  18.048   2.667
64305W        W65170  10.592  15.002   1.133
64306W        W65171  10.383  16.321   2.434
64307W        W65172   7.366  15.642   2.472
64308W        W65173  10.226  15.437   1.490
64309W        W65174  10.637  15.588   3.267
64310W        W65175   9.522  17.287   1.485
64311W        W65176   8.778  17.878   1.098
64312W        W65177   7.893  15.058   0.356
64313W        W65178   8.997  14.712   2.166
64314W        W65179   8.025  17.832   0.014
64315W        W65180   8.399  16.298   0.765
64316W        W65181   9.053  16.927   3.078
64317W        W65182   8.883  15.285   1.068
64318W        W65183  10.239  14.882   1.496
64319W        W65184   9.959  18.164   1.824
64320W        W65185   9.371  17.812   2.164
64321W        W65186   8.767  16.849   2.125
64322W        W65187  10.537  17.572   2.251
64323W        W65188   8.231  15.075   1.020
64324W        W65189   8.753  17.372   1.980
64325W        W65190   8.236  15.303   0.045
64326W        W65191   9.037  15.912   2.439
64327W        W65192   9.885  14.778   2.309
64328W        W65193   7.305  16.621   2.194
64329W        W65194   9.009  16.439   0.352
64330W        W65195   8.277  14.754   0.122
64331W        W65196   9.015  15.835   1.173
64332W        W65197   9.985  14.811   2.872
64333W        W65198   8.573  16.823   2.981
64334W        W65199   9.377  16.605   3.198
64335W        W65200   9.994  16.635   3.091
64336W        W65201   9.278  14.775   3.596
64337W        W65202   8.500  15.391   1.989
64338W        W65203   7.926  15.347   1.387
64339W        W65204   7.712  18.059   1.063
64340W        W65205   9.044  17.389   3.188
64341W        W65206   8.079  16.874   0.547
64342W        W65207   9.759  16.259   1.768
64343W        W65208  10.039  16.058   2.167
64344W        W65209   9.244  16.732   2.101
64345W        W65210   9.714  17.106   0.233
64346W        W65211   9.386  15.127   1.561
64347W        W65212  10.865  15.405   0.829
64348W        W65213   7.359  17.994   2.860
64349W        W65214   7.776  17.220   2.392
64350W        W65215   7.343  18.066   0.624
64351W        W65216   9.242  15.336   2.430
64352W        W65217   8.605  17.359   0.279
64353W        W65218  10.510  17.741   0.465
64354W        W65219   9.485  16.394   0.479
64355W        W65220   8.328  15.585   0.996
64356W        W65221   9.160  15.495   0.048
64357W        W65222   9.744  17.060   3.226
64358W        W65223  10.097  14.966   0.843
64359W        W65224   7.427  14.814   0.291
64360W        W65225   8.713  17.133   2.581
64361W        W65226   8.512  17.049   1.673
64362W        W65227   8.254  17.001   0.071
64363W        W65228   7.495  17.242   0.839
64364W        W65229   7.999  16.312   3.281
64365W        W65230   8.703  14.872   3.467
64366W        W65231   9.412  15.014   2.823
64367W        W65232   8.607  14.782   1.104
64368W        W65233   9.666  14.859   0.609
64369W        W65234   7.611  14.791   2.186
64370W        W65235   7.659  15.754   1.556
64371W        W65236  10.348  14.862   1.962
64372W        W65237   7.770  15.360   0.776
64373W        W65238  10.341  15.048   2.392
64374W        W65239  10.737  16.251   0.077
64375W        W65240   8.029  15.009   1.896
64376W        W65241   9.143  15.581   2.836
64377W        W65242   7.291  15.271   0.314
64378W        W65243   8.077  16.660   2.875
64379W        W65244   9.435  16.058   2.054
64380W        W65245   9.302  18.137   0.350
64381W        W65246   7.448  16.644   0.047
64382W        W65247   8.183  17.055   3.173
64383W        W65248   7.704  16.222   2.804
64384W        W65249   8.695  16.327   2.598
64385W        W65250  10.463  14.686   2.860
64386W        W65251  10.861  16.296   2.851
64387W        W65252  10.849  16.496   0.537
64388W        W65253   9.712  16.828   0.636
64389W        W65254  10.186  18.128   0.331
64390W        W65255   9.363  16.118   3.473
64391W        W65256   7.693  17.085   3.513
64392W        W65257  10.899  15.007   3.465
64393W        W65258  10.617  15.935   2.086
64394W        W65259   8.925  18.065   3.563
64395W        W65260   8.780  14.694   0.290
64396W        W65261  10.319  17.293   0.233
64397W        W65262   8.088  15.386   3.119
64398W        W65263   8.522  17.380   2.981
64399W        W65264  10.648  15.371   2.779
64400W        W65265   9.859  18.030   0.747
64401W        W65266  10.098  16.649   2.114
64402W        W65267   8.348  15.065   2.781
64403W        W65268   8.320  17.313   0.732
64404W        W65269  10.075  16.811   0.996
64405W        W65270   7.843  15.437   2.720
64406W        W65271   9.172  17.499   1.184
64407W        W65272  10.922  16.059   1.365
64408W        W65273   9.144  14.692   3.084
64409W        W65274   9.924  17.397   2.163
64410W        W65275  10.227  17.741   1.871
64411W        W65276   9.446  17.543   0.299
64412W        W65277   7.456  17.435   3.141
64413W        W65278   8.199  15.427   2.379
64414W        W65279   8.169  14.775   1.489
64415W        W65280   9.790  15.617   2.181
64416W        W65281   8.588  16.788   0.381
64417W        W65282  10.586  16.730   1.880
64418W        W65283   7.913  17.488   3.303
64419W        W65284  10.300  18.170   1.100
64420W        W65285   8.399  15.190   1.545
64421W        W65286   8.168  16.683   1.635
64422W        W65287   8.481  18.094   2.385
64423W        W65288  10.548  18.190   3.417
64424W        W65289   9.707  16.378   2.350
64425W        W65290   7.556  16.176   0.265
64426W        W65291  10.690  17.834   0.962
64427W        W65292  10.527  15.158   0.581
64428W        W65293   8.666  14.677   2.984
64429W        W65294  10.372  17.479   1.442
64430W        W65295  10.401  16.035   1.347
64431W        W65296   8.518  15.708   1.563
64432W        W65297   8.763  15.970   2.887
64433W        W65298   9.874  17.123   2.750
64434W        W65299   8.524  15.577   2.862
64435W        W65300   8.503  18.043   1.478
64436W        W65301   7.820  18.002   3.112
64437W        W65302   7.932  17.363   0.242
64438W        W65303  10.449  17.121   1.052
64439W        W65304   8.053  15.913   2.938
64440W        W65305  10.826  15.843   0.419
64441W        W65306   8.571  16.900   0.890
64442W        W65307   9.670  16.282   2.971
64443W        W65308   9.561  15.910   2.515
64444W        W65309   8.121  16.282   2.544
64445W        W65310  10.331  18.170   2.373
64446W        W65311  10.122  14.804   3.367
64447W        W65312   7.786  14.954   2.954
64448W        W65313   8.125  15.977   2.007
64449W        W65314   8.494  15.791   0.129
64450W        W65315   7.297  17.550   2.674
64451W        W65316   8.882  16.259   2.117
64452W        W65317   8.705  15.284   0.222
64453W        W65318   7.840  16.100   1.003
64454W        W65319   7.611  17.952   2.440
64455W        W65320  10.406  16.178   0.548
64456W        W65321  10.501  15.094   3.234
64457W        W65322   9.937  17.303   1.197
64458W        W65323   7.535  16.227   3.374
64459W        W65324  10.501  14.691   0.670
64460W        W65325  10.021  17.166   0.681
64461W        W65326   8.923  16.224   0.766
64462W        W65327  10.110  15.028   0.289
64463W        W65328  10.175  15.635   2.475
64464W        W65329   7.884  16.228   1.682
64465W        W65330   8.178  17.167   1.331
64466W        W65331   9.941  15.787   1.296
64467W        W65332   8.964  15.166   1.992
64468W        W65333  10.926  17.077   2.503
64469W        W65334  10.844  15.064   2.064
64470W        W65335   7.383  17.894   1.440
64471W        W65336   7.892  17.081   0.976
64472W        W65337   7.807  14.698   3.529
64473W        W65338   8.926  17.551   3.631
64474W        W65339  10.681  16.519   1.421
64475W        W65340  10.035  16.696   0.301
64476W        W65341   9.330  18.217   2.513
64477W        W65342  10.187  16.939   3.550
64478W        W65343   9.002  14.649   0.830
64479W        W65344   9.715  15.518   1.689
64480W        W65345   7.401  17.105   2.021
64481W        W65346   8.654  15.067   0.662
64482W        W65347   8.458  16.551   3.511
64483W        W65348   9.452  15.532   1.225
64484W        W65349   9.657  16.942   2.347
64485W        W65350   7.811  17.547   2.782
64486W        W65351   8.402  17.530   3.505
64487W        W65352   8.253  15.327   0.519
64488W        W65353   9.770  15.469   0.844
64489W        W65354   9.728  17.577   3.081
64490W        W65355   8.413  16.169   1.680
64491W        W65356   8.068  17.867   2.545
64492W        W65357  10.813  17.984   0.146
64493W        W65358   7.676  16.656   3.142
64494W        W65359   9.671  16.918   1.830
64495W        W65360   8.107  16.567   1.072
64496W        W65361   8.478  17.574   2.467
64497W        W65362   8.856  14.993   1.508
64498W        W65363   7.467  16.977   0.438
64499W        W65364   8.986  15.928   0.308
64500W        W65365   7.632  16.477   1.327
64501W        W65366   8.922  15.119   2.791
64502W        W65367  10.594  14.828   0.218
64503W        W65368  10.687  16.574   3.317
64504W        W65369   9.341  17.831   3.469
64505W        W65370  10.899  16.925   2.991
64506W        W65371  10.307  17.723   3.602
64507W        W65372   8.046  18.179   2.080
64508W        W65373  10.905  16.801   0.954
64509W        W65374   9.435  16.068   1.467
64510W        W65375   9.202  14.680   1.357
64511W        W65376   8.261  17.664   1.194
64512W        W65377   8.760  15.405   2.419
64513W        W65378   8.460  14.774   1.888
64514W        W65379   7.523  17.596   0.436
64515W        W65380   9.339  16.960   1.154
64516W        W65381   8.214  17.755   3.033
64517W        W65382   7.691  16.578   0.729
64518W        W65383   7.576  15.121   1.728
64519W        W65384   9.124  17.086   1.785
64520W        W65385   7.376  14.940   0.805
64521W        W65386  10.040  16.146   2.732
64522W        W65387   9.917  15.532   0.304
64523W        W65388  10.434  17.204   1.952
64524W        W65389   9.095  17.688   1.783
64525W        W65390   8.507  17.792   0.694
64526W        W65391   9.789  14.695   0.124
64527W        W65392   7.589  17.955   1.865
64528W        W65393   9.786  15.713   3.500
64529W        W65394   7.769  15.243   3.499
64530W        W65395   7.500  15.843   0.832
64531W        W65396   8.191  15.832   0.557
64532W        W65397   9.954  16.159   3.374
64533W        W65398   8.297  16.440   2.083
64534W        W65399   9.771  14.726   1.203
64535W        W65400   8.902  18.157   1.706
64536W        W65401  10.116  17.619   2.643
64537W        W65402   9.700  17.768   1.754
64538W        W65403   9.719  16.748   1.348
64539W        W65404   9.181  14.973   0.419
64540W        W65405  10.862  14.601   1.141
64541W        W65406   8.550  16.236   0.304
64542W        W65407  10.716  15.573   1.294
64543W        W65408   9.408  16.743   0.171
64544W        W65409  10.344  16.943   2.919
64545W        W65410   9.998  17.644   0.386
64546W        W65411   8.613  15.319   3.292
64547W        W65412   8.433  15.903   2.533
64548W        W65413  10.525  17.398   2.810
64549W        W65414   9.625  15.348   3.187
64550W        W65415   7.469  15.819   2.964
64551W        W65416   9.229  16.296   2.690
64552W        W65417   7.586  17.054   1.347
64553W        W65418   7.733  16.351   2.237
64554W        W65419  10.050  16.637   2.587
64555W        W65420   9.822  18.017   3.398
64556W        W65421   9.718  15.756   2.951
64557W        W65422   9.995  17.810   1.356
64558W        W65423   8.997  17.530   2.679
64559W        W65424   8.482  17.885   1.948
64560W        W65425  10.287  17.056   2.367
64561W        W65426   9.337  17.128   3.504
64562W        W65427   7.942  17.081   1.843
64563W        W65428  10.288  16.840   1.488
64564W        W65429   9.929  17.906   2.239
64565W        W65430   7.907  17.635   2.109
64566W        W65431   8.928  15.687   3.319
64567W        W65432   9.379  17.853   0.830
64568W        W65433   8.687  17.108   3.468
64569W        W65434   8.813  17.346   0.845
64570W        W65435   8.034  16.086   0.104
64571W        W65436   7.373  18.172   7.003
64572W        W65437   7.749  17.065   6.526
64573W        W65438  10.454  16.795   4.296
64574W        W65439  10.584  17.880   6.323
64575W        W65440   8.502  17.871   3.849
64576W        W65441   8.585  16.023   4.832
64577W        W65442   8.100  15.871   4.996
64578W        W65443   9.091  16.686   4.430
64579W        W65444   8.766  17.778   6.785
64580W        W65445   7.415  15.339   6.748
64581W        W65446   8.177  14.619   6.550
64582W        W65447   9.871  15.007   5.437
64583W        W65448   9.520  15.878   4.007
64584W        W65449  10.090  15.312   7.098
64585W        W65450   7.456  15.104   6.223
64586W        W65451   7.555  17.723   7.244
64587W        W65452   9.077  17.113   3.976
64588W        W65453   7.509  15.896   5.669
64589W        W65454   8.402  15.787   6.906
64590W        W65455  10.861  15.646   5.405
64591W        W65456  10.625  16.689   6.264
64592W        W65457   8.933  16.022   5.291
64593W        W65458   9.479  17.361   5.660
64594W        W65459   7.979  16.795   5.892
64595W        W65460   7.338  16.323   5.463
64596W        W65461   8.374  16.295   6.655
64597W        W65462  10.645  16.078   6.909
64598W        W65463   8.261  17.522   5.354
64599W        W65464   9.382  17.211   6.488
64600W        W65465   8.602  15.851   5.713
64601W        W65466   8.894  16.635   5.356
64602W        W65467   9.891  17.408   7.204
64603W        W65468   8.970  16.728   7.214
64604W        W65469   8.951  16.444   6.692
64605W        W65470   7.360  15.835   7.214
64606W        W65471  10.192  17.370   6.813
64607W        W65472   7.773  14.952   4.811
64608W        W65473   8.300  17.210   5.810
64609W        W65474  10.763  16.993   5.100
64610W        W65475  10.176  15.393   5.667
64611W        W65476  10.461  15.346   3.762
64612W        W65477  10.926  16.147   6.068
64613W        W65478   8.893  17.854   5.821
64614W        W65479  10.667  17.320   4.259
64615W        W65480   7.796  18.106   4.013
64616W        W65481   8.189  18.152   4.689
64617W        W65482   7.986  14.906   6.115
64618W        W65483  10.609  15.924   6.390
64619W        W65484  10.014  16.346   4.849
64620W        W65485   9.980  16.034   3.876
64621W        W65486   9.188  17.178   6.016
64622W        W65487   8.994  15.508   5.215
64623W        W65488   9.594  17.595   6.209
64624W        W65489  10.465  16.386   4.631
64625W        W65490   9.367  15.044   4.647
64626W        W65491   8.024  17.738   4.330
64627W        W65492   7.395  15.237   4.929
64628W        W65493  10.181  15.844   5.403
64629W        W65494   7.639  17.461   5.318
64630W        W65495   8.980  17.811   4.188
64631W        W65496  10.372  15.837   3.652
64632W        W65497   7.395  17.595   5.816
64633W        W65498   8.186  17.167   6.296
64634W        W65499   8.559  16.527   4.915
64635W        W65500   8.581  14.932   6.008
64636W        W65501  10.810  14.694   5.305
64637W        W65502   8.029  16.566   3.773
64638W        W65503   7.684  15.599   3.952
64639W        W65504   7.746  17.555   4.746
64640W        W65505   8.877  17.038   4.994
64641W        W65506  10.209  17.897   6.708
64642W        W65507   9.135  15.539   4.392
64643W        W65508  10.518  17.937   5.164
64644W        W65509  10.195  15.790   6.762
64645W        W65510  10.908  17.446   4.896
64646W        W65511   9.535  16.738   6.380
64647W        W65512   7.301  16.289   4.586
64648W        W65513   8.412  16.704   6.159
64649W        W65514   9.616  15.968   4.537
64650W        W65515   9.493  16.458   4.641
64651W        W65516   7.836  15.878   6.115
64652W        W65517   7.821  15.754   7.037
64653W        W65518   7.711  14.671   5.196
64654W        W65519   9.479  15.018   5.757
64655W        W65520   9.127  15.203   6.920
64656W        W65521   9.482  15.352   4.098
64657W        W65522  10.665  17.745   6.852
64658W        W65523   9.632  14.826   6.891
64659W        W65524  10.651  17.127   7.013
64660W        W65525  10.081  15.294   6.609
64661W        W65526   9.881  15.232   4.879
64662W        W65527  10.274  16.366   7.283
64663W        W65528   8.014  17.942   5.269
64664W        W65529   8.672  15.659   4.255
64665W        W65530   8.241  14.943   6.919
64666W        W65531  10.293  15.427   4.600
64667W        W65532  10.660  15.909   4.545
64668W        W65533   8.403  18.126   7.016
64669W        W65534   8.329  14.662   4.251
64670W        W65535  10.650  15.196   5.286
64671W        W65536  10.800  17.445   3.731
64672W        W65537   7.707  16.648   5.433
64673W        W65538   9.624  15.235   3.663
64674W        W65539  10.758  17.567   5.383
64675W        W65540  10.797  14.761   6.133
64676W        W65541   9.242  15.973   6.687
64677W        W65542   9.335  17.312   4.390
64678W        W65543   9.735  16.606   7.130
64679W        W65544   9.409  14.583   5.439
64680W        W65545   8.021  15.486   5.502
64681W        W65546   7.575  16.686   6.276
64682W        W65547   9.434  17.879   4.982
64683W        W65548  10.628  15.476   5.854
64684W        W65549   9.265  17.823   6.621
64685W        W65550  10.608  16.882   3.826
64686W        W65551   9.043  16.365   4.887
64687W        W65552  10.895  14.876   6.628
64688W        W65553   9.044  16.711   6.222
64689W        W65554   9.261  15.597   5.667
64690W        W65555  10.113  15.895   4.505
64691W        W65556  10.400  15.628   4.147
64692W        W65557  10.209  17.668   4.536
64693W        W65558  10.043  17.271   5.332
64694W        W65559   9.939  16.350   4.310
64695W        W65560   9.372  16.560   5.296
64696W        W65561  10.253  16.348   5.363
64697W        W65562   7.628  15.363   5.787
64698W        W65563  10.406  16.415   6.614
64699W        W65564  10.757  18.033   5.760
64700W        W65565   8.687  17.477   5.162
64701W        W65566   9.694  18.010   6.486
64702W        W65567   9.688  15.340   6.250
64703W        W65568   8.895  18.048   6.311
64704W        W65569  10.592  15.002   4.777
64705W        W65570  10.383  16.321   6.078
64706W        W65571   7.366  15.642   6.116
64707W        W65572  10.226  15.437   5.134
64708W        W65573  10.637  15.588   6.911
64709W        W65574   9.522  17.287   5.129
64710W        W65575   8.778  17.878   4.742
64711W        W65576   7.893  15.058   4.000
64712W        W65577   8.997  14.712   5.810
64713W        W65578   8.025  17.832   3.658
64714W        W65579   8.399  16.298   4.409
64715W        W65580   9.053  16.927   6.722
64716W        W65581   8.883  15.285   4.712
64717W        W65582  10.239  14.882   5.140
64718W        W65583   9.959  18.164   5.468
64719W        W65584   9.371  17.812   5.808
64720W        W65585   8.767  16.849   5.769
64721W        W65586  10.537  17.572   5.895
64722W        W65587   8.231  15.075   4.664
64723W        W65588   8.753  17.372   5.624
64724W        W65589   8.236  15.303   3.689
64725W        W65590   9.037  15.912   6.083
64726W        W65591   9.885  14.778   5.953
64727W        W65592   7.305  16.621   5.838
64728W        W65593   9.009  16.439   3.996
64729W        W65594   8.277  14.754   3.766
64730W        W65595   9.015  15.835   4.817
64731W        W65596   9.985  14.811   6.516
64732W        W65597   8.573  16.823   6.625
64733W        W65598   9.377  16.605   6.842
64734W        W65599   9.994  16.635   6.735
64735W        W65600   9.278  14.775   7.240
64736W        W65601   8.500  15.391   5.633
64737W        W65602   7.926  15.347   5.031
64738W        W65603   7.712  18.059   4.707
64739W        W65604   9.044  17.389   6.832
64740W        W65605   8.079  16.874   4.191
64741W        W65606   9.759  16.259   5.412
64742W        W65607  10.039  16.058   5.811
64743W        W65608   9.244  16.732   5.745
64744W        W65609   9.714  17.106   3.877
64745W        W65610   9.386  15.127   5.205
64746W        W65611  10.865  15.405   4.473
64747W        W65612   7.359  17.994   6.504
64748W        W65613   7.776  17.220   6.036
64749W        W65614   7.343  18.066   4.268
64750W        W65615   9.242  15.336   6.074
64751W        W65616   8.605  17.359   3.923
64752W        W65617  10.510  17.741   4.109
64753W        W65618   9.485  16.394   4.123
64754W        W65619   8.328  15.585   4.640
64755W        W65620   9.160  15.495   3.692
64756W        W65621   9.744  17.060   6.870
64757W        W65622  10.097  14.966   4.487
64758W        W65623   7.427  14.814   3.935
64759W        W65624   8.713  17.133   6.225
64760W        W65625   8.512  17.049   5.317
64761W        W65626   8.254  17.001   3.715
64762W        W65627   7.495  17.242   4.483
64763W        W65628   7.999  16.312   6.925
64764W        W65629   8.703  14.872   7.111
64765W        W65630   9.412  15.014   6.467
64766W        W65631   8.607  14.782   4.748
64767W        W65632   9.666  14.859   4.253
64768W        W65633   7.611  14.791   5.830
64769W        W65634   7.659  15.754   5.200
64770W        W65635  10.348  14.862   5.606
64771W        W65636   7.770  15.360   4.420
64772W        W65637  10.341  15.048   6.036
64773W        W65638  10.737  16.251   3.721
64774W        W65639   8.029  15.009   5.540
64775W        W65640   9.143  15.581   6.480
64776W        W65641   8.077  16.660   6.519
64777W        W65642   9.435  16.058   5.698
64778W        W65643   9.302  18.137   3.994
64779W        W65644   7.448  16.644   3.691
64780W        W65645   8.183  17.055   6.817
64781W        W65646   7.704  16.222   6.448
64782W        W65647   8.695  16.327   6.242
64783W        W65648  10.463  14.686   6.504
64784W        W65649  10.861  16.296   6.495
64785W        W65650  10.849  16.496   4.181
64786W        W65651   9.712  16.828   4.280
64787W        W65652  10.186  18.128   3.975
64788W        W65653   9.363  16.118   7.117
64789W        W65654   7.693  17.085   7.157
64790W        W65655  10.899  15.007   7.109
64791W        W65656  10.617  15.935   5.730
64792W        W65657   8.925  18.065   7.207
64793W        W65658   8.780  14.694   3.934
64794W        W65659  10.319  17.293   3.877
64795W        W65660   8.088  15.386   6.763
64796W        W65661   8.522  17.380   6.625
64797W        W65662  10.648  15.371   6.423
64798W        W65663   9.859  18.030   4.391
64799W        W65664  10.098  16.649   5.758
64800W        W65665   8.348  15.065   6.425
64801W        W65666   8.817  16.134   7.182
64802W        W65667   8.320  17.313   4.376
64803W        W65668  10.075  16.811   4.640
64804W        W65669   7.843  15.437   6.364
64805W        W65670   9.172  17.499   4.828
64806W        W65671  10.922  16.059   5.009
64807W        W65672   9.144  14.692   6.728
64808W        W65673   9.924  17.397   5.807
64809W        W65674  10.227  17.741   5.515
64810W        W65675   9.446  17.543   3.943
64811W        W65676   7.456  17.435   6.785
64812W        W65677   8.199  15.427   6.023
64813W        W65678   8.169  14.775   5.133
64814W        W65679   9.790  15.617   5.825
64815W        W65680   8.588  16.788   4.025
64816W        W65681  10.586  16.730   5.524
64817W        W65682   7.913  17.488   6.947
64818W        W65683  10.300  18.170   4.744
64819W        W65684   8.399  15.190   5.189
64820W        W65685   8.168  16.683   5.279
64821W        W65686   8.481  18.094   6.029
64822W        W65687  10.548  18.190   7.061
64823W        W65688   9.707  16.378   5.994
64824W        W65689   7.556  16.176   3.909
64825W        W65690  10.690  17.834   4.606
64826W        W65691  10.527  15.158   4.225
64827W        W65692   8.666  14.677   6.628
64828W        W65693  10.372  17.479   5.086
64829W        W65694  10.401  16.035   4.991
64830W        W65695   8.518  15.708   5.207
64831W        W65696   8.763  15.970   6.531
64832W        W65697   9.874  17.123   6.394
64833W        W65698   8.524  15.577   6.506
64834W        W65699   8.503  18.043   5.122
64835W        W65700   7.820  18.002   6.756
64836W        W65701   7.932  17.363   3.886
64837W        W65702  10.449  17.121   4.696
64838W        W65703   8.053  15.913   6.582
64839W        W65704  10.826  15.843   4.063
64840W        W65705   8.571  16.900   4.534
64841W        W65706   9.670  16.282   6.615
64842W        W65707   9.561  15.910   6.159
64843W        W65708   8.121  16.282   6.188
64844W        W65709  10.331  18.170   6.017
64845W        W65710  10.122  14.804   7.011
64846W        W65711   7.786  14.954   6.598
64847W        W65712   8.125  15.977   5.651
64848W        W65713   8.494  15.791   3.773
64849W        W65714   7.297  17.550   6.318
64850W        W65715   8.882  16.259   5.761
64851W        W65716   8.705  15.284   3.866
64852W        W65717   7.840  16.100   4.647
64853W        W65718   7.611  17.952   6.084
64854W        W65719  10.406  16.178   4.192
64855W        W65720  10.501  15.094   6.878
64856W        W65721   9.937  17.303   4.841
64857W        W65722   7.535  16.227   7.018
64858W        W65723  10.501  14.691   4.314
64859W        W65724  10.021  17.166   4.325
64860W        W65725   8.923  16.224   4.410
64861W        W65726  10.110  15.028   3.933
64862W        W65727  10.175  15.635   6.119
64863W        W65728   7.884  16.228   5.326
64864W        W65729   8.178  17.167   4.975
64865W        W65730   9.941  15.787   4.940
64866W        W65731   8.964  15.166   5.636
64867W        W65732  10.926  17.077   6.147
64868W        W65733  10.844  15.064   5.708
64869W        W65734   7.383  17.894   5.084
64870W        W65735   7.892  17.081   4.620
64871W        W65736   7.807  14.698   7.173
64872W        W65737   8.926  17.551   7.275
64873W        W65738  10.681  16.519   5.065
64874W        W65739  10.035  16.696   3.945
64875W        W65740   9.330  18.217   6.157
64876W        W65741  10.187  16.939   7.194
64877W        W65742   9.002  14.649   4.474
64878W        W65743   9.715  15.518   5.333
64879W        W65744   7.401  17.105   5.665
64880W        W65745   8.654  15.067   4.306
64881W        W65746   8.458  16.551   7.155
64882W        W65747   9.452  15.532   4.869
64883W        W65748   9.657  16.942   5.991
64884W        W65749   7.811  17.547   6.426
64885W        W65750   8.402  17.530   7.149
64886W        W65751   8.253  15.327   4.163
64887W        W65752   9.770  15.469   4.488
64888W        W65753   9.728  17.577   6.725
64889W        W65754   8.413  16.169   5.324
64890W        W65755   8.068  17.867   6.189
64891W        W65756  10.813  17.984   3.790
64892W        W65757   7.676  16.656   6.786
64893W        W65758   9.671  16.918   5.474
64894W        W65759   8.107  16.567   4.716
64895W        W65760   8.478  17.574   6.111
64896W        W65761   8.856  14.993   5.152
64897W        W65762   7.467  16.977   4.082
64898W        W65763   8.986  15.928   3.952
64899W        W65764   7.632  16.477   4.971
64900W        W65765   8.922  15.119   6.435
64901W        W65766  10.594  14.828   3.862
64902W        W65767  10.687  16.574   6.961
64903W        W65768   9.341  17.831   7.113
64904W        W65769  10.899  16.925   6.635
64905W        W65770  10.307  17.723   7.246
64906W        W65771   8.046  18.179   5.724
64907W        W65772  10.905  16.801   4.598
64908W        W65773   9.435  16.068   5.111
64909W        W65774   9.202  14.680   5.001
64910W        W65775   8.261  17.664   4.838
64911W        W65776   8.760  15.405   6.063
64912W        W65777   8.460  14.774   5.532
64913W        W65778   7.523  17.596   4.080
64914W        W65779   9.339  16.960   4.798
64915W        W65780   8.214  17.755   6.677
64916W        W65781   7.691  16.578   4.373
64917W        W65782   7.576  15.121   5.372
64918W        W65783   9.124  17.086   5.429
64919W        W65784   7.376  14.940   4.449
64920W        W65785  10.040  16.146   6.376
64921W        W65786   9.917  15.532   3.948
64922W        W65787  10.434  17.204   5.596
64923W        W65788   9.095  17.688   5.427
64924W        W65789   8.507  17.792   4.338
64925W        W65790   9.789  14.695   3.768
64926W        W65791   7.589  17.955   5.509
64927W        W65792   9.786  15.713   7.144
64928W        W65793   7.769  15.243   7.143
64929W        W65794   7.500  15.843   4.476
64930W        W65795   8.191  15.832   4.201
64931W        W65796   9.954  16.159   7.018
64932W        W65797   8.297  16.440   5.727
64933W        W65798   9.771  14.726   4.847
64934W        W65799   8.902  18.157   5.350
64935W        W65800  10.116  17.619   6.287
64936W        W65801   9.700  17.768   5.398
64937W        W65802   9.719  16.748   4.992
64938W        W65803   9.181  14.973   4.063
64939W        W65804  10.862  14.601   4.785
64940W        W65805   8.550  16.236   3.948
64941W        W65806  10.716  15.573   4.938
64942W        W65807   9.408  16.743   3.815
64943W        W65808  10.344  16.943   6.563
64944W        W65809   9.998  17.644   4.030
64945W        W65810   8.613  15.319   6.936
64946W        W65811   8.433  15.903   6.177
64947W        W65812  10.525  17.398   6.454
64948W        W65813   9.625  15.348   6.831
64949W        W65814   7.469  15.819   6.608
64950W        W65815   9.229  16.296   6.334
64951W        W65816   7.586  17.054   4.991
64952W        W65817   7.733  16.351   5.881
64953W        W65818  10.050  16.637   6.231
64954W        W65819   9.822  18.017   7.042
64955W        W65820   9.718  15.756   6.595
64956W        W65821   9.995  17.810   5.000
64957W        W65822   8.997  17.530   6.323
64958W        W65823   8.482  17.885   5.592
64959W        W65824  10.287  17.056   6.011
64960W        W65825   9.337  17.128   7.148
64961W        W65826   7.942  17.081   5.487
64962W        W65827  10.288  16.840   5.132
64963W        W65828   9.929  17.906   5.883
64964W        W65829   7.907  17.635   5.753
64965W        W65830   8.928  15.687   6.963
64966W        W65831   9.379  17.853   4.474
64967W        W65832   8.687  17.108   7.112
64968W        W65833   8.813  17.346   4.489
64969W        W65834   8.034  16.086   3.748
64970W        W65835   7.373  18.172  10.648
64971W        W65836   7.749  17.065  10.171
64972W        W65837  10.454  16.795   7.941
64973W        W65838  10.584  17.880   9.968
64974W        W65839   8.502  17.871   7.494
64975W        W65840   8.585  16.023   8.477
64976W        W65841   8.100  15.871   8.641
64977W        W65842   9.091  16.686   8.075
64978W        W65843   8.766  17.778  10.430
64979W        W65844   7.415  15.339  10.393
64980W        W65845   8.177  14.619  10.195
64981W        W65846   9.871  15.007   9.082
64982W        W65847   9.520  15.878   7.652
64983W        W65848  10.090  15.312  10.743
64984W        W65849   7.456  15.104   9.868
64985W        W65850   7.555  17.723  10.889
64986W        W65851   9.077  17.113   7.621
64987W        W65852   7.509  15.896   9.314
64988W        W65853   8.402  15.787  10.551
64989W        W65854  10.861  15.646   9.050
64990W        W65855  10.625  16.689   9.909
64991W        W65856   8.933  16.022   8.936
64992W        W65857   9.479  17.361   9.305
64993W        W65858   7.979  16.795   9.537
64994W        W65859   7.338  16.323   9.108
64995W        W65860   8.374  16.295  10.300
64996W        W65861  10.645  16.078  10.554
64997W        W65862   8.261  17.522   8.999
64998W        W65863   9.382  17.211  10.133
64999W        W65864   8.602  15.851   9.358
65000W        W65865   8.894  16.635   9.001
65001W        W65866   9.891  17.408  10.849
65002W        W65867   8.970  16.728  10.859
65003W        W65868   8.951  16.444  10.337
65004W        W65869   7.360  15.835  10.859
65005W        W65870  10.192  17.370  10.458
65006W        W65871   7.773  14.952   8.456
65007W        W65872   8.300  17.210   9.455
65008W        W65873  10.763  16.993   8.745
65009W        W65874  10.176  15.393   9.312
65010W        W65875  10.461  15.346   7.407
65011W        W65876  10.926  16.147   9.713
65012W        W65877   8.893  17.854   9.466
65013W        W65878  10.667  17.320   7.904
65014W        W65879   7.796  18.106   7.658
65015W        W65880   8.189  18.152   8.334
65016W        W65881   7.986  14.906   9.760
65017W        W65882  10.609  15.924  10.035
65018W        W65883  10.014  16.346   8.494
65019W        W65884   9.980  16.034   7.521
65020W        W65885   9.188  17.178   9.661
65021W        W65886   8.994  15.508   8.860
65022W        W65887   9.594  17.595   9.854
65023W        W65888  10.465  16.386   8.276
65024W        W65889   9.367  15.044   8.292
65025W        W65890   8.024  17.738   7.975
65026W        W65891   7.395  15.237   8.574
65027W        W65892  10.181  15.844   9.048
65028W        W65893   7.639  17.461   8.963
65029W        W65894   8.980  17.811   7.833
65030W        W65895  10.372  15.837   7.297
65031W        W65896   7.395  17.595   9.461
65032W        W65897   8.186  17.167   9.941
65033W        W65898   8.559  16.527   8.560
65034W        W65899   8.581  14.932   9.653
65035W        W65900  10.810  14.694   8.950
65036W        W65901   8.029  16.566   7.418
65037W        W65902   7.684  15.599   7.597
65038W        W65903   7.746  17.555   8.391
65039W        W65904   8.877  17.038   8.639
65040W        W65905  10.209  17.897  10.353
65041W        W65906   9.135  15.539   8.037
65042W        W65907  10.518  17.937   8.809
65043W        W65908  10.195  15.790  10.407
65044W        W65909  10.908  17.446   8.541
65045W        W65910   9.535  16.738  10.025
65046W        W65911   7.301  16.289   8.231
65047W        W65912   8.412  16.704   9.804
65048W        W65913   9.616  15.968   8.182
65049W        W65914   9.493  16.458   8.286
65050W        W65915   7.836  15.878   9.760
65051W        W65916   7.821  15.754  10.682
65052W        W65917   7.711  14.671   8.841
65053W        W65918   9.479  15.018   9.402
65054W        W65919   9.127  15.203  10.565
65055W        W65920   9.482  15.352   7.743
65056W        W65921  10.665  17.745  10.497
65057W        W65922   9.632  14.826  10.536
65058W        W65923  10.651  17.127  10.658
65059W        W65924  10.081  15.294  10.254
65060W        W65925   9.881  15.232   8.524
65061W        W65926  10.274  16.366  10.928
65062W        W65927   8.014  17.942   8.914
65063W        W65928   8.672  15.659   7.900
65064W        W65929   8.241  14.943  10.564
65065W        W65930  10.293  15.427   8.245
65066W        W65931  10.660  15.909   8.190
65067W        W65932   8.403  18.126  10.661
65068W        W65933   8.329  14.662   7.896
65069W        W65934  10.650  15.196   8.931
65070W        W65935  10.800  17.445   7.376
65071W        W65936   7.707  16.648   9.078
65072W        W65937   9.624  15.235   7.308
65073W        W65938  10.758  17.567   9.028
65074W        W65939  10.797  14.761   9.778
65075W        W65940   9.242  15.973  10.332
65076W        W65941   9.335  17.312   8.035
65077W        W65942   9.735  16.606  10.775
65078W        W65943   9.409  14.583   9.084
65079W        W65944   8.021  15.486   9.147
65080W        W65945   7.575  16.686   9.921
65081W        W65946   9.434  17.879   8.627
65082W        W65947  10.628  15.476   9.499
65083W        W65948   9.265  17.823  10.266
65084W        W65949  10.608  16.882   7.471
65085W        W65950   9.043  16.365   8.532
65086W        W65951  10.895  14.876  10.273
65087W        W65952   9.044  16.711   9.867
65088W        W65953   9.261  15.597   9.312
65089W        W65954  10.113  15.895   8.150
65090W        W65955  10.400  15.628   7.792
65091W        W65956  10.209  17.668   8.181
65092W        W65957  10.043  17.271   8.977
65093W        W65958   9.939  16.350   7.955
65094W        W65959   9.372  16.560   8.941
65095W        W65960  10.253  16.348   9.008
65096W        W65961   7.628  15.363   9.432
65097W        W65962  10.406  16.415  10.259
65098W        W65963  10.757  18.033   9.405
65099W        W65964   8.687  17.477   8.807
65100W        W65965   9.694  18.010  10.131
65101W        W65966   9.688  15.340   9.895
65102W        W65967   8.895  18.048   9.956
65103W        W65968  10.592  15.002   8.422
65104W        W65969  10.383  16.321   9.723
65105W        W65970   7.366  15.642   9.761
65106W        W65971  10.226  15.437   8.779
65107W        W65972  10.637  15.588  10.556
65108W        W65973   9.522  17.287   8.774
65109W        W65974   8.778  17.878   8.387
65110W        W65975   7.893  15.058   7.645
65111W        W65976   8.997  14.712   9.455
65112W        W65977   8.025  17.832   7.303
65113W        W65978   8.399  16.298   8.054
65114W        W65979   9.053  16.927  10.367
65115W        W65980   8.883  15.285   8.357
65116W        W65981  10.239  14.882   8.785
65117W        W65982   9.959  18.164   9.113
65118W        W65983   9.371  17.812   9.453
65119W        W65984   8.767  16.849   9.414
65120W        W65985  10.537  17.572   9.540
65121W        W65986   8.231  15.075   8.309
65122W        W65987   8.753  17.372   9.269
65123W        W65988   8.236  15.303   7.334
65124W        W65989   9.037  15.912   9.728
65125W        W65990   9.885  14.778   9.598
65126W        W65991   7.305  16.621   9.483
65127W        W65992   9.009  16.439   7.641
65128W        W65993   8.277  14.754   7.411
65129W        W65994   9.015  15.835   8.462
65130W        W65995   9.985  14.811  10.161
65131W        W65996   8.573  16.823  10.270
65132W        W65997   9.377  16.605  10.487
65133W        W65998   9.994  16.635  10.380
65134W        W65999   9.278  14.775  10.885
65135W        W66000   8.500  15.391   9.278
65136W        W66001   7.926  15.347   8.676
65137W        W66002   7.712  18.059   8.352
65138W        W66003   9.044  17.389  10.477
65139W        W66004   8.079  16.874   7.836
65140W        W66005   9.759  16.259   9.057
65141W        W66006  10.039  16.058   9.456
65142W        W66007   9.244  16.732   9.390
65143W        W66008   9.714  17.106   7.522
65144W        W66009   9.386  15.127   8.850
65145W        W66010  10.865  15.405   8.118
65146W        W66011   7.359  17.994  10.149
65147W        W66012   7.776  17.220   9.681
65148W        W66013   7.343  18.066   7.913
65149W        W66014   9.242  15.336   9.719
65150W        W66015   8.605  17.359   7.568
65151W        W66016  10.510  17.741   7.754
65152W        W66017   9.485  16.394   7.768
65153W        W66018   8.328  15.585   8.285
65154W        W66019   9.160  15.495   7.337
65155W        W66020   9.744  17.060  10.515
65156W        W66021  10.097  14.966   8.132
65157W        W66022   7.427  14.814   7.580
65158W        W66023   8.713  17.133   9.870
65159W        W66024   8.512  17.049   8.962
65160W        W66025   8.254  17.001   7.360
65161W        W66026   7.495  17.242   8.128
65162W        W66027   7.999  16.312  10.570
65163W        W66028   8.703  14.872  10.756
65164W        W66029   9.412  15.014  10.112
65165W        W66030   8.607  14.782   8.393
65166W        W66031   9.666  14.859   7.898
65167W        W66032   7.611  14.791   9.475
65168W        W66033   7.659  15.754   8.845
65169W        W66034  10.348  14.862   9.251
65170W        W66035   7.770  15.360   8.065
65171W        W66036  10.341  15.048   9.681
65172W        W66037  10.737  16.251   7.366
65173W        W66038   8.029  15.009   9.185
65174W        W66039   9.143  15.581  10.125
65175W        W66040   7.291  15.271   7.603
65176W        W66041   8.077  16.660  10.164
65177W        W66042   9.435  16.058   9.343
65178W        W66043   9.302  18.137   7.639
65179W        W66044   7.448  16.644   7.336
65180W        W66045   8.183  17.055  10.462
65181W        W66046   7.704  16.222  10.093
65182W        W66047   8.695  16.327   9.887
65183W        W66048  10.463  14.686  10.149
65184W        W66049  10.861  16.296  10.140
65185W        W66050  10.849  16.496   7.826
65186W        W66051   9.712  16.828   7.925
65187W        W66052  10.186  18.128   7.620
65188W        W66053   9.363  16.118  10.762
65189W        W66054   7.693  17.085  10.802
65190W        W66055  10.899  15.007  10.754
65191W        W66056  10.617  15.935   9.375
65192W        W66057   8.925  18.065  10.852
65193W        W66058   8.780  14.694   7.579
65194W        W66059  10.319  17.293   7.522
65195W        W66060   8.088  15.386  10.408
65196W        W66061   8.522  17.380  10.270
65197W        W66062  10.648  15.371  10.068
65198W        W66063   9.859  18.030   8.036
65199W        W66064  10.098  16.649   9.403
65200W        W66065   8.348  15.065  10.070
65201W        W66066   8.817  16.134  10.827
65202W        W66067   8.320  17.313   8.021
65203W        W66068  10.075  16.811   8.285
65204W        W66069   7.843  15.437  10.009
65205W        W66070   9.172  17.499   8.473
65206W        W66071  10.922  16.059   8.654
65207W        W66072   9.144  14.692  10.373
65208W        W66073   9.924  17.397   9.452
65209W        W66074  10.227  17.741   9.160
65210W        W66075   9.446  17.543   7.588
65211W        W66076   7.456  17.435  10.430
65212W        W66077   8.199  15.427   9.668
65213W        W66078   8.169  14.775   8.778
65214W        W66079   9.790  15.617   9.470
65215W        W66080   8.588  16.788   7.670
65216W        W66081  10.586  16.730   9.169
65217W        W66082   7.913  17.488  10.592
65218W        W66083  10.300  18.170   8.389
65219W        W66084   8.399  15.190   8.834
65220W        W66085   8.168  16.683   8.924
65221W        W66086   8.481  18.094   9.674
65222W        W66087  10.548  18.190  10.706
65223W        W66088   9.707  16.378   9.639
65224W        W66089   7.556  16.176   7.554
65225W        W66090  10.690  17.834   8.251
65226W        W66091  10.527  15.158   7.870
65227W        W66092   8.666  14.677  10.273
65228W        W66093  10.372  17.479   8.731
65229W        W66094  10.401  16.035   8.636
65230W        W66095   8.518  15.708   8.852
65231W        W66096   8.763  15.970  10.176
65232W        W66097   9.874  17.123  10.039
65233W        W66098   8.524  15.577  10.151
65234W        W66099   8.503  18.043   8.767
65235W        W66100   7.820  18.002  10.401
65236W        W66101   7.932  17.363   7.531
65237W        W66102  10.449  17.121   8.341
65238W        W66103   8.053  15.913  10.227
65239W        W66104  10.826  15.843   7.708
65240W        W66105   8.571  16.900   8.179
65241W        W66106   9.670  16.282  10.260
65242W        W66107   9.561  15.910   9.804
65243W        W66108   8.121  16.282   9.833
65244W        W66109  10.331  18.170   9.662
65245W        W66110  10.122  14.804  10.656
65246W        W66111   7.786  14.954  10.243
65247W        W66112   8.125  15.977   9.296
65248W        W66113   8.494  15.791   7.418
65249W        W66114   7.297  17.550   9.963
65250W        W66115   8.882  16.259   9.406
65251W        W66116   8.705  15.284   7.511
65252W        W66117   7.840  16.100   8.292
65253W        W66118   7.611  17.952   9.729
65254W        W66119  10.406  16.178   7.837
65255W        W66120  10.501  15.094  10.523
65256W        W66121   9.937  17.303   8.486
65257W        W66122   7.535  16.227  10.663
65258W        W66123  10.501  14.691   7.959
65259W        W66124  10.021  17.166   7.970
65260W        W66125   8.923  16.224   8.055
65261W        W66126  10.110  15.028   7.578
65262W        W66127  10.175  15.635   9.764
65263W        W66128   7.884  16.228   8.971
65264W        W66129   8.178  17.167   8.620
65265W        W66130   9.941  15.787   8.585
65266W        W66131   8.964  15.166   9.281
65267W        W66132  10.926  17.077   9.792
65268W        W66133  10.844  15.064   9.353
65269W        W66134   7.383  17.894   8.729
65270W        W66135   7.892  17.081   8.265
65271W        W66136   7.807  14.698  10.818
65272W        W66137   8.926  17.551  10.920
65273W        W66138  10.681  16.519   8.710
65274W        W66139  10.035  16.696   7.590
65275W        W66140   9.330  18.217   9.802
65276W        W66141  10.187  16.939  10.839
65277W        W66142   9.002  14.649   8.119
65278W        W66143   9.715  15.518   8.978
65279W        W66144   7.401  17.105   9.310
65280W        W66145   8.654  15.067   7.951
65281W        W66146   8.458  16.551  10.800
65282W        W66147   9.452  15.532   8.514
65283W        W66148   9.657  16.942   9.636
65284W        W66149   7.811  17.547  10.071
65285W        W66150   8.402  17.530  10.794
65286W        W66151   8.253  15.327   7.808
65287W        W66152   9.770  15.469   8.133
65288W        W66153   9.728  17.577  10.370
65289W        W66154   8.413  16.169   8.969
65290W        W66155   8.068  17.867   9.834
65291W        W66156  10.813  17.984   7.435
65292W        W66157   7.676  16.656  10.431
65293W        W66158   9.671  16.918   9.119
65294W        W66159   8.107  16.567   8.361
65295W        W66160   8.478  17.574   9.756
65296W        W66161   8.856  14.993   8.797
65297W        W66162   7.467  16.977   7.727
65298W        W66163   8.986  15.928   7.597
65299W        W66164   7.632  16.477   8.616
65300W        W66165   8.922  15.119  10.080
65301W        W66166  10.594  14.828   7.507
65302W        W66167  10.687  16.574  10.606
65303W        W66168   9.341  17.831  10.758
65304W        W66169  10.899  16.925  10.280
65305W        W66170  10.307  17.723  10.891
65306W        W66171   8.046  18.179   9.369
65307W        W66172  10.905  16.801   8.243
65308W        W66173   9.435  16.068   8.756
65309W        W66174   9.202  14.680   8.646
65310W        W66175   8.261  17.664   8.483
65311W        W66176   8.760  15.405   9.708
65312W        W66177   8.460  14.774   9.177
65313W        W66178   7.523  17.596   7.725
65314W        W66179   9.339  16.960   8.443
65315W        W66180   8.214  17.755  10.322
65316W        W66181   7.691  16.578   8.018
65317W        W66182   7.576  15.121   9.017
65318W        W66183   9.124  17.086   9.074
65319W        W66184   7.376  14.940   8.094
65320W        W66185  10.040  16.146  10.021
65321W        W66186   9.917  15.532   7.593
65322W        W66187  10.434  17.204   9.241
65323W        W66188   9.095  17.688   9.072
65324W        W66189   8.507  17.792   7.983
65325W        W66190   9.789  14.695   7.413
65326W        W66191   7.589  17.955   9.154
65327W        W66192   9.786  15.713  10.789
65328W        W66193   7.769  15.243  10.788
65329W        W66194   7.500  15.843   8.121
65330W        W66195   8.191  15.832   7.846
65331W        W66196   9.954  16.159  10.663
65332W        W66197   8.297  16.440   9.372
65333W        W66198   9.771  14.726   8.492
65334W        W66199   8.902  18.157   8.995
65335W        W66200  10.116  17.619   9.932
65336W        W66201   9.700  17.768   9.043
65337W        W66202   9.719  16.748   8.637
65338W        W66203   9.181  14.973   7.708
65339W        W66204  10.862  14.601   8.430
65340W        W66205   8.550  16.236   7.593
65341W        W66206  10.716  15.573   8.583
65342W        W66207   9.408  16.743   7.460
65343W        W66208  10.344  16.943  10.208
65344W        W66209   9.998  17.644   7.675
65345W        W66210   8.613  15.319  10.581
65346W        W66211   8.433  15.903   9.822
65347W        W66212  10.525  17.398  10.099
65348W        W66213   9.625  15.348  10.476
65349W        W66214   7.469  15.819  10.253
65350W        W66215   9.229  16.296   9.979
65351W        W66216   7.586  17.054   8.636
65352W        W66217   7.733  16.351   9.526
65353W        W66218  10.050  16.637   9.876
65354W        W66219   9.822  18.017  10.687
65355W        W66220   9.718  15.756  10.240
65356W        W66221   9.995  17.810   8.645
65357W        W66222   8.997  17.530   9.968
65358W        W66223   8.482  17.885   9.237
65359W        W66224  10.287  17.056   9.656
65360W        W66225   9.337  17.128  10.793
65361W        W66226   7.942  17.081   9.132
65362W        W66227  10.288  16.840   8.777
65363W        W66228   9.929  17.906   9.528
65364W        W66229   7.907  17.635   9.398
65365W        W66230   8.928  15.687  10.608
65366W        W66231   9.379  17.853   8.119
65367W        W66232   8.687  17.108  10.757
65368W        W66233   8.813  17.346   8.134
65369W        W66234   8.034  16.086   7.393
65370W        W66235   7.373  18.172  14.292
65371W        W66236   7.749  17.065  13.815
65372W        W66237  10.454  16.795  11.585
65373W        W66238  10.584  17.880  13.612
65374W        W66239   8.502  17.871  11.138
65375W        W66240   8.585  16.023  12.121
65376W        W66241   8.100  15.871  12.285
65377W        W66242   9.091  16.686  11.719
65378W        W66243   8.766  17.778  14.074
65379W        W66244   7.415  15.339  14.037
65380W        W66245   8.177  14.619  13.839
65381W        W66246   9.871  15.007  12.726
65382W        W66247   9.520  15.878  11.296
65383W        W66248  10.090  15.312  14.387
65384W        W66249   7.456  15.104  13.512
65385W        W66250   7.555  17.723  14.533
65386W        W66251   9.077  17.113  11.265
65387W        W66252   7.509  15.896  12.958
65388W        W66253   8.402  15.787  14.195
65389W        W66254  10.861  15.646  12.694
65390W        W66255  10.625  16.689  13.553
65391W        W66256   8.933  16.022  12.580
65392W        W66257   9.479  17.361  12.949
65393W        W66258   7.979  16.795  13.181
65394W        W66259   7.338  16.323  12.752
65395W        W66260   8.374  16.295  13.944
65396W        W66261  10.645  16.078  14.198
65397W        W66262   8.261  17.522  12.643
65398W        W66263   9.382  17.211  13.777
65399W        W66264   8.602  15.851  13.002
65400W        W66265   8.894  16.635  12.645
65401W        W66266   9.891  17.408  14.493
65402W        W66267   8.970  16.728  14.503
65403W        W66268   8.951  16.444  13.981
65404W        W66269   7.360  15.835  14.503
65405W        W66270  10.192  17.370  14.102
65406W        W66271   7.773  14.952  12.100
65407W        W66272   8.300  17.210  13.099
65408W        W66273  10.763  16.993  12.389
65409W        W66274  10.176  15.393  12.956
65410W        W66275  10.461  15.346  11.051
65411W        W66276  10.926  16.147  13.357
65412W        W66277   8.893  17.854  13.110
65413W        W66278  10.667  17.320  11.548
65414W        W66279   7.796  18.106  11.302
65415W        W66280   8.189  18.152  11.978
65416W        W66281   7.986  14.906  13.404
65417W        W66282  10.609  15.924  13.679
65418W        W66283  10.014  16.346  12.138
65419W        W66284   9.980  16.034  11.165
65420W        W66285   9.188  17.178  13.305
65421W        W66286   8.994  15.508  12.504
65422W        W66287   9.594  17.595  13.498
65423W        W66288  10.465  16.386  11.920
65424W        W66289   9.367  15.044  11.936
65425W        W66290   8.024  17.738  11.619
65426W        W66291   7.395  15.237  12.218
65427W        W66292  10.181  15.844  12.692
65428W        W66293   7.639  17.461  12.607
65429W        W66294   8.980  17.811  11.477
65430W        W66295  10.372  15.837  10.941
65431W        W66296   7.395  17.595  13.105
65432W        W66297   8.186  17.167  13.585
65433W        W66298   8.559  16.527  12.204
65434W        W66299   8.581  14.932  13.297
65435W        W66300  10.810  14.694  12.594
65436W        W66301   8.029  16.566  11.062
65437W        W66302   7.684  15.599  11.241
65438W        W66303   7.746  17.555  12.035
65439W        W66304   8.877  17.038  12.283
65440W        W66305  10.209  17.897  13.997
65441W        W66306   9.135  15.539  11.681
65442W        W66307  10.518  17.937  12.453
65443W        W66308  10.195  15.790  14.051
65444W        W66309  10.908  17.446  12.185
65445W        W66310   9.535  16.738  13.669
65446W        W66311   7.301  16.289  11.875
65447W        W66312   8.412  16.704  13.448
65448W        W66313   9.616  15.968  11.826
65449W        W66314   9.493  16.458  11.930
65450W        W66315   7.836  15.878  13.404
65451W        W66316   7.821  15.754  14.326
65452W        W66317   7.711  14.671  12.485
65453W        W66318   9.479  15.018  13.046
65454W        W66319   9.127  15.203  14.209
65455W        W66320   9.482  15.352  11.387
65456W        W66321  10.665  17.745  14.141
65457W        W66322   9.632  14.826  14.180
65458W        W66323  10.651  17.127  14.302
65459W        W66324  10.081  15.294  13.898
65460W        W66325   9.881  15.232  12.168
65461W        W66326  10.274  16.366  14.572
65462W        W66327   8.014  17.942  12.558
65463W        W66328   8.672  15.659  11.544
65464W        W66329   8.241  14.943  14.208
65465W        W66330  10.293  15.427  11.889
65466W        W66331  10.660  15.909  11.834
65467W        W66332   8.403  18.126  14.305
65468W        W66333   8.329  14.662  11.540
65469W        W66334  10.650  15.196  12.575
65470W        W66335  10.800  17.445  11.020
65471W        W66336   7.707  16.648  12.722
65472W        W66337   9.624  15.235  10.952
65473W        W66338  10.758  17.567  12.672
65474W        W66339  10.797  14.761  13.422
65475W        W66340   9.242  15.973  13.976
65476W        W66341   9.335  17.312  11.679
65477W        W66342   9.735  16.606  14.419
65478W        W66343   9.409  14.583  12.728
65479W        W66344   8.021  15.486  12.791
65480W        W66345   7.575  16.686  13.565
65481W        W66346   9.434  17.879  12.271
65482W        W66347  10.628  15.476  13.143
65483W        W66348   9.265  17.823  13.910
65484W        W66349  10.608  16.882  11.115
65485W        W66350   9.043  16.365  12.176
65486W        W66351  10.895  14.876  13.917
65487W        W66352   9.044  16.711  13.511
65488W        W66353   9.261  15.597  12.956
65489W        W66354  10.113  15.895  11.794
65490W        W66355  10.400  15.628  11.436
65491W        W66356  10.209  17.668  11.825
65492W        W66357  10.043  17.271  12.621
65493W        W66358   9.939  16.350  11.599
65494W        W66359   9.372  16.560  12.585
65495W        W66360  10.253  16.348  12.652
65496W        W66361   7.628  15.363  13.076
65497W        W66362  10.406  16.415  13.903
65498W        W66363  10.757  18.033  13.049
65499W        W66364   8.687  17.477  12.451
65500W        W66365   9.694  18.010  13.775
65501W        W66366   9.688  15.340  13.539
65502W        W66367   8.895  18.048  13.600
65503W        W66368  10.592  15.002  12.066
65504W        W66369  10.383  16.321  13.367
65505W        W66370   7.366  15.642  13.405
65506W        W66371  10.226  15.437  12.423
65507W        W66372  10.637  15.588  14.200
65508W        W66373   9.522  17.287  12.418
65509W        W66374   8.778  17.878  12.031
65510W        W66375   7.893  15.058  11.289
65511W        W66376   8.997  14.712  13.099
65512W        W66377   8.025  17.832  10.947
65513W        W66378   8.399  16.298  11.698
65514W        W66379   9.053  16.927  14.011
65515W        W66380   8.883  15.285  12.001
65516W        W66381  10.239  14.882  12.429
65517W        W66382   9.959  18.164  12.757
65518W        W66383   9.371  17.812  13.097
65519W        W66384   8.767  16.849  13.058
65520W        W66385  10.537  17.572  13.184
65521W        W66386   8.231  15.075  11.953
65522W        W66387   8.753  17.372  12.913
65523W        W66388   8.236  15.303  10.978
65524W        W66389   9.037  15.912  13.372
65525W        W66390   9.885  14.778  13.242
65526W        W66391   7.305  16.621  13.127
65527W        W66392   9.009  16.439  11.285
65528W        W66393   8.277  14.754  11.055
65529W        W66394   9.015  15.835  12.106
65530W        W66395   9.985  14.811  13.805
65531W        W66396   8.573  16.823  13.914
65532W        W66397   9.377  16.605  14.131
65533W        W66398   9.994  16.635  14.024
65534W        W66399   9.278  14.775  14.529
65535W        W66400   8.500  15.391  12.922
65536W        W66401   7.926  15.347  12.320
65537W        W66402   7.712  18.059  11.996
65538W        W66403   9.044  17.389  14.121
65539W        W66404   8.079  16.874  11.480
65540W        W66405   9.759  16.259  12.701
65541W        W66406  10.039  16.058  13.100
65542W        W66407   9.244  16.732  13.034
65543W        W66408   9.714  17.106  11.166
65544W        W66409   9.386  15.127  12.494
65545W        W66410  10.865  15.405  11.762
65546W        W66411   7.359  17.994  13.793
65547W        W66412   7.776  17.220  13.325
65548W        W66413   7.343  18.066  11.557
65549W        W66414   9.242  15.336  13.363
65550W        W66415   8.605  17.359  11.212
65551W        W66416  10.510  17.741  11.398
65552W        W66417   9.485  16.394  11.412
65553W        W66418   8.328  15.585  11.929
65554W        W66419   9.160  15.495  10.981
65555W        W66420   9.744  17.060  14.159
65556W        W66421  10.097  14.966  11.776
65557W        W66422   7.427  14.814  11.224
65558W        W66423   8.713  17.133  13.514
65559W        W66424   8.512  17.049  12.606
65560W        W66425   8.254  17.001  11.004
65561W        W66426   7.495  17.242  11.772
65562W        W66427   7.999  16.312  14.214
65563W        W66428   8.703  14.872  14.400
65564W        W66429   9.412  15.014  13.756
65565W        W66430   8.607  14.782  12.037
65566W        W66431   9.666  14.859  11.542
65567W        W66432   7.611  14.791  13.119
65568W        W66433   7.659  15.754  12.489
65569W        W66434  10.348  14.862  12.895
65570W        W66435   7.770  15.360  11.709
65571W        W66436  10.341  15.048  13.325
65572W        W66437  10.737  16.251  11.010
65573W        W66438   8.029  15.009  12.829
65574W        W66439   9.143  15.581  13.769
65575W        W66440   7.291  15.271  11.247
65576W        W66441   8.077  16.660  13.808
65577W        W66442   9.435  16.058  12.987
65578W        W66443   9.302  18.137  11.283
65579W        W66444   7.448  16.644  10.980
65580W        W66445   8.183  17.055  14.106
65581W        W66446   7.704  16.222  13.737
65582W        W66447   8.695  16.327  13.531
65583W        W66448  10.463  14.686  13.793
65584W        W66449  10.861  16.296  13.784
65585W        W66450  10.849  16.496  11.470
65586W        W66451   9.712  16.828  11.569
65587W        W66452  10.186  18.128  11.264
65588W        W66453   9.363  16.118  14.406
65589W        W66454   7.693  17.085  14.446
65590W        W66455  10.899  15.007  14.398
65591W        W66456  10.617  15.935  13.019
65592W        W66457   8.925  18.065  14.496
65593W        W66458   8.780  14.694  11.223
65594W        W66459  10.319  17.293  11.166
65595W        W66460   8.088  15.386  14.052
65596W        W66461   8.522  17.380  13.914
65597W        W66462  10.648  15.371  13.712
65598W        W66463   9.859  18.030  11.680
65599W        W66464  10.098  16.649  13.047
65600W        W66465   8.348  15.065  13.714
65601W        W66466   8.817  16.134  14.471
65602W        W66467   8.320  17.313  11.665
65603W        W66468  10.075  16.811  11.929
65604W        W66469   7.843  15.437  13.653
65605W        W66470   9.172  17.499  12.117
65606W        W66471  10.922  16.059  12.298
65607W        W66472   9.144  14.692  14.017
65608W        W66473   9.924  17.397  13.096
65609W        W66474  10.227  17.741  12.804
65610W        W66475   9.446  17.543  11.232
65611W        W66476   7.456  17.435  14.074
65612W        W66477   8.199  15.427  13.312
65613W        W66478   8.169  14.775  12.422
65614W        W66479   9.790  15.617  13.114
65615W        W66480   8.588  16.788  11.314
65616W        W66481  10.586  16.730  12.813
65617W        W66482   7.913  17.488  14.236
65618W        W66483  10.300  18.170  12.033
65619W        W66484   8.399  15.190  12.478
65620W        W66485   8.168  16.683  12.568
65621W        W66486   8.481  18.094  13.318
65622W        W66487  10.548  18.190  14.350
65623W        W66488   9.707  16.378  13.283
65624W        W66489   7.556  16.176  11.198
65625W        W66490  10.690  17.834  11.895
65626W        W66491  10.527  15.158  11.514
65627W        W66492   8.666  14.677  13.917
65628W        W66493  10.372  17.479  12.375
65629W        W66494  10.401  16.035  12.280
65630W        W66495   8.518  15.708  12.496
65631W        W66496   8.763  15.970  13.820
65632W        W66497   9.874  17.123  13.683
65633W        W66498   8.524  15.577  13.795
65634W        W66499   8.503  18.043  12.411
65635W        W66500   7.820  18.002  14.045
65636W        W66501   7.932  17.363  11.175
65637W        W66502  10.449  17.121  11.985
65638W        W66503   8.053  15.913  13.871
65639W        W66504  10.826  15.843  11.352
65640W        W66505   8.571  16.900  11.823
65641W        W66506   9.670  16.282  13.904
65642W        W66507   9.561  15.910  13.448
65643W        W66508   8.121  16.282  13.477
65644W        W66509  10.331  18.170  13.306
65645W        W66510  10.122  14.804  14.300
65646W        W66511   7.786  14.954  13.887
65647W        W66512   8.125  15.977  12.940
65648W        W66513   8.494  15.791  11.062
65649W        W66514   7.297  17.550  13.607
65650W        W66515   8.882  16.259  13.050
65651W        W66516   8.705  15.284  11.155
65652W        W66517   7.840  16.100  11.936
65653W        W66518   7.611  17.952  13.373
65654W        W66519  10.406  16.178  11.481
65655W        W66520  10.501  15.094  14.167
65656W        W66521   9.937  17.303  12.130
65657W        W66522   7.535  16.227  14.307
65658W        W66523  10.501  14.691  11.603
65659W        W66524  10.021  17.166  11.614
65660W        W66525   8.923  16.224  11.699
65661W        W66526  10.110  15.028  11.222
65662W        W66527  10.175  15.635  13.408
65663W        W66528   7.884  16.228  12.615
65664W        W66529   8.178  17.167  12.264
65665W        W66530   9.941  15.787  12.229
65666W        W66531   8.964  15.166  12.925
65667W        W66532  10.926  17.077  13.436
65668W        W66533  10.844  15.064  12.997
65669W        W66534   7.383  17.894  12.373
65670W        W66535   7.892  17.081  11.909
65671W        W66536   7.807  14.698  14.462
65672W        W66537   8.926  17.551  14.564
65673W        W66538  10.681  16.519  12.354
65674W        W66539  10.035  16.696  11.234
65675W        W66540   9.330  18.217  13.446
65676W        W66541  10.187  16.939  14.483
65677W        W66542   9.002  14.649  11.763
65678W        W66543   9.715  15.518  12.622
65679W        W66544   7.401  17.105  12.954
65680W        W66545   8.654  15.067  11.595
65681W        W66546   8.458  16.551  14.444
65682W        W66547   9.452  15.532  12.158
65683W        W66548   9.657  16.942  13.280
65684W        W66549   7.811  17.547  13.715
65685W        W66550   8.402  17.530  14.438
65686W        W66551   8.253  15.327  11.452
65687W        W66552   9.770  15.469  11.777
65688W        W66553   9.728  17.577  14.014
65689W        W66554   8.413  16.169  12.613
65690W        W66555   8.068  17.867  13.478
65691W        W66556  10.813  17.984  11.079
65692W        W66557   7.676  16.656  14.075
65693W        W66558   9.671  16.918  12.763
65694W        W66559   8.107  16.567  12.005
65695W        W66560   8.478  17.574  13.400
65696W        W66561   8.856  14.993  12.441
65697W        W66562   7.467  16.977  11.371
65698W        W66563   8.986  15.928  11.241
65699W        W66564   7.632  16.477  12.260
65700W        W66565   8.922  15.119  13.724
65701W        W66566  10.594  14.828  11.151
65702W        W66567  10.687  16.574  14.250
65703W        W66568   9.341  17.831  14.402
65704W        W66569  10.899  16.925  13.924
65705W        W66570  10.307  17.723  14.535
65706W        W66571   8.046  18.179  13.013
65707W        W66572  10.905  16.801  11.887
65708W        W66573   9.435  16.068  12.400
65709W        W66574   9.202  14.680  12.290
65710W        W66575   8.261  17.664  12.127
65711W        W66576   8.760  15.405  13.352
65712W        W66577   8.460  14.774  12.821
65713W        W66578   7.523  17.596  11.369
65714W        W66579   9.339  16.960  12.087
65715W        W66580   8.214  17.755  13.966
65716W        W66581   7.691  16.578  11.662
65717W        W66582   7.576  15.121  12.661
65718W        W66583   9.124  17.086  12.718
65719W        W66584   7.376  14.940  11.738
65720W        W66585  10.040  16.146  13.665
65721W        W66586   9.917  15.532  11.237
65722W        W66587  10.434  17.204  12.885
65723W        W66588   9.095  17.688  12.716
65724W        W66589   8.507  17.792  11.627
65725W        W66590   9.789  14.695  11.057
65726W        W66591   7.589  17.955  12.798
65727W        W66592   9.786  15.713  14.433
65728W        W66593   7.769  15.243  14.432
65729W        W66594   7.500  15.843  11.765
65730W        W66595   8.191  15.832  11.490
65731W        W66596   9.954  16.159  14.307
65732W        W66597   8.297  16.440  13.016
65733W        W66598   9.771  14.726  12.136
65734W        W66599   8.902  18.157  12.639
65735W        W66600  10.116  17.619  13.576
65736W        W66601   9.700  17.768  12.687
65737W        W66602   9.719  16.748  12.281
65738W        W66603   9.181  14.973  11.352
65739W        W66604  10.862  14.601  12.074
65740W        W66605   8.550  16.236  11.237
65741W        W66606  10.716  15.573  12.227
65742W        W66607   9.408  16.743  11.104
65743W        W66608  10.344  16.943  13.852
65744W        W66609   9.998  17.644  11.319
65745W        W66610   8.613  15.319  14.225
65746W        W66611   8.433  15.903  13.466
65747W        W66612  10.525  17.398  13.743
65748W        W66613   9.625  15.348  14.120
65749W        W66614   7.469  15.819  13.897
65750W        W66615   9.229  16.296  13.623
65751W        W66616   7.586  17.054  12.280
65752W        W66617   7.733  16.351  13.170
65753W        W66618  10.050  16.637  13.520
65754W        W66619   9.822  18.017  14.331
65755W        W66620   9.718  15.756  13.884
65756W        W66621   9.995  17.810  12.289
65757W        W66622   8.997  17.530  13.612
65758W        W66623   8.482  17.885  12.881
65759W        W66624  10.287  17.056  13.300
65760W        W66625   9.337  17.128  14.437
65761W        W66626   7.942  17.081  12.776
65762W        W66627  10.288  16.840  12.421
65763W        W66628   9.929  17.906  13.172
65764W        W66629   7.907  17.635  13.042
65765W        W66630   8.928  15.687  14.252
65766W        W66631   9.379  17.853  11.763
65767W        W66632   8.687  17.108  14.401
65768W        W66633   8.813  17.346  11.778
65769W        W66634   8.034  16.086  11.037
65770W        W66635   7.373  18.172  17.936
65771W        W66636   7.749  17.065  17.459
65772W        W66637  10.454  16.795  15.229
65773W        W66638  10.584  17.880  17.256
65774W        W66639   8.502  17.871  14.782
65775W        W66640   8.585  16.023  15.765
65776W        W66641   8.100  15.871  15.929
65777W        W66642   9.091  16.686  15.363
65778W        W66643   8.766  17.778  17.718
65779W        W66644   7.415  15.339  17.681
65780W        W66645   8.177  14.619  17.483
65781W        W66646   9.871  15.007  16.370
65782W        W66647   9.520  15.878  14.940
65783W        W66648  10.090  15.312  18.031
65784W        W66649   7.456  15.104  17.156
65785W        W66650   7.555  17.723  18.177
65786W        W66651   9.077  17.113  14.909
65787W        W66652   7.509  15.896  16.602
65788W        W66653   8.402  15.787  17.839
65789W        W66654  10.861  15.646  16.338
65790W        W66655  10.625  16.689  17.197
65791W        W66656   8.933  16.022  16.224
65792W        W66657   9.479  17.361  16.593
65793W        W66658   7.979  16.795  16.825
65794W        W66659   7.338  16.323  16.396
65795W        W66660   8.374  16.295  17.588
65796W        W66661  10.645  16.078  17.842
65797W        W66662   8.261  17.522  16.287
65798W        W66663   9.382  17.211  17.421
65799W        W66664   8.602  15.851  16.646
65800W        W66665   8.894  16.635  16.289
65801W        W66666   9.891  17.408  18.137
65802W        W66667   8.970  16.728  18.147
65803W        W66668   8.951  16.444  17.625
65804W        W66669   7.360  15.835  18.147
65805W        W66670   7.773  14.952  15.744
65806W        W66671   8.300  17.210  16.743
65807W        W66672  10.763  16.993  16.033
65808W        W66673  10.176  15.393  16.600
65809W        W66674  10.461  15.346  14.695
65810W        W66675  10.926  16.147  17.001
65811W        W66676   8.893  17.854  16.754
65812W        W66677  10.667  17.320  15.192
65813W        W66678   7.796  18.106  14.946
65814W        W66679   8.189  18.152  15.622
65815W        W66680   7.986  14.906  17.048
65816W        W66681  10.609  15.924  17.323
65817W        W66682  10.014  16.346  15.782
65818W        W66683   9.980  16.034  14.809
65819W        W66684   9.188  17.178  16.949
65820W        W66685   8.994  15.508  16.148
65821W        W66686   9.594  17.595  17.142
65822W        W66687  10.465  16.386  15.564
65823W        W66688   9.367  15.044  15.580
65824W        W66689   8.024  17.738  15.263
65825W        W66690   7.395  15.237  15.862
65826W        W66691  10.181  15.844  16.336
65827W        W66692   7.639  17.461  16.251
65828W        W66693   8.980  17.811  15.121
65829W        W66694  10.372  15.837  14.585
65830W        W66695   7.395  17.595  16.749
65831W        W66696   8.186  17.167  17.229
65832W        W66697   8.559  16.527  15.848
65833W        W66698   8.581  14.932  16.941
65834W        W66699  10.810  14.694  16.238
65835W        W66700   8.029  16.566  14.706
65836W        W66701   7.684  15.599  14.885
65837W        W66702   7.746  17.555  15.679
65838W        W66703   8.877  17.038  15.927
65839W        W66704  10.209  17.897  17.641
65840W        W66705   9.135  15.539  15.325
65841W        W66706  10.518  17.937  16.097
65842W        W66707  10.195  15.790  17.695
65843W        W66708  10.908  17.446  15.829
65844W        W66709   9.535  16.738  17.313
65845W        W66710   7.301  16.289  15.519
65846W        W66711   8.412  16.704  17.092
65847W        W66712   9.616  15.968  15.470
65848W        W66713   9.493  16.458  15.574
65849W        W66714   7.836  15.878  17.048
65850W        W66715   7.821  15.754  17.970
65851W        W66716   7.711  14.671  16.129
65852W        W66717   9.479  15.018  16.690
65853W        W66718   9.127  15.203  17.853
65854W        W66719   9.482  15.352  15.031
65855W        W66720  10.665  17.745  17.785
65856W        W66721   9.632  14.826  17.824
65857W        W66722  10.651  17.127  17.946
65858W        W66723  10.081  15.294  17.542
65859W        W66724   9.881  15.232  15.812
65860W        W66725  10.274  16.366  18.216
65861W        W66726   8.014  17.942  16.202
65862W        W66727   8.672  15.659  15.188
65863W        W66728   8.241  14.943  17.852
65864W        W66729  10.293  15.427  15.533
65865W        W66730  10.660  15.909  15.478
65866W        W66731   8.403  18.126  17.949
65867W        W66732   8.329  14.662  15.184
65868W        W66733  10.650  15.196  16.219
65869W        W66734  10.800  17.445  14.664
65870W        W66735   7.707  16.648  16.366
65871W        W66736   9.624  15.235  14.596
65872W        W66737  10.758  17.567  16.316
65873W        W66738  10.797  14.761  17.066
65874W        W66739   9.242  15.973  17.620
65875W        W66740   9.335  17.312  15.323
65876W        W66741   9.735  16.606  18.063
65877W        W66742   9.409  14.583  16.372
65878W        W66743   8.021  15.486  16.435
65879W        W66744   7.575  16.686  17.209
65880W        W66745   9.434  17.879  15.915
65881W        W66746  10.628  15.476  16.787
65882W        W66747   9.265  17.823  17.554
65883W        W66748  10.608  16.882  14.759
65884W        W66749   9.043  16.365  15.820
65885W        W66750  10.895  14.876  17.561
65886W        W66751   9.044  16.711  17.155
65887W        W66752   9.261  15.597  16.600
65888W        W66753  10.113  15.895  15.438
65889W        W66754  10.400  15.628  15.080
65890W        W66755  10.209  17.668  15.469
65891W        W66756  10.043  17.271  16.265
65892W        W66757   9.939  16.350  15.243
65893W        W66758   9.372  16.560  16.229
65894W        W66759  10.253  16.348  16.296
65895W        W66760   7.628  15.363  16.720
65896W        W66761  10.406  16.415  17.547
65897W        W66762  10.757  18.033  16.693
65898W        W66763   8.687  17.477  16.095
65899W        W66764   9.694  18.010  17.419
65900W        W66765   9.688  15.340  17.183
65901W        W66766   8.895  18.048  17.244
65902W        W66767  10.592  15.002  15.710
65903W        W66768  10.383  16.321  17.011
65904W        W66769   7.366  15.642  17.049
65905W        W66770  10.226  15.437  16.067
65906W        W66771  10.637  15.588  17.844
65907W        W66772   9.522  17.287  16.062
65908W        W66773   8.778  17.878  15.675
65909W        W66774   7.893  15.058  14.933
65910W        W66775   8.997  14.712  16.743
65911W        W66776   8.025  17.832  14.591
65912W        W66777   8.399  16.298  15.342
65913W        W66778   9.053  16.927  17.655
65914W        W66779   8.883  15.285  15.645
65915W        W66780  10.239  14.882  16.073
65916W        W66781   9.959  18.164  16.401
65917W        W66782   9.371  17.812  16.741
65918W        W66783   8.767  16.849  16.702
65919W        W66784  10.537  17.572  16.828
65920W        W66785   8.231  15.075  15.597
65921W        W66786   8.753  17.372  16.557
65922W        W66787   8.236  15.303  14.622
65923W        W66788   9.037  15.912  17.016
65924W        W66789   9.885  14.778  16.886
65925W        W66790   7.305  16.621  16.771
65926W        W66791   9.009  16.439  14.929
65927W        W66792   8.277  14.754  14.699
65928W        W66793   9.015  15.835  15.750
65929W        W66794   9.985  14.811  17.449
65930W        W66795   8.573  16.823  17.558
65931W        W66796   9.377  16.605  17.775
65932W        W66797   9.994  16.635  17.668
65933W        W66798   9.278  14.775  18.173
65934W        W66799   8.500  15.391  16.566
65935W        W66800   7.926  15.347  15.964
65936W        W66801   7.712  18.059  15.640
65937W        W66802   9.044  17.389  17.765
65938W        W66803   8.079  16.874  15.124
65939W        W66804   9.759  16.259  16.345
65940W        W66805  10.039  16.058  16.744
65941W        W66806   9.244  16.732  16.678
65942W        W66807   9.714  17.106  14.810
65943W        W66808   9.386  15.127  16.138
65944W        W66809  10.865  15.405  15.406
65945W        W66810   7.359  17.994  17.437
65946W        W66811   7.776  17.220  16.969
65947W        W66812   7.343  18.066  15.201
65948W        W66813   9.242  15.336  17.007
65949W        W66814   8.605  17.359  14.856
65950W        W66815  10.510  17.741  15.042
65951W        W66816   9.485  16.394  15.056
65952W        W66817   8.328  15.585  15.573
65953W        W66818   9.160  15.495  14.625
65954W        W66819   9.744  17.060  17.803
65955W        W66820  10.097  14.966  15.420
65956W        W66821   7.427  14.814  14.868
65957W        W66822   8.713  17.133  17.158
65958W        W66823   8.512  17.049  16.250
65959W        W66824   8.254  17.001  14.648
65960W        W66825   7.495  17.242  15.416
65961W        W66826   7.999  16.312  17.858
65962W        W66827   8.703  14.872  18.044
65963W        W66828   9.412  15.014  17.400
65964W        W66829   8.607  14.782  15.681
65965W        W66830   9.666  14.859  15.186
65966W        W66831   7.611  14.791  16.763
65967W        W66832   7.659  15.754  16.133
65968W        W66833  10.348  14.862  16.539
65969W        W66834   7.770  15.360  15.353
65970W        W66835  10.341  15.048  16.969
65971W        W66836  10.737  16.251  14.654
65972W        W66837   8.029  15.009  16.473
65973W        W66838   9.143  15.581  17.413
65974W        W66839   7.291  15.271  14.891
65975W        W66840   8.077  16.660  17.452
65976W        W66841   9.435  16.058  16.631
65977W        W66842   9.302  18.137  14.927
65978W        W66843   7.448  16.644  14.624
65979W        W66844   8.183  17.055  17.750
65980W        W66845   7.704  16.222  17.381
65981W        W66846   8.695  16.327  17.175
65982W        W66847  10.463  14.686  17.437
65983W        W66848  10.861  16.296  17.428
65984W        W66849  10.849  16.496  15.114
65985W        W66850   9.712  16.828  15.213
65986W        W66851  10.186  18.128  14.908
65987W        W66852   9.363  16.118  18.050
65988W        W66853   7.693  17.085  18.090
65989W        W66854  10.899  15.007  18.042
65990W        W66855  10.617  15.935  16.663
65991W        W66856   8.925  18.065  18.140
65992W        W66857   8.780  14.694  14.867
65993W        W66858  10.319  17.293  14.810
65994W        W66859   8.088  15.386  17.696
65995W        W66860   8.522  17.380  17.558
65996W        W66861  10.648  15.371  17.356
65997W        W66862   9.859  18.030  15.324
65998W        W66863  10.098  16.649  16.691
65999W        W66864   8.348  15.065  17.358
66000W        W66865   8.817  16.134  18.115
66001W        W66866   8.320  17.313  15.309
66002W        W66867  10.075  16.811  15.573
66003W        W66868   7.843  15.437  17.297
66004W        W66869   9.172  17.499  15.761
66005W        W66870  10.922  16.059  15.942
66006W        W66871   9.144  14.692  17.661
66007W        W66872   9.924  17.397  16.740
66008W        W66873  10.227  17.741  16.448
66009W        W66874   9.446  17.543  14.876
66010W        W66875   7.456  17.435  17.718
66011W        W66876   8.199  15.427  16.956
66012W        W66877   8.169  14.775  16.066
66013W        W66878   9.790  15.617  16.758
66014W        W66879   8.588  16.788  14.958
66015W        W66880  10.586  16.730  16.457
66016W        W66881   7.913  17.488  17.880
66017W        W66882  10.300  18.170  15.677
66018W        W66883   8.399  15.190  16.122
66019W        W66884   8.168  16.683  16.212
66020W        W66885   8.481  18.094  16.962
66021W        W66886  10.548  18.190  17.994
66022W        W66887   9.707  16.378  16.927
66023W        W66888   7.556  16.176  14.842
66024W        W66889  10.690  17.834  15.539
66025W        W66890  10.527  15.158  15.158
66026W        W66891   8.666  14.677  17.561
66027W        W66892  10.372  17.479  16.019
66028W        W66893  10.401  16.035  15.924
66029W        W66894   8.518  15.708  16.140
66030W        W66895   8.763  15.970  17.464
66031W        W66896   9.874  17.123  17.327
66032W        W66897   8.524  15.577  17.439
66033W        W66898   8.503  18.043  16.055
66034W        W66899   7.820  18.002  17.689
66035W        W66900   7.932  17.363  14.819
66036W        W66901  10.449  17.121  15.629
66037W        W66902   8.053  15.913  17.515
66038W        W66903  10.826  15.843  14.996
66039W        W66904   8.571  16.900  15.467
66040W        W66905   9.670  16.282  17.548
66041W        W66906   9.561  15.910  17.092
66042W        W66907   8.121  16.282  17.121
66043W        W66908  10.331  18.170  16.950
66044W        W66909  10.122  14.804  17.944
66045W        W66910   7.786  14.954  17.531
66046W        W66911   8.125  15.977  16.584
66047W        W66912   8.494  15.791  14.706
66048W        W66913   7.297  17.550  17.251
66049W        W66914   8.882  16.259  16.694
66050W        W66915   8.705  15.284  14.799
66051W        W66916   7.840  16.100  15.580
66052W        W66917   7.611  17.952  17.017
66053W        W66918  10.406  16.178  15.125
66054W        W66919  10.501  15.094  17.811
66055W        W66920   9.937  17.303  15.774
66056W        W66921   7.535  16.227  17.951
66057W        W66922  10.501  14.691  15.247
66058W        W66923  10.021  17.166  15.258
66059W        W66924   8.923  16.224  15.343
66060W        W66925  10.110  15.028  14.866
66061W        W66926  10.175  15.635  17.052
66062W        W66927   7.884  16.228  16.259
66063W        W66928   8.178  17.167  15.908
66064W        W66929   9.941  15.787  15.873
66065W        W66930   8.964  15.166  16.569
66066W        W66931  10.926  17.077  17.080
66067W        W66932  10.844  15.064  16.641
66068W        W66933   7.383  17.894  16.017
66069W        W66934   7.892  17.081  15.553
66070W        W66935   7.807  14.698  18.106
66071W        W66936   8.926  17.551  18.208
66072W        W66937  10.681  16.519  15.998
66073W        W66938  10.035  16.696  14.878
66074W        W66939   9.330  18.217  17.090
66075W        W66940  10.187  16.939  18.127
66076W        W66941   9.002  14.649  15.407
66077W        W66942   9.715  15.518  16.266
66078W        W66943   7.401  17.105  16.598
66079W        W66944   8.654  15.067  15.239
66080W        W66945   8.458  16.551  18.088
66081W        W66946   9.452  15.532  15.802
66082W        W66947   9.657  16.942  16.924
66083W        W66948   7.811  17.547  17.359
66084W        W66949   8.402  17.530  18.082
66085W        W66950   8.253  15.327  15.096
66086W        W66951   9.770  15.469  15.421
66087W        W66952   9.728  17.577  17.658
66088W        W66953   8.413  16.169  16.257
66089W        W66954   8.068  17.867  17.122
66090W        W66955   7.676  16.656  17.719
66091W        W66956   9.671  16.918  16.407
66092W        W66957   8.107  16.567  15.649
66093W        W66958   8.478  17.574  17.044
66094W        W66959   8.856  14.993  16.085
66095W        W66960   7.467  16.977  15.015
66096W        W66961   8.986  15.928  14.885
66097W        W66962   7.632  16.477  15.904
66098W        W66963   8.922  15.119  17.368
66099W        W66964  10.594  14.828  14.795
66100W        W66965  10.687  16.574  17.894
66101W        W66966   9.341  17.831  18.046
66102W        W66967  10.899  16.925  17.568
66103W        W66968  10.307  17.723  18.179
66104W        W66969   8.046  18.179  16.657
66105W        W66970  10.905  16.801  15.531
66106W        W66971   9.435  16.068  16.044
66107W        W66972   9.202  14.680  15.934
66108W        W66973   8.261  17.664  15.771
66109W        W66974   8.760  15.405  16.996
66110W        W66975   8.460  14.774  16.465
66111W        W66976   7.523  17.596  15.013
66112W        W66977   9.339  16.960  15.731
66113W        W66978   8.214  17.755  17.610
66114W        W66979   7.691  16.578  15.306
66115W        W66980   7.576  15.121  16.305
66116W        W66981   9.124  17.086  16.362
66117W        W66982   7.376  14.940  15.382
66118W        W66983  10.040  16.146  17.309
66119W        W66984   9.917  15.532  14.881
66120W        W66985  10.434  17.204  16.529
66121W        W66986   9.095  17.688  16.360
66122W        W66987   8.507  17.792  15.271
66123W        W66988   9.789  14.695  14.701
66124W        W66989   7.589  17.955  16.442
66125W        W66990   9.786  15.713  18.077
66126W        W66991   7.769  15.243  18.076
66127W        W66992   7.500  15.843  15.409
66128W        W66993   8.191  15.832  15.134
66129W        W66994   9.954  16.159  17.951
66130W        W66995   8.297  16.440  16.660
66131W        W66996   9.771  14.726  15.780
66132W        W66997   8.902  18.157  16.283
66133W        W66998  10.116  17.619  17.220
66134W        W66999   9.700  17.768  16.331
66135W        W67000   9.719  16.748  15.925
66136W        W67001   9.181  14.973  14.996
66137W        W67002  10.862  14.601  15.718
66138W        W67003   8.550  16.236  14.881
66139W        W67004  10.716  15.573  15.871
66140W        W67005   9.408  16.743  14.748
66141W        W67006  10.344  16.943  17.496
66142W        W67007   9.998  17.644  14.963
66143W        W67008   8.613  15.319  17.869
66144W        W67009   8.433  15.903  17.110
66145W        W67010  10.525  17.398  17.387
66146W        W67011   9.625  15.348  17.764
66147W        W67012   7.469  15.819  17.541
66148W        W67013   9.229  16.296  17.267
66149W        W67014   7.586  17.054  15.924
66150W        W67015   7.733  16.351  16.814
66151W        W67016  10.050  16.637  17.164
66152W        W67017   9.822  18.017  17.975
66153W        W67018   9.718  15.756  17.528
66154W        W67019   9.995  17.810  15.933
66155W        W67020   8.997  17.530  17.256
66156W        W67021   8.482  17.885  16.525
66157W        W67022  10.287  17.056  16.944
66158W        W67023   9.337  17.128  18.081
66159W        W67024   7.942  17.081  16.420
66160W        W67025  10.288  16.840  16.065
66161W        W67026   9.929  17.906  16.816
66162W        W67027   7.907  17.635  16.686
66163W        W67028   8.928  15.687  17.896
66164W        W67029   9.379  17.853  15.407
66165W        W67030   8.687  17.108  18.045
66166W        W67031   8.813  17.346  15.422
66167W        W67032   8.034  16.086  14.681
66168W        W67033   7.373  18.172  21.580
66169W        W67034   7.749  17.065  21.103
66170W        W67035  10.454  16.795  18.873
66171W        W67036  10.584  17.880  20.900
66172W        W67037   8.502  17.871  18.426
66173W        W67038   8.585  16.023  19.409
66174W        W67039   8.100  15.871  19.573
66175W        W67040   9.091  16.686  19.007
66176W        W67041   8.766  17.778  21.362
66177W        W67042   7.415  15.339  21.325
66178W        W67043   8.177  14.619  21.127
66179W        W67044   9.871  15.007  20.014
66180W        W67045   9.520  15.878  18.584
66181W        W67046  10.090  15.312  21.675
66182W        W67047   7.456  15.104  20.800
66183W        W67048   7.555  17.723  21.821
66184W        W67049   9.077  17.113  18.553
66185W        W67050   7.509  15.896  20.246
66186W        W67051   8.402  15.787  21.483
66187W        W67052  10.861  15.646  19.982
66188W        W67053  10.625  16.689  20.841
66189W        W67054   8.933  16.022  19.868
66190W        W67055   9.479  17.361  20.237
66191W        W67056   7.979  16.795  20.469
66192W        W67057   7.338  16.323  20.040
66193W        W67058   8.374  16.295  21.232
66194W        W67059  10.645  16.078  21.486
66195W        W67060   8.261  17.522  19.931
66196W        W67061   9.382  17.211  21.065
66197W        W67062   8.602  15.851  20.290
66198W        W67063   8.894  16.635  19.933
66199W        W67064   9.891  17.408  21.781
66200W        W67065   8.970  16.728  21.791
66201W        W67066   8.951  16.444  21.269
66202W        W67067   7.360  15.835  21.791
66203W        W67068  10.192  17.370  21.390
66204W        W67069   7.773  14.952  19.388
66205W        W67070   8.300  17.210  20.387
66206W        W67071  10.763  16.993  19.677
66207W        W67072  10.176  15.393  20.244
66208W        W67073  10.461  15.346  18.339
66209W        W67074  10.926  16.147  20.645
66210W        W67075   8.893  17.854  20.398
66211W        W67076  10.667  17.320  18.836
66212W        W67077   7.796  18.106  18.590
66213W        W67078   8.189  18.152  19.266
66214W        W67079   7.986  14.906  20.692
66215W        W67080  10.609  15.924  20.967
66216W        W67081  10.014  16.346  19.426
66217W        W67082   9.980  16.034  18.453
66218W        W67083   9.188  17.178  20.593
66219W        W67084   8.994  15.508  19.792
66220W        W67085   9.594  17.595  20.786
66221W        W67086  10.465  16.386  19.208
66222W        W67087   9.367  15.044  19.224
66223W        W67088   8.024  17.738  18.907
66224W        W67089   7.395  15.237  19.506
66225W        W67090  10.181  15.844  19.980
66226W        W67091   7.639  17.461  19.895
66227W        W67092   8.980  17.811  18.765
66228W        W67093  10.372  15.837  18.229
66229W        W67094   7.395  17.595  20.393
66230W        W67095   8.186  17.167  20.873
66231W        W67096   8.559  16.527  19.492
66232W        W67097   8.581  14.932  20.585
66233W        W67098  10.810  14.694  19.882
66234W        W67099   8.029  16.566  18.350
66235W        W67100   7.684  15.599  18.529
66236W        W67101   7.746  17.555  19.323
66237W        W67102   8.877  17.038  19.571
66238W        W67103  10.209  17.897  21.285
66239W        W67104   9.135  15.539  18.969
66240W        W67105  10.518  17.937  19.741
66241W        W67106  10.195  15.790  21.339
66242W        W67107  10.908  17.446  19.473
66243W        W67108   9.535  16.738  20.957
66244W        W67109   7.301  16.289  19.163
66245W        W67110   8.412  16.704  20.736
66246W        W67111   9.616  15.968  19.114
66247W        W67112   9.493  16.458  19.218
66248W        W67113   7.836  15.878  20.692
66249W        W67114   7.821  15.754  21.614
66250W        W67115   7.711  14.671  19.773
66251W        W67116   9.479  15.018  20.334
66252W        W67117   9.127  15.203  21.497
66253W        W67118   9.482  15.352  18.675
66254W        W67119  10.665  17.745  21.429
66255W        W67120   9.632  14.826  21.468
66256W        W67121  10.651  17.127  21.590
66257W        W67122  10.081  15.294  21.186
66258W        W67123   9.881  15.232  19.456
66259W        W67124  10.274  16.366  21.860
66260W        W67125   8.014  17.942  19.846
66261W        W67126   8.672  15.659  18.832
66262W        W67127   8.241  14.943  21.496
66263W        W67128  10.293  15.427  19.177
66264W        W67129  10.660  15.909  19.122
66265W        W67130   8.403  18.126  21.593
66266W        W67131   8.329  14.662  18.828
66267W        W67132  10.650  15.196  19.863
66268W        W67133  10.800  17.445  18.308
66269W        W67134   7.707  16.648  20.010
66270W        W67135   9.624  15.235  18.240
66271W        W67136  10.758  17.567  19.960
66272W        W67137  10.797  14.761  20.710
66273W        W67138   9.242  15.973  21.264
66274W        W67139   9.335  17.312  18.967
66275W        W67140   9.735  16.606  21.707
66276W        W67141   9.409  14.583  20.016
66277W        W67142   8.021  15.486  20.079
66278W        W67143   7.575  16.686  20.853
66279W        W67144   9.434  17.879  19.559
66280W        W67145  10.628  15.476  20.431
66281W        W67146   9.265  17.823  21.198
66282W        W67147  10.608  16.882  18.403
66283W        W67148   9.043  16.365  19.464
66284W        W67149  10.895  14.876  21.205
66285W        W67150   9.044  16.711  20.799
66286W        W67151   9.261  15.597  20.244
66287W        W67152  10.113  15.895  19.082
66288W        W67153  10.400  15.628  18.724
66289W        W67154  10.209  17.668  19.113
66290W        W67155  10.043  17.271  19.909
66291W        W67156   9.939  16.350  18.887
66292W        W67157   9.372  16.560  19.873
66293W        W67158  10.253  16.348  19.940
66294W        W67159   7.628  15.363  20.364
66295W        W67160  10.406  16.415  21.191
66296W        W67161  10.757  18.033  20.337
66297W        W67162   8.687  17.477  19.739
66298W        W67163   9.694  18.010  21.063
66299W        W67164   9.688  15.340  20.827
66300W        W67165   8.895  18.048  20.888
66301W        W67166  10.592  15.002  19.354
66302W        W67167  10.383  16.321  20.655
66303W        W67168   7.366  15.642  20.693
66304W        W67169  10.226  15.437  19.711
66305W        W67170  10.637  15.588  21.488
66306W        W67171   9.522  17.287  19.706
66307W        W67172   8.778  17.878  19.319
66308W        W67173   7.893  15.058  18.577
66309W        W67174   8.997  14.712  20.387
66310W        W67175   8.025  17.832  18.235
66311W        W67176   8.399  16.298  18.986
66312W        W67177   9.053  16.927  21.299
66313W        W67178   8.883  15.285  19.289
66314W        W67179  10.239  14.882  19.717
66315W        W67180   9.959  18.164  20.045
66316W        W67181   9.371  17.812  20.385
66317W        W67182   8.767  16.849  20.346
66318W        W67183  10.537  17.572  20.472
66319W        W67184   8.231  15.075  19.241
66320W        W67185   8.753  17.372  20.201
66321W        W67186   8.236  15.303  18.266
66322W        W67187   9.037  15.912  20.660
66323W        W67188   9.885  14.778  20.530
66324W        W67189   7.305  16.621  20.415
66325W        W67190   9.009  16.439  18.573
66326W        W67191   8.277  14.754  18.343
66327W        W67192   9.015  15.835  19.394
66328W        W67193   9.985  14.811  21.093
66329W        W67194   8.573  16.823  21.202
66330W        W67195   9.377  16.605  21.419
66331W        W67196   9.994  16.635  21.312
66332W        W67197   9.278  14.775  21.817
66333W        W67198   8.500  15.391  20.210
66334W        W67199   7.926  15.347  19.608
66335W        W67200   7.712  18.059  19.284
66336W        W67201   9.044  17.389  21.409
66337W        W67202   8.079  16.874  18.768
66338W        W67203   9.759  16.259  19.989
66339W        W67204  10.039  16.058  20.388
66340W        W67205   9.244  16.732  20.322
66341W        W67206   9.714  17.106  18.454
66342W        W67207   9.386  15.127  19.782
66343W        W67208  10.865  15.405  19.050
66344W        W67209   7.359  17.994  21.081
66345W        W67210   7.776  17.220  20.613
66346W        W67211   7.343  18.066  18.845
66347W        W67212   9.242  15.336  20.651
66348W        W67213   8.605  17.359  18.500
66349W        W67214  10.510  17.741  18.686
66350W        W67215   9.485  16.394  18.700
66351W        W67216   8.328  15.585  19.217
66352W        W67217   9.160  15.495  18.269
66353W        W67218   9.744  17.060  21.447
66354W        W67219  10.097  14.966  19.064
66355W        W67220   7.427  14.814  18.512
66356W        W67221   8.713  17.133  20.802
66357W        W67222   8.512  17.049  19.894
66358W        W67223   8.254  17.001  18.292
66359W        W67224   7.495  17.242  19.060
66360W        W67225   7.999  16.312  21.502
66361W        W67226   8.703  14.872  21.688
66362W        W67227   9.412  15.014  21.044
66363W        W67228   8.607  14.782  19.325
66364W        W67229   9.666  14.859  18.830
66365W        W67230   7.611  14.791  20.407
66366W        W67231   7.659  15.754  19.777
66367W        W67232  10.348  14.862  20.183
66368W        W67233   7.770  15.360  18.997
66369W        W67234  10.341  15.048  20.613
66370W        W67235  10.737  16.251  18.298
66371W        W67236   8.029  15.009  20.117
66372W        W67237   9.143  15.581  21.057
66373W        W67238   7.291  15.271  18.535
66374W        W67239   8.077  16.660  21.096
66375W        W67240   9.435  16.058  20.275
66376W        W67241   9.302  18.137  18.571
66377W        W67242   7.448  16.644  18.268
66378W        W67243   8.183  17.055  21.394
66379W        W67244   7.704  16.222  21.025
66380W        W67245   8.695  16.327  20.819
66381W        W67246  10.463  14.686  21.081
66382W        W67247  10.861  16.296  21.072
66383W        W67248  10.849  16.496  18.758
66384W        W67249   9.712  16.828  18.857
66385W        W67250  10.186  18.128  18.552
66386W        W67251   9.363  16.118  21.694
66387W        W67252   7.693  17.085  21.734
66388W        W67253  10.899  15.007  21.686
66389W        W67254  10.617  15.935  20.307
66390W        W67255   8.925  18.065  21.784
66391W        W67256   8.780  14.694  18.511
66392W        W67257  10.319  17.293  18.454
66393W        W67258   8.088  15.386  21.340
66394W        W67259   8.522  17.380  21.202
66395W        W67260  10.648  15.371  21.000
66396W        W67261   9.859  18.030  18.968
66397W        W67262  10.098  16.649  20.335
66398W        W67263   8.348  15.065  21.002
66399W        W67264   8.817  16.134  21.759
66400W        W67265   8.320  17.313  18.953
66401W        W67266  10.075  16.811  19.217
66402W        W67267   7.843  15.437  20.941
66403W        W67268   9.172  17.499  19.405
66404W        W67269  10.922  16.059  19.586
66405W        W67270   9.144  14.692  21.305
66406W        W67271   9.924  17.397  20.384
66407W        W67272  10.227  17.741  20.092
66408W        W67273   9.446  17.543  18.520
66409W        W67274   7.456  17.435  21.362
66410W        W67275   8.199  15.427  20.600
66411W        W67276   8.169  14.775  19.710
66412W        W67277   9.790  15.617  20.402
66413W        W67278   8.588  16.788  18.602
66414W        W67279  10.586  16.730  20.101
66415W        W67280   7.913  17.488  21.524
66416W        W67281  10.300  18.170  19.321
66417W        W67282   8.399  15.190  19.766
66418W        W67283   8.168  16.683  19.856
66419W        W67284   8.481  18.094  20.606
66420W        W67285  10.548  18.190  21.638
66421W        W67286   9.707  16.378  20.571
66422W        W67287   7.556  16.176  18.486
66423W        W67288  10.690  17.834  19.183
66424W        W67289  10.527  15.158  18.802
66425W        W67290   8.666  14.677  21.205
66426W        W67291  10.372  17.479  19.663
66427W        W67292  10.401  16.035  19.568
66428W        W67293   8.518  15.708  19.784
66429W        W67294   8.763  15.970  21.108
66430W        W67295   9.874  17.123  20.971
66431W        W67296   8.524  15.577  21.083
66432W        W67297   8.503  18.043  19.699
66433W        W67298   7.820  18.002  21.333
66434W        W67299   7.932  17.363  18.463
66435W        W67300  10.449  17.121  19.273
66436W        W67301   8.053  15.913  21.159
66437W        W67302  10.826  15.843  18.640
66438W        W67303   8.571  16.900  19.111
66439W        W67304   9.670  16.282  21.192
66440W        W67305   9.561  15.910  20.736
66441W        W67306   8.121  16.282  20.765
66442W        W67307  10.331  18.170  20.594
66443W        W67308  10.122  14.804  21.588
66444W        W67309   7.786  14.954  21.175
66445W        W67310   8.125  15.977  20.228
66446W        W67311   8.494  15.791  18.350
66447W        W67312   7.297  17.550  20.895
66448W        W67313   8.882  16.259  20.338
66449W        W67314   8.705  15.284  18.443
66450W        W67315   7.840  16.100  19.224
66451W        W67316   7.611  17.952  20.661
66452W        W67317  10.406  16.178  18.769
66453W        W67318  10.501  15.094  21.455
66454W        W67319   9.937  17.303  19.418
66455W        W67320   7.535  16.227  21.595
66456W        W67321  10.501  14.691  18.891
66457W        W67322  10.021  17.166  18.902
66458W        W67323   8.923  16.224  18.987
66459W        W67324  10.110  15.028  18.510
66460W        W67325  10.175  15.635  20.696
66461W        W67326   7.884  16.228  19.903
66462W        W67327   8.178  17.167  19.552
66463W        W67328   9.941  15.787  19.517
66464W        W67329   8.964  15.166  20.213
66465W        W67330  10.926  17.077  20.724
66466W        W67331  10.844  15.064  20.285
66467W        W67332   7.383  17.894  19.661
66468W        W67333   7.892  17.081  19.197
66469W        W67334   7.807  14.698  21.750
66470W        W67335   8.926  17.551  21.852
66471W        W67336  10.681  16.519  19.642
66472W        W67337  10.035  16.696  18.522
66473W        W67338   9.330  18.217  20.734
66474W        W67339  10.187  16.939  21.771
66475W        W67340   9.002  14.649  19.051
66476W        W67341   9.715  15.518  19.910
66477W        W67342   7.401  17.105  20.242
66478W        W67343   8.654  15.067  18.883
66479W        W67344   8.458  16.551  21.732
66480W        W67345   9.452  15.532  19.446
66481W        W67346   9.657  16.942  20.568
66482W        W67347   7.811  17.547  21.003
66483W        W67348   8.402  17.530  21.726
66484W        W67349   8.253  15.327  18.740
66485W        W67350   9.770  15.469  19.065
66486W        W67351   9.728  17.577  21.302
66487W        W67352   8.413  16.169  19.901
66488W        W67353   8.068  17.867  20.766
66489W        W67354  10.813  17.984  18.367
66490W        W67355   7.676  16.656  21.363
66491W        W67356   9.671  16.918  20.051
66492W        W67357   8.107  16.567  19.293
66493W        W67358   8.478  17.574  20.688
66494W        W67359   8.856  14.993  19.729
66495W        W67360   7.467  16.977  18.659
66496W        W67361   8.986  15.928  18.529
66497W        W67362   7.632  16.477  19.548
66498W        W67363   8.922  15.119  21.012
66499W        W67364  10.594  14.828  18.439
66500W        W67365  10.687  16.574  21.538
66501W        W67366   9.341  17.831  21.690
66502W        W67367  10.899  16.925  21.212
66503W        W67368  10.307  17.723  21.823
66504W        W67369   8.046  18.179  20.301
66505W        W67370  10.905  16.801  19.175
66506W        W67371   9.435  16.068  19.688
66507W        W67372   9.202  14.680  19.578
66508W        W67373   8.261  17.664  19.415
66509W        W67374   8.760  15.405  20.640
66510W        W67375   8.460  14.774  20.109
66511W        W67376   7.523  17.596  18.657
66512W        W67377   9.339  16.960  19.375
66513W        W67378   8.214  17.755  21.254
66514W        W67379   7.576  15.121  19.949
66515W        W67380   9.124  17.086  20.006
66516W        W67381   7.376  14.940  19.026
66517W        W67382  10.040  16.146  20.953
66518W        W67383   9.917  15.532  18.525
66519W        W67384  10.434  17.204  20.173
66520W        W67385   9.095  17.688  20.004
66521W        W67386   8.507  17.792  18.915
66522W        W67387   9.789  14.695  18.345
66523W        W67388   7.589  17.955  20.086
66524W        W67389   9.786  15.713  21.721
66525W        W67390   7.769  15.243  21.720
66526W        W67391   7.500  15.843  19.053
66527W        W67392   8.191  15.832  18.778
66528W        W67393   9.954  16.159  21.595
66529W        W67394   8.297  16.440  20.304
66530W        W67395   9.771  14.726  19.424
66531W        W67396   8.902  18.157  19.927
66532W        W67397  10.116  17.619  20.864
66533W        W67398   9.700  17.768  19.975
66534W        W67399   9.719  16.748  19.569
66535W        W67400   9.181  14.973  18.640
66536W        W67401  10.862  14.601  19.362
66537W        W67402   8.550  16.236  18.525
66538W        W67403  10.716  15.573  19.515
66539W        W67404   9.408  16.743  18.392
66540W        W67405  10.344  16.943  21.140
66541W        W67406   9.998  17.644  18.607
66542W        W67407   8.613  15.319  21.513
66543W        W67408   8.433  15.903  20.754
66544W        W67409  10.525  17.398  21.031
66545W        W67410   9.625  15.348  21.408
66546W        W67411   7.469  15.819  21.185
66547W        W67412   9.229  16.296  20.911
66548W        W67413   7.586  17.054  19.568
66549W        W67414   7.733  16.351  20.458
66550W        W67415  10.050  16.637  20.808
66551W        W67416   9.822  18.017  21.619
66552W        W67417   9.718  15.756  21.172
66553W        W67418   9.995  17.810  19.577
66554W        W67419   8.997  17.530  20.900
66555W        W67420   8.482  17.885  20.169
66556W        W67421  10.287  17.056  20.588
66557W        W67422   9.337  17.128  21.725
66558W        W67423   7.942  17.081  20.064
66559W        W67424  10.288  16.840  19.709
66560W        W67425   9.929  17.906  20.460
66561W        W67426   7.907  17.635  20.330
66562W        W67427   8.928  15.687  21.540
66563W        W67428   9.379  17.853  19.051
66564W        W67429   8.813  17.346  19.066
66565W        W67430   8.034  16.086  18.325
66566W        W67431   7.373  18.172  25.225
66567W        W67432   7.749  17.065  24.748
66568W        W67433  10.454  16.795  22.518
66569W        W67434  10.584  17.880  24.545
66570W        W67435   8.502  17.871  22.071
66571W        W67436   8.585  16.023  23.054
66572W        W67437   8.100  15.871  23.218
66573W        W67438   9.091  16.686  22.652
66574W        W67439   8.766  17.778  25.007
66575W        W67440   7.415  15.339  24.970
66576W        W67441   8.177  14.619  24.772
66577W        W67442   9.871  15.007  23.659
66578W        W67443   9.520  15.878  22.229
66579W        W67444  10.090  15.312  25.320
66580W        W67445   7.456  15.104  24.445
66581W        W67446   7.555  17.723  25.466
66582W        W67447   9.077  17.113  22.198
66583W        W67448   7.509  15.896  23.891
66584W        W67449   8.402  15.787  25.128
66585W        W67450  10.861  15.646  23.627
66586W        W67451  10.625  16.689  24.486
66587W        W67452   8.933  16.022  23.513
66588W        W67453   9.479  17.361  23.882
66589W        W67454   7.979  16.795  24.114
66590W        W67455   7.338  16.323  23.685
66591W        W67456   8.374  16.295  24.877
66592W        W67457  10.645  16.078  25.131
66593W        W67458   8.261  17.522  23.576
66594W        W67459   9.382  17.211  24.710
66595W        W67460   8.602  15.851  23.935
66596W        W67461   8.894  16.635  23.578
66597W        W67462   9.891  17.408  25.426
66598W        W67463   8.970  16.728  25.436
66599W        W67464   8.951  16.444  24.914
66600W        W67465   7.360  15.835  25.436
66601W        W67466  10.192  17.370  25.035
66602W        W67467   7.773  14.952  23.033
66603W        W67468   8.300  17.210  24.032
66604W        W67469  10.763  16.993  23.322
66605W        W67470  10.176  15.393  23.889
66606W        W67471  10.461  15.346  21.984
66607W        W67472  10.926  16.147  24.290
66608W        W67473   8.893  17.854  24.043
66609W        W67474  10.667  17.320  22.481
66610W        W67475   7.796  18.106  22.235
66611W        W67476   8.189  18.152  22.911
66612W        W67477   7.986  14.906  24.337
66613W        W67478  10.609  15.924  24.612
66614W        W67479  10.014  16.346  23.071
66615W        W67480   9.980  16.034  22.098
66616W        W67481   9.188  17.178  24.238
66617W        W67482   8.994  15.508  23.437
66618W        W67483   9.594  17.595  24.431
66619W        W67484  10.465  16.386  22.853
66620W        W67485   9.367  15.044  22.869
66621W        W67486   8.024  17.738  22.552
66622W        W67487   7.395  15.237  23.151
66623W        W67488  10.181  15.844  23.625
66624W        W67489   7.639  17.461  23.540
66625W        W67490   8.980  17.811  22.410
66626W        W67491  10.372  15.837  21.874
66627W        W67492   7.395  17.595  24.038
66628W        W67493   8.186  17.167  24.518
66629W        W67494   8.559  16.527  23.137
66630W        W67495   8.581  14.932  24.230
66631W        W67496  10.810  14.694  23.527
66632W        W67497   8.029  16.566  21.995
66633W        W67498   7.684  15.599  22.174
66634W        W67499   7.746  17.555  22.968
66635W        W67500   8.877  17.038  23.216
66636W        W67501  10.209  17.897  24.930
66637W        W67502   9.135  15.539  22.614
66638W        W67503  10.518  17.937  23.386
66639W        W67504  10.195  15.790  24.984
66640W        W67505  10.908  17.446  23.118
66641W        W67506   9.535  16.738  24.602
66642W        W67507   7.301  16.289  22.808
66643W        W67508   8.412  16.704  24.381
66644W        W67509   9.616  15.968  22.759
66645W        W67510   9.493  16.458  22.863
66646W        W67511   7.836  15.878  24.337
66647W        W67512   7.821  15.754  25.259
66648W        W67513   7.711  14.671  23.418
66649W        W67514   9.479  15.018  23.979
66650W        W67515   9.127  15.203  25.142
66651W        W67516   9.482  15.352  22.320
66652W        W67517  10.665  17.745  25.074
66653W        W67518   9.632  14.826  25.113
66654W        W67519  10.651  17.127  25.235
66655W        W67520  10.081  15.294  24.831
66656W        W67521   9.881  15.232  23.101
66657W        W67522  10.274  16.366  25.505
66658W        W67523   8.014  17.942  23.491
66659W        W67524   8.672  15.659  22.477
66660W        W67525   8.241  14.943  25.141
66661W        W67526  10.293  15.427  22.822
66662W        W67527  10.660  15.909  22.767
66663W        W67528   8.403  18.126  25.238
66664W        W67529   8.329  14.662  22.473
66665W        W67530  10.650  15.196  23.508
66666W        W67531  10.800  17.445  21.953
66667W        W67532   7.707  16.648  23.655
66668W        W67533   9.624  15.235  21.885
66669W        W67534  10.758  17.567  23.605
66670W        W67535  10.797  14.761  24.355
66671W        W67536   9.242  15.973  24.909
66672W        W67537   9.335  17.312  22.612
66673W        W67538   9.735  16.606  25.352
66674W        W67539   9.409  14.583  23.661
66675W        W67540   8.021  15.486  23.724
66676W        W67541   7.575  16.686  24.498
66677W        W67542   9.434  17.879  23.204
66678W        W67543  10.628  15.476  24.076
66679W        W67544   9.265  17.823  24.843
66680W        W67545  10.608  16.882  22.048
66681W        W67546   9.043  16.365  23.109
66682W        W67547  10.895  14.876  24.850
66683W        W67548   9.044  16.711  24.444
66684W        W67549   9.261  15.597  23.889
66685W        W67550  10.113  15.895  22.727
66686W        W67551  10.400  15.628  22.369
66687W        W67552  10.209  17.668  22.758
66688W        W67553  10.043  17.271  23.554
66689W        W67554   9.939  16.350  22.532
66690W        W67555   9.372  16.560  23.518
66691W        W67556  10.253  16.348  23.585
66692W        W67557   7.628  15.363  24.009
66693W        W67558  10.406  16.415  24.836
66694W        W67559  10.757  18.033  23.982
66695W        W67560   8.687  17.477  23.384
66696W        W67561   9.694  18.010  24.708
66697W        W67562   9.688  15.340  24.472
66698W        W67563   8.895  18.048  24.533
66699W        W67564  10.592  15.002  22.999
66700W        W67565  10.383  16.321  24.300
66701W        W67566   7.366  15.642  24.338
66702W        W67567  10.226  15.437  23.356
66703W        W67568  10.637  15.588  25.133
66704W        W67569   9.522  17.287  23.351
66705W        W67570   8.778  17.878  22.964
66706W        W67571   7.893  15.058  22.222
66707W        W67572   8.997  14.712  24.032
66708W        W67573   8.025  17.832  21.880
66709W        W67574   8.399  16.298  22.631
66710W        W67575   9.053  16.927  24.944
66711W        W67576   8.883  15.285  22.934
66712W        W67577  10.239  14.882  23.362
66713W        W67578   9.959  18.164  23.690
66714W        W67579   9.371  17.812  24.030
66715W        W67580   8.767  16.849  23.991
66716W        W67581  10.537  17.572  24.117
66717W        W67582   8.231  15.075  22.886
66718W        W67583   8.753  17.372  23.846
66719W        W67584   8.236  15.303  21.911
66720W        W67585   9.037  15.912  24.305
66721W        W67586   9.885  14.778  24.175
66722W        W67587   7.305  16.621  24.060
66723W        W67588   9.009  16.439  22.218
66724W        W67589   8.277  14.754  21.988
66725W        W67590   9.015  15.835  23.039
66726W        W67591   9.985  14.811  24.738
66727W        W67592   8.573  16.823  24.847
66728W        W67593   9.377  16.605  25.064
66729W        W67594   9.994  16.635  24.957
66730W        W67595   9.278  14.775  25.462
66731W        W67596   8.500  15.391  23.855
66732W        W67597   7.926  15.347  23.253
66733W        W67598   7.712  18.059  22.929
66734W        W67599   9.044  17.389  25.054
66735W        W67600   8.079  16.874  22.413
66736W        W67601   9.759  16.259  23.634
66737W        W67602  10.039  16.058  24.033
66738W        W67603   9.244  16.732  23.967
66739W        W67604   9.714  17.106  22.099
66740W        W67605   9.386  15.127  23.427
66741W        W67606  10.865  15.405  22.695
66742W        W67607   7.359  17.994  24.726
66743W        W67608   7.776  17.220  24.258
66744W        W67609   7.343  18.066  22.490
66745W        W67610   9.242  15.336  24.296
66746W        W67611   8.605  17.359  22.145
66747W        W67612  10.510  17.741  22.331
66748W        W67613   9.485  16.394  22.345
66749W        W67614   8.328  15.585  22.862
66750W        W67615   9.160  15.495  21.914
66751W        W67616   9.744  17.060  25.092
66752W        W67617  10.097  14.966  22.709
66753W        W67618   7.427  14.814  22.157
66754W        W67619   8.713  17.133  24.447
66755W        W67620   8.512  17.049  23.539
66756W        W67621   8.254  17.001  21.937
66757W        W67622   7.495  17.242  22.705
66758W        W67623   7.999  16.312  25.147
66759W        W67624   8.703  14.872  25.333
66760W        W67625   9.412  15.014  24.689
66761W        W67626   8.607  14.782  22.970
66762W        W67627   9.666  14.859  22.475
66763W        W67628   7.611  14.791  24.052
66764W        W67629   7.659  15.754  23.422
66765W        W67630  10.348  14.862  23.828
66766W        W67631   7.770  15.360  22.642
66767W        W67632  10.341  15.048  24.258
66768W        W67633  10.737  16.251  21.943
66769W        W67634   8.029  15.009  23.762
66770W        W67635   9.143  15.581  24.702
66771W        W67636   7.291  15.271  22.180
66772W        W67637   8.077  16.660  24.741
66773W        W67638   9.435  16.058  23.920
66774W        W67639   9.302  18.137  22.216
66775W        W67640   7.448  16.644  21.913
66776W        W67641   8.183  17.055  25.039
66777W        W67642   7.704  16.222  24.670
66778W        W67643   8.695  16.327  24.464
66779W        W67644  10.463  14.686  24.726
66780W        W67645  10.861  16.296  24.717
66781W        W67646  10.849  16.496  22.403
66782W        W67647   9.712  16.828  22.502
66783W        W67648  10.186  18.128  22.197
66784W        W67649   9.363  16.118  25.339
66785W        W67650   7.693  17.085  25.379
66786W        W67651  10.899  15.007  25.331
66787W        W67652  10.617  15.935  23.952
66788W        W67653   8.925  18.065  25.429
66789W        W67654   8.780  14.694  22.156
66790W        W67655  10.319  17.293  22.099
66791W        W67656   8.088  15.386  24.985
66792W        W67657   8.522  17.380  24.847
66793W        W67658  10.648  15.371  24.645
66794W        W67659   9.859  18.030  22.613
66795W        W67660  10.098  16.649  23.980
66796W        W67661   8.348  15.065  24.647
66797W        W67662   8.817  16.134  25.404
66798W        W67663   8.320  17.313  22.598
66799W        W67664  10.075  16.811  22.862
66800W        W67665   7.843  15.437  24.586
66801W        W67666   9.172  17.499  23.050
66802W        W67667  10.922  16.059  23.231
66803W        W67668   9.144  14.692  24.950
66804W        W67669   9.924  17.397  24.029
66805W        W67670  10.227  17.741  23.737
66806W        W67671   9.446  17.543  22.165
66807W        W67672   7.456  17.435  25.007
66808W        W67673   8.199  15.427  24.245
66809W        W67674   8.169  14.775  23.355
66810W        W67675   9.790  15.617  24.047
66811W        W67676   8.588  16.788  22.247
66812W        W67677  10.586  16.730  23.746
66813W        W67678   7.913  17.488  25.169
66814W        W67679  10.300  18.170  22.966
66815W        W67680   8.399  15.190  23.411
66816W        W67681   8.168  16.683  23.501
66817W        W67682   8.481  18.094  24.251
66818W        W67683  10.548  18.190  25.283
66819W        W67684   9.707  16.378  24.216
66820W        W67685   7.556  16.176  22.131
66821W        W67686  10.690  17.834  22.828
66822W        W67687  10.527  15.158  22.447
66823W        W67688   8.666  14.677  24.850
66824W        W67689  10.372  17.479  23.308
66825W        W67690  10.401  16.035  23.213
66826W        W67691   8.518  15.708  23.429
66827W        W67692   8.763  15.970  24.753
66828W        W67693   9.874  17.123  24.616
66829W        W67694   8.524  15.577  24.728
66830W        W67695   8.503  18.043  23.344
66831W        W67696   7.820  18.002  24.978
66832W        W67697   7.932  17.363  22.108
66833W        W67698  10.449  17.121  22.918
66834W        W67699   8.053  15.913  24.804
66835W        W67700  10.826  15.843  22.285
66836W        W67701   8.571  16.900  22.756
66837W        W67702   9.670  16.282  24.837
66838W        W67703   9.561  15.910  24.381
66839W        W67704   8.121  16.282  24.410
66840W        W67705  10.331  18.170  24.239
66841W        W67706  10.122  14.804  25.233
66842W        W67707   7.786  14.954  24.820
66843W        W67708   8.125  15.977  23.873
66844W        W67709   8.494  15.791  21.995
66845W        W67710   7.297  17.550  24.540
66846W        W67711   8.882  16.259  23.983
66847W        W67712   8.705  15.284  22.088
66848W        W67713   7.840  16.100  22.869
66849W        W67714   7.611  17.952  24.306
66850W        W67715  10.406  16.178  22.414
66851W        W67716  10.501  15.094  25.100
66852W        W67717   9.937  17.303  23.063
66853W        W67718   7.535  16.227  25.240
66854W        W67719  10.501  14.691  22.536
66855W        W67720  10.021  17.166  22.547
66856W        W67721   8.923  16.224  22.632
66857W        W67722  10.110  15.028  22.155
66858W        W67723  10.175  15.635  24.341
66859W        W67724   7.884  16.228  23.548
66860W        W67725   8.178  17.167  23.197
66861W        W67726   9.941  15.787  23.162
66862W        W67727   8.964  15.166  23.858
66863W        W67728  10.926  17.077  24.369
66864W        W67729  10.844  15.064  23.930
66865W        W67730   7.383  17.894  23.306
66866W        W67731   7.892  17.081  22.842
66867W        W67732   7.807  14.698  25.395
66868W        W67733   8.926  17.551  25.497
66869W        W67734  10.681  16.519  23.287
66870W        W67735  10.035  16.696  22.167
66871W        W67736   9.330  18.217  24.379
66872W        W67737  10.187  16.939  25.416
66873W        W67738   9.002  14.649  22.696
66874W        W67739   9.715  15.518  23.555
66875W        W67740   7.401  17.105  23.887
66876W        W67741   8.654  15.067  22.528
66877W        W67742   8.458  16.551  25.377
66878W        W67743   9.452  15.532  23.091
66879W        W67744   9.657  16.942  24.213
66880W        W67745   7.811  17.547  24.648
66881W        W67746   8.402  17.530  25.371
66882W        W67747   8.253  15.327  22.385
66883W        W67748   9.770  15.469  22.710
66884W        W67749   9.728  17.577  24.947
66885W        W67750   8.413  16.169  23.546
66886W        W67751   8.068  17.867  24.411
66887W        W67752  10.813  17.984  22.012
66888W        W67753   7.676  16.656  25.008
66889W        W67754   9.671  16.918  23.696
66890W        W67755   8.107  16.567  22.938
66891W        W67756   8.478  17.574  24.333
66892W        W67757   8.856  14.993  23.374
66893W        W67758   7.467  16.977  22.304
66894W        W67759   8.986  15.928  22.174
66895W        W67760   7.632  16.477  23.193
66896W        W67761   8.922  15.119  24.657
66897W        W67762  10.594  14.828  22.084
66898W        W67763  10.687  16.574  25.183
66899W        W67764   9.341  17.831  25.335
66900W        W67765  10.899  16.925  24.857
66901W        W67766  10.307  17.723  25.468
66902W        W67767   8.046  18.179  23.946
66903W        W67768  10.905  16.801  22.820
66904W        W67769   9.435  16.068  23.333
66905W        W67770   9.202  14.680  23.223
66906W        W67771   8.261  17.664  23.060
66907W        W67772   8.760  15.405  24.285
66908W        W67773   8.460  14.774  23.754
66909W        W67774   7.523  17.596  22.302
66910W        W67775   9.339  16.960  23.020
66911W        W67776   8.214  17.755  24.899
66912W        W67777   7.691  16.578  22.595
66913W        W67778   7.576  15.121  23.594
66914W        W67779   9.124  17.086  23.651
66915W        W67780   7.376  14.940  22.671
66916W        W67781  10.040  16.146  24.598
66917W        W67782   9.917  15.532  22.170
66918W        W67783  10.434  17.204  23.818
66919W        W67784   9.095  17.688  23.649
66920W        W67785   8.507  17.792  22.560
66921W        W67786   9.789  14.695  21.990
66922W        W67787   7.589  17.955  23.731
66923W        W67788   9.786  15.713  25.366
66924W        W67789   7.769  15.243  25.365
66925W        W67790   7.500  15.843  22.698
66926W        W67791   8.191  15.832  22.423
66927W        W67792   9.954  16.159  25.240
66928W        W67793   8.297  16.440  23.949
66929W        W67794   9.771  14.726  23.069
66930W        W67795   8.902  18.157  23.572
66931W        W67796  10.116  17.619  24.509
66932W        W67797   9.700  17.768  23.620
66933W        W67798   9.719  16.748  23.214
66934W        W67799   9.181  14.973  22.285
66935W        W67800  10.862  14.601  23.007
66936W        W67801   8.550  16.236  22.170
66937W        W67802  10.716  15.573  23.160
66938W        W67803   9.408  16.743  22.037
66939W        W67804  10.344  16.943  24.785
66940W        W67805   9.998  17.644  22.252
66941W        W67806   8.613  15.319  25.158
66942W        W67807   8.433  15.903  24.399
66943W        W67808  10.525  17.398  24.676
66944W        W67809   9.625  15.348  25.053
66945W        W67810   7.469  15.819  24.830
66946W        W67811   9.229  16.296  24.556
66947W        W67812   7.586  17.054  23.213
66948W        W67813   7.733  16.351  24.103
66949W        W67814  10.050  16.637  24.453
66950W        W67815   9.822  18.017  25.264
66951W        W67816   9.718  15.756  24.817
66952W        W67817   9.995  17.810  23.222
66953W        W67818   8.997  17.530  24.545
66954W        W67819   8.482  17.885  23.814
66955W        W67820  10.287  17.056  24.233
66956W        W67821   9.337  17.128  25.370
66957W        W67822   7.942  17.081  23.709
66958W        W67823  10.288  16.840  23.354
66959W        W67824   9.929  17.906  24.105
66960W        W67825   7.907  17.635  23.975
66961W        W67826   8.928  15.687  25.185
66962W        W67827   9.379  17.853  22.696
66963W        W67828   8.687  17.108  25.334
66964W        W67829   8.813  17.346  22.711
66965W        W67830   8.034  16.086  21.970
66966W        W67831   7.373  18.172  28.869
66967W        W67832   7.749  17.065  28.392
66968W        W67833  10.454  16.795  26.162
66969W        W67834  10.584  17.880  28.189
66970W        W67835   8.502  17.871  25.715
66971W        W67836   8.585  16.023  26.698
66972W        W67837   8.100  15.871  26.862
66973W        W67838   9.091  16.686  26.296
66974W        W67839   8.766  17.778  28.651
66975W        W67840   7.415  15.339  28.614
66976W        W67841   8.177  14.619  28.416
66977W        W67842   9.871  15.007  27.303
66978W        W67843   9.520  15.878  25.873
66979W        W67844  10.090  15.312  28.964
66980W        W67845   7.456  15.104  28.089
66981W        W67846   7.555  17.723  29.110
66982W        W67847   9.077  17.113  25.842
66983W        W67848   7.509  15.896  27.535
66984W        W67849   8.402  15.787  28.772
66985W        W67850  10.861  15.646  27.271
66986W        W67851  10.625  16.689  28.130
66987W        W67852   8.933  16.022  27.157
66988W        W67853   9.479  17.361  27.526
66989W        W67854   7.979  16.795  27.758
66990W        W67855   7.338  16.323  27.329
66991W        W67856   8.374  16.295  28.521
66992W        W67857  10.645  16.078  28.775
66993W        W67858   8.261  17.522  27.220
66994W        W67859   9.382  17.211  28.354
66995W        W67860   8.602  15.851  27.579
66996W        W67861   8.894  16.635  27.222
66997W        W67862   9.891  17.408  29.070
66998W        W67863   8.970  16.728  29.080
66999W        W67864   8.951  16.444  28.558
67000W        W67865   7.360  15.835  29.080
67001W        W67866  10.192  17.370  28.679
67002W        W67867   7.773  14.952  26.677
67003W        W67868   8.300  17.210  27.676
67004W        W67869  10.763  16.993  26.966
67005W        W67870  10.176  15.393  27.533
67006W        W67871  10.461  15.346  25.628
67007W        W67872  10.926  16.147  27.934
67008W        W67873   8.893  17.854  27.687
67009W        W67874  10.667  17.320  26.125
67010W        W67875   7.796  18.106  25.879
67011W        W67876   8.189  18.152  26.555
67012W        W67877   7.986  14.906  27.981
67013W        W67878  10.609  15.924  28.256
67014W        W67879  10.014  16.346  26.715
67015W        W67880   9.980  16.034  25.742
67016W        W67881   9.188  17.178  27.882
67017W        W67882   8.994  15.508  27.081
67018W        W67883   9.594  17.595  28.075
67019W        W67884  10.465  16.386  26.497
67020W        W67885   9.367  15.044  26.513
67021W        W67886   8.024  17.738  26.196
67022W        W67887   7.395  15.237  26.795
67023W        W67888  10.181  15.844  27.269
67024W        W67889   7.639  17.461  27.184
67025W        W67890   8.980  17.811  26.054
67026W        W67891  10.372  15.837  25.518
67027W        W67892   7.395  17.595  27.682
67028W        W67893   8.186  17.167  28.162
67029W        W67894   8.559  16.527  26.781
67030W        W67895   8.581  14.932  27.874
67031W        W67896  10.810  14.694  27.171
67032W        W67897   8.029  16.566  25.639
67033W        W67898   7.684  15.599  25.818
67034W        W67899   7.746  17.555  26.612
67035W        W67900   8.877  17.038  26.860
67036W        W67901  10.209  17.897  28.574
67037W        W67902   9.135  15.539  26.258
67038W        W67903  10.518  17.937  27.030
67039W        W67904  10.195  15.790  28.628
67040W        W67905  10.908  17.446  26.762
67041W        W67906   9.535  16.738  28.246
67042W        W67907   7.301  16.289  26.452
67043W        W67908   8.412  16.704  28.025
67044W        W67909   9.616  15.968  26.403
67045W        W67910   9.493  16.458  26.507
67046W        W67911   7.836  15.878  27.981
67047W        W67912   7.821  15.754  28.903
67048W        W67913   7.711  14.671  27.062
67049W        W67914   9.479  15.018  27.623
67050W        W67915   9.127  15.203  28.786
67051W        W67916   9.482  15.352  25.964
67052W        W67917  10.665  17.745  28.718
67053W        W67918   9.632  14.826  28.757
67054W        W67919  10.651  17.127  28.879
67055W        W67920  10.081  15.294  28.475
67056W        W67921   9.881  15.232  26.745
67057W        W67922  10.274  16.366  29.149
67058W        W67923   8.014  17.942  27.135
67059W        W67924   8.672  15.659  26.121
67060W        W67925   8.241  14.943  28.785
67061W        W67926  10.293  15.427  26.466
67062W        W67927  10.660  15.909  26.411
67063W        W67928   8.403  18.126  28.882
67064W        W67929   8.329  14.662  26.117
67065W        W67930  10.650  15.196  27.152
67066W        W67931  10.800  17.445  25.597
67067W        W67932   7.707  16.648  27.299
67068W        W67933   9.624  15.235  25.529
67069W        W67934  10.758  17.567  27.249
67070W        W67935  10.797  14.761  27.999
67071W        W67936   9.242  15.973  28.553
67072W        W67937   9.335  17.312  26.256
67073W        W67938   9.735  16.606  28.996
67074W        W67939   9.409  14.583  27.305
67075W        W67940   8.021  15.486  27.368
67076W        W67941   7.575  16.686  28.142
67077W        W67942   9.434  17.879  26.848
67078W        W67943  10.628  15.476  27.720
67079W        W67944   9.265  17.823  28.487
67080W        W67945  10.608  16.882  25.692
67081W        W67946   9.043  16.365  26.753
67082W        W67947  10.895  14.876  28.494
67083W        W67948   9.044  16.711  28.088
67084W        W67949   9.261  15.597  27.533
67085W        W67950  10.113  15.895  26.371
67086W        W67951  10.400  15.628  26.013
67087W        W67952  10.209  17.668  26.402
67088W        W67953  10.043  17.271  27.198
67089W        W67954   9.939  16.350  26.176
67090W        W67955   9.372  16.560  27.162
67091W        W67956  10.253  16.348  27.229
67092W        W67957   7.628  15.363  27.653
67093W        W67958  10.406  16.415  28.480
67094W        W67959  10.757  18.033  27.626
67095W        W67960   8.687  17.477  27.028
67096W        W67961   9.694  18.010  28.352
67097W        W67962   9.688  15.340  28.116
67098W        W67963   8.895  18.048  28.177
67099W        W67964  10.592  15.002  26.643
67100W        W67965  10.383  16.321  27.944
67101W        W67966   7.366  15.642  27.982
67102W        W67967  10.226  15.437  27.000
67103W        W67968  10.637  15.588  28.777
67104W        W67969   9.522  17.287  26.995
67105W        W67970   8.778  17.878  26.608
67106W        W67971   7.893  15.058  25.866
67107W        W67972   8.997  14.712  27.676
67108W        W67973   8.025  17.832  25.524
67109W        W67974   8.399  16.298  26.275
67110W        W67975   9.053  16.927  28.588
67111W        W67976   8.883  15.285  26.578
67112W        W67977  10.239  14.882  27.006
67113W        W67978   9.959  18.164  27.334
67114W        W67979   9.371  17.812  27.674
67115W        W67980   8.767  16.849  27.635
67116W        W67981  10.537  17.572  27.761
67117W        W67982   8.231  15.075  26.530
67118W        W67983   8.753  17.372  27.490
67119W        W67984   8.236  15.303  25.555
67120W        W67985   9.037  15.912  27.949
67121W        W67986   9.885  14.778  27.819
67122W        W67987   7.305  16.621  27.704
67123W        W67988   9.009  16.439  25.862
67124W        W67989   8.277  14.754  25.632
67125W        W67990   9.015  15.835  26.683
67126W        W67991   9.985  14.811  28.382
67127W        W67992   8.573  16.823  28.491
67128W        W67993   9.377  16.605  28.708
67129W        W67994   9.994  16.635  28.601
67130W        W67995   9.278  14.775  29.106
67131W        W67996   8.500  15.391  27.499
67132W        W67997   7.926  15.347  26.897
67133W        W67998   7.712  18.059  26.573
67134W        W67999   9.044  17.389  28.698
67135W        W68000   8.079  16.874  26.057
67136W        W68001   9.759  16.259  27.278
67137W        W68002  10.039  16.058  27.677
67138W        W68003   9.244  16.732  27.611
67139W        W68004   9.714  17.106  25.743
67140W        W68005   9.386  15.127  27.071
67141W        W68006  10.865  15.405  26.339
67142W        W68007   7.359  17.994  28.370
67143W        W68008   7.776  17.220  27.902
67144W        W68009   7.343  18.066  26.134
67145W        W68010   9.242  15.336  27.940
67146W        W68011   8.605  17.359  25.789
67147W        W68012  10.510  17.741  25.975
67148W        W68013   9.485  16.394  25.989
67149W        W68014   8.328  15.585  26.506
67150W        W68015   9.160  15.495  25.558
67151W        W68016   9.744  17.060  28.736
67152W        W68017  10.097  14.966  26.353
67153W        W68018   7.427  14.814  25.801
67154W        W68019   8.713  17.133  28.091
67155W        W68020   8.512  17.049  27.183
67156W        W68021   8.254  17.001  25.581
67157W        W68022   7.495  17.242  26.349
67158W        W68023   7.999  16.312  28.791
67159W        W68024   8.703  14.872  28.977
67160W        W68025   9.412  15.014  28.333
67161W        W68026   8.607  14.782  26.614
67162W        W68027   9.666  14.859  26.119
67163W        W68028   7.611  14.791  27.696
67164W        W68029   7.659  15.754  27.066
67165W        W68030  10.348  14.862  27.472
67166W        W68031   7.770  15.360  26.286
67167W        W68032  10.341  15.048  27.902
67168W        W68033  10.737  16.251  25.587
67169W        W68034   8.029  15.009  27.406
67170W        W68035   9.143  15.581  28.346
67171W        W68036   7.291  15.271  25.824
67172W        W68037   8.077  16.660  28.385
67173W        W68038   9.435  16.058  27.564
67174W        W68039   9.302  18.137  25.860
67175W        W68040   7.448  16.644  25.557
67176W        W68041   8.183  17.055  28.683
67177W        W68042   7.704  16.222  28.314
67178W        W68043   8.695  16.327  28.108
67179W        W68044  10.463  14.686  28.370
67180W        W68045  10.861  16.296  28.361
67181W        W68046  10.849  16.496  26.047
67182W        W68047   9.712  16.828  26.146
67183W        W68048  10.186  18.128  25.841
67184W        W68049   9.363  16.118  28.983
67185W        W68050   7.693  17.085  29.023
67186W        W68051  10.899  15.007  28.975
67187W        W68052  10.617  15.935  27.596
67188W        W68053   8.925  18.065  29.073
67189W        W68054   8.780  14.694  25.800
67190W        W68055  10.319  17.293  25.743
67191W        W68056   8.088  15.386  28.629
67192W        W68057   8.522  17.380  28.491
67193W        W68058  10.648  15.371  28.289
67194W        W68059   9.859  18.030  26.257
67195W        W68060  10.098  16.649  27.624
67196W        W68061   8.348  15.065  28.291
67197W        W68062   8.817  16.134  29.048
67198W        W68063   8.320  17.313  26.242
67199W        W68064  10.075  16.811  26.506
67200W        W68065   7.843  15.437  28.230
67201W        W68066   9.172  17.499  26.694
67202W        W68067  10.922  16.059  26.875
67203W        W68068   9.144  14.692  28.594
67204W        W68069   9.924  17.397  27.673
67205W        W68070  10.227  17.741  27.381
67206W        W68071   9.446  17.543  25.809
67207W        W68072   7.456  17.435  28.651
67208W        W68073   8.199  15.427  27.889
67209W        W68074   8.169  14.775  26.999
67210W        W68075   9.790  15.617  27.691
67211W        W68076   8.588  16.788  25.891
67212W        W68077  10.586  16.730  27.390
67213W        W68078   7.913  17.488  28.813
67214W        W68079  10.300  18.170  26.610
67215W        W68080   8.399  15.190  27.055
67216W        W68081   8.168  16.683  27.145
67217W        W68082   8.481  18.094  27.895
67218W        W68083  10.548  18.190  28.927
67219W        W68084   9.707  16.378  27.860
67220W        W68085   7.556  16.176  25.775
67221W        W68086  10.690  17.834  26.472
67222W        W68087  10.527  15.158  26.091
67223W        W68088   8.666  14.677  28.494
67224W        W68089  10.372  17.479  26.952
67225W        W68090  10.401  16.035  26.857
67226W        W68091   8.518  15.708  27.073
67227W        W68092   8.763  15.970  28.397
67228W        W68093   9.874  17.123  28.260
67229W        W68094   8.524  15.577  28.372
67230W        W68095   8.503  18.043  26.988
67231W        W68096   7.820  18.002  28.622
67232W        W68097   7.932  17.363  25.752
67233W        W68098  10.449  17.121  26.562
67234W        W68099   8.053  15.913  28.448
67235W        W68100  10.826  15.843  25.929
67236W        W68101   8.571  16.900  26.400
67237W        W68102   9.561  15.910  28.025
67238W        W68103   8.121  16.282  28.054
67239W        W68104  10.331  18.170  27.883
67240W        W68105  10.122  14.804  28.877
67241W        W68106   7.786  14.954  28.464
67242W        W68107   8.125  15.977  27.517
67243W        W68108   8.494  15.791  25.639
67244W        W68109   7.297  17.550  28.184
67245W        W68110   8.882  16.259  27.627
67246W        W68111   8.705  15.284  25.732
67247W        W68112   7.840  16.100  26.513
67248W        W68113   7.611  17.952  27.950
67249W        W68114  10.406  16.178  26.058
67250W        W68115  10.501  15.094  28.744
67251W        W68116   9.937  17.303  26.707
67252W        W68117   7.535  16.227  28.884
67253W        W68118  10.501  14.691  26.180
67254W        W68119  10.021  17.166  26.191
67255W        W68120   8.923  16.224  26.276
67256W        W68121  10.110  15.028  25.799
67257W        W68122  10.175  15.635  27.985
67258W        W68123   7.884  16.228  27.192
67259W        W68124   8.178  17.167  26.841
67260W        W68125   9.941  15.787  26.806
67261W        W68126   8.964  15.166  27.502
67262W        W68127  10.926  17.077  28.013
67263W        W68128  10.844  15.064  27.574
67264W        W68129   7.383  17.894  26.950
67265W        W68130   7.892  17.081  26.486
67266W        W68131   7.807  14.698  29.039
67267W        W68132   8.926  17.551  29.141
67268W        W68133  10.681  16.519  26.931
67269W        W68134  10.035  16.696  25.811
67270W        W68135   9.330  18.217  28.023
67271W        W68136  10.187  16.939  29.060
67272W        W68137   9.002  14.649  26.340
67273W        W68138   9.715  15.518  27.199
67274W        W68139   7.401  17.105  27.531
67275W        W68140   8.654  15.067  26.172
67276W        W68141   8.458  16.551  29.021
67277W        W68142   9.452  15.532  26.735
67278W        W68143   9.657  16.942  27.857
67279W        W68144   7.811  17.547  28.292
67280W        W68145   8.402  17.530  29.015
67281W        W68146   8.253  15.327  26.029
67282W        W68147   9.770  15.469  26.354
67283W        W68148   9.728  17.577  28.591
67284W        W68149   8.413  16.169  27.190
67285W        W68150   8.068  17.867  28.055
67286W        W68151  10.813  17.984  25.656
67287W        W68152   7.676  16.656  28.652
67288W        W68153   9.671  16.918  27.340
67289W        W68154   8.107  16.567  26.582
67290W        W68155   8.478  17.574  27.977
67291W        W68156   8.856  14.993  27.018
67292W        W68157   7.467  16.977  25.948
67293W        W68158   8.986  15.928  25.818
67294W        W68159   7.632  16.477  26.837
67295W        W68160   8.922  15.119  28.301
67296W        W68161  10.594  14.828  25.728
67297W        W68162  10.687  16.574  28.827
67298W        W68163   9.341  17.831  28.979
67299W        W68164  10.899  16.925  28.501
67300W        W68165  10.307  17.723  29.112
67301W        W68166   8.046  18.179  27.590
67302W        W68167  10.905  16.801  26.464
67303W        W68168   9.435  16.068  26.977
67304W        W68169   9.202  14.680  26.867
67305W        W68170   8.261  17.664  26.704
67306W        W68171   8.760  15.405  27.929
67307W        W68172   8.460  14.774  27.398
67308W        W68173   7.523  17.596  25.946
67309W        W68174   9.339  16.960  26.664
67310W        W68175   8.214  17.755  28.543
67311W        W68176   7.691  16.578  26.239
67312W        W68177   7.576  15.121  27.238
67313W        W68178   9.124  17.086  27.295
67314W        W68179   7.376  14.940  26.315
67315W        W68180  10.040  16.146  28.242
67316W        W68181   9.917  15.532  25.814
67317W        W68182  10.434  17.204  27.462
67318W        W68183   9.095  17.688  27.293
67319W        W68184   8.507  17.792  26.204
67320W        W68185   9.789  14.695  25.634
67321W        W68186   7.589  17.955  27.375
67322W        W68187   9.786  15.713  29.010
67323W        W68188   7.769  15.243  29.009
67324W        W68189   7.500  15.843  26.342
67325W        W68190   8.191  15.832  26.067
67326W        W68191   9.954  16.159  28.884
67327W        W68192   8.297  16.440  27.593
67328W        W68193   9.771  14.726  26.713
67329W        W68194   8.902  18.157  27.216
67330W        W68195  10.116  17.619  28.153
67331W        W68196   9.700  17.768  27.264
67332W        W68197   9.719  16.748  26.858
67333W        W68198   9.181  14.973  25.929
67334W        W68199  10.862  14.601  26.651
67335W        W68200   8.550  16.236  25.814
67336W        W68201  10.716  15.573  26.804
67337W        W68202   9.408  16.743  25.681
67338W        W68203  10.344  16.943  28.429
67339W        W68204   9.998  17.644  25.896
67340W        W68205   8.613  15.319  28.802
67341W        W68206   8.433  15.903  28.043
67342W        W68207  10.525  17.398  28.320
67343W        W68208   9.625  15.348  28.697
67344W        W68209   7.469  15.819  28.474
67345W        W68210   9.229  16.296  28.200
67346W        W68211   7.586  17.054  26.857
67347W        W68212   7.733  16.351  27.747
67348W        W68213  10.050  16.637  28.097
67349W        W68214   9.822  18.017  28.908
67350W        W68215   9.718  15.756  28.461
67351W        W68216   8.997  17.530  28.189
67352W        W68217   8.482  17.885  27.458
67353W        W68218  10.287  17.056  27.877
67354W        W68219   9.337  17.128  29.014
67355W        W68220   7.942  17.081  27.353
67356W        W68221  10.288  16.840  26.998
67357W        W68222   9.929  17.906  27.749
67358W        W68223   7.907  17.635  27.619
67359W        W68224   8.928  15.687  28.829
67360W        W68225   9.379  17.853  26.340
67361W        W68226   8.687  17.108  28.978
67362W        W68227   8.813  17.346  26.355
67363W        W68228   8.034  16.086  25.614
67364W        W68229   7.373  21.816   3.359
67365W        W68230   7.749  20.709   2.882
67366W        W68231  10.454  20.439   0.652
67367W        W68232  10.584  21.524   2.679
67368W        W68233   8.502  21.515   0.205
67369W        W68234   8.585  19.667   1.188
67370W        W68235   8.100  19.515   1.352
67371W        W68236   9.091  20.330   0.786
67372W        W68237   8.766  21.422   3.141
67373W        W68238   7.415  18.983   3.104
67374W        W68239   8.177  18.263   2.906
67375W        W68240   9.871  18.651   1.793
67376W        W68241   9.520  19.522   0.363
67377W        W68242  10.090  18.956   3.454
67378W        W68243   7.456  18.748   2.579
67379W        W68244   7.555  21.367   3.600
67380W        W68245   9.077  20.757   0.332
67381W        W68246   7.509  19.540   2.025
67382W        W68247   8.402  19.431   3.262
67383W        W68248  10.861  19.290   1.761
67384W        W68249  10.625  20.333   2.620
67385W        W68250   8.933  19.666   1.647
67386W        W68251   9.479  21.005   2.016
67387W        W68252   7.979  20.439   2.248
67388W        W68253   7.338  19.967   1.819
67389W        W68254   8.374  19.939   3.011
67390W        W68255  10.645  19.722   3.265
67391W        W68256   8.261  21.166   1.710
67392W        W68257   9.382  20.855   2.844
67393W        W68258   8.602  19.495   2.069
67394W        W68259   8.894  20.279   1.712
67395W        W68260   9.891  21.052   3.560
67396W        W68261   8.970  20.372   3.570
67397W        W68262   8.951  20.088   3.048
67398W        W68263   7.360  19.479   3.570
67399W        W68264  10.192  21.014   3.169
67400W        W68265   7.773  18.596   1.167
67401W        W68266   8.300  20.854   2.166
67402W        W68267  10.763  20.637   1.456
67403W        W68268  10.176  19.037   2.023
67404W        W68269  10.461  18.990   0.118
67405W        W68270  10.926  19.791   2.424
67406W        W68271   8.893  21.498   2.177
67407W        W68272  10.667  20.964   0.615
67408W        W68273   7.796  21.750   0.369
67409W        W68274   8.189  21.796   1.045
67410W        W68275   7.986  18.550   2.471
67411W        W68276  10.609  19.568   2.746
67412W        W68277  10.014  19.990   1.205
67413W        W68278   9.980  19.678   0.232
67414W        W68279   9.188  20.822   2.372
67415W        W68280   8.994  19.152   1.571
67416W        W68281   9.594  21.239   2.565
67417W        W68282  10.465  20.030   0.987
67418W        W68283   9.367  18.688   1.003
67419W        W68284   8.024  21.382   0.686
67420W        W68285   7.395  18.881   1.285
67421W        W68286  10.181  19.488   1.759
67422W        W68287   7.639  21.105   1.674
67423W        W68288   8.980  21.455   0.544
67424W        W68289  10.372  19.481   0.008
67425W        W68290   7.395  21.239   2.172
67426W        W68291   8.186  20.811   2.652
67427W        W68292   8.559  20.171   1.271
67428W        W68293   8.581  18.576   2.364
67429W        W68294  10.810  18.338   1.661
67430W        W68295   8.029  20.210   0.129
67431W        W68296   7.684  19.243   0.308
67432W        W68297   7.746  21.199   1.102
67433W        W68298   8.877  20.682   1.350
67434W        W68299  10.209  21.541   3.064
67435W        W68300   9.135  19.183   0.748
67436W        W68301  10.518  21.581   1.520
67437W        W68302  10.195  19.434   3.118
67438W        W68303  10.908  21.090   1.252
67439W        W68304   9.535  20.382   2.736
67440W        W68305   7.301  19.933   0.942
67441W        W68306   8.412  20.348   2.515
67442W        W68307   9.616  19.612   0.893
67443W        W68308   9.493  20.102   0.997
67444W        W68309   7.836  19.522   2.471
67445W        W68310   7.821  19.398   3.393
67446W        W68311   7.711  18.315   1.552
67447W        W68312   9.479  18.662   2.113
67448W        W68313   9.127  18.847   3.276
67449W        W68314   9.482  18.996   0.454
67450W        W68315  10.665  21.389   3.208
67451W        W68316   9.632  18.470   3.247
67452W        W68317  10.651  20.771   3.369
67453W        W68318  10.081  18.938   2.965
67454W        W68319   9.881  18.876   1.235
67455W        W68320  10.274  20.010   3.639
67456W        W68321   8.014  21.586   1.625
67457W        W68322   8.672  19.303   0.611
67458W        W68323   8.241  18.587   3.275
67459W        W68324  10.293  19.071   0.956
67460W        W68325  10.660  19.553   0.901
67461W        W68326   8.403  21.770   3.372
67462W        W68327   8.329  18.306   0.607
67463W        W68328  10.650  18.840   1.642
67464W        W68329  10.800  21.089   0.087
67465W        W68330   7.707  20.292   1.789
67466W        W68331   9.624  18.879   0.019
67467W        W68332  10.758  21.211   1.739
67468W        W68333  10.797  18.405   2.489
67469W        W68334   9.242  19.617   3.043
67470W        W68335   9.335  20.956   0.746
67471W        W68336   9.735  20.250   3.486
67472W        W68337   9.409  18.227   1.795
67473W        W68338   8.021  19.130   1.858
67474W        W68339   7.575  20.330   2.632
67475W        W68340   9.434  21.523   1.338
67476W        W68341  10.628  19.120   2.210
67477W        W68342   9.265  21.467   2.977
67478W        W68343  10.608  20.526   0.182
67479W        W68344   9.043  20.009   1.243
67480W        W68345  10.895  18.520   2.984
67481W        W68346   9.044  20.355   2.578
67482W        W68347   9.261  19.241   2.023
67483W        W68348  10.113  19.539   0.861
67484W        W68349  10.400  19.272   0.503
67485W        W68350  10.209  21.312   0.892
67486W        W68351  10.043  20.915   1.688
67487W        W68352   9.939  19.994   0.666
67488W        W68353   9.372  20.204   1.652
67489W        W68354  10.253  19.992   1.719
67490W        W68355   7.628  19.007   2.143
67491W        W68356  10.406  20.059   2.970
67492W        W68357  10.757  21.677   2.116
67493W        W68358   8.687  21.121   1.518
67494W        W68359   9.694  21.654   2.842
67495W        W68360   9.688  18.984   2.606
67496W        W68361   8.895  21.692   2.667
67497W        W68362  10.592  18.646   1.133
67498W        W68363  10.383  19.965   2.434
67499W        W68364   7.366  19.286   2.472
67500W        W68365  10.226  19.081   1.490
67501W        W68366  10.637  19.232   3.267
67502W        W68367   9.522  20.931   1.485
67503W        W68368   8.778  21.522   1.098
67504W        W68369   7.893  18.702   0.356
67505W        W68370   8.997  18.356   2.166
67506W        W68371   8.025  21.476   0.014
67507W        W68372   8.399  19.942   0.765
67508W        W68373   9.053  20.571   3.078
67509W        W68374   8.883  18.929   1.068
67510W        W68375  10.239  18.526   1.496
67511W        W68376   9.959  21.808   1.824
67512W        W68377   9.371  21.456   2.164
67513W        W68378   8.767  20.493   2.125
67514W        W68379  10.537  21.216   2.251
67515W        W68380   8.231  18.719   1.020
67516W        W68381   8.753  21.016   1.980
67517W        W68382   8.236  18.947   0.045
67518W        W68383   9.037  19.556   2.439
67519W        W68384   9.885  18.422   2.309
67520W        W68385   7.305  20.265   2.194
67521W        W68386   9.009  20.083   0.352
67522W        W68387   8.277  18.398   0.122
67523W        W68388   9.015  19.479   1.173
67524W        W68389   9.985  18.455   2.872
67525W        W68390   8.573  20.467   2.981
67526W        W68391   9.377  20.249   3.198
67527W        W68392   9.994  20.279   3.091
67528W        W68393   9.278  18.419   3.596
67529W        W68394   8.500  19.035   1.989
67530W        W68395   7.926  18.991   1.387
67531W        W68396   7.712  21.703   1.063
67532W        W68397   9.044  21.033   3.188
67533W        W68398   8.079  20.518   0.547
67534W        W68399   9.759  19.903   1.768
67535W        W68400  10.039  19.702   2.167
67536W        W68401   9.244  20.376   2.101
67537W        W68402   9.714  20.750   0.233
67538W        W68403   9.386  18.771   1.561
67539W        W68404  10.865  19.049   0.829
67540W        W68405   7.359  21.638   2.860
67541W        W68406   7.776  20.864   2.392
67542W        W68407   7.343  21.710   0.624
67543W        W68408   9.242  18.980   2.430
67544W        W68409   8.605  21.003   0.279
67545W        W68410  10.510  21.385   0.465
67546W        W68411   9.485  20.038   0.479
67547W        W68412   8.328  19.229   0.996
67548W        W68413   9.160  19.139   0.048
67549W        W68414   9.744  20.704   3.226
67550W        W68415  10.097  18.610   0.843
67551W        W68416   7.427  18.458   0.291
67552W        W68417   8.713  20.777   2.581
67553W        W68418   8.512  20.693   1.673
67554W        W68419   8.254  20.645   0.071
67555W        W68420   7.495  20.886   0.839
67556W        W68421   7.999  19.956   3.281
67557W        W68422   8.703  18.516   3.467
67558W        W68423   9.412  18.658   2.823
67559W        W68424   8.607  18.426   1.104
67560W        W68425   9.666  18.503   0.609
67561W        W68426   7.611  18.435   2.186
67562W        W68427   7.659  19.398   1.556
67563W        W68428  10.348  18.506   1.962
67564W        W68429   7.770  19.004   0.776
67565W        W68430  10.341  18.692   2.392
67566W        W68431  10.737  19.895   0.077
67567W        W68432   8.029  18.653   1.896
67568W        W68433   9.143  19.225   2.836
67569W        W68434   7.291  18.915   0.314
67570W        W68435   8.077  20.304   2.875
67571W        W68436   9.435  19.702   2.054
67572W        W68437   9.302  21.781   0.350
67573W        W68438   7.448  20.288   0.047
67574W        W68439   8.183  20.699   3.173
67575W        W68440   7.704  19.866   2.804
67576W        W68441   8.695  19.971   2.598
67577W        W68442  10.463  18.330   2.860
67578W        W68443  10.861  19.940   2.851
67579W        W68444  10.849  20.140   0.537
67580W        W68445   9.712  20.472   0.636
67581W        W68446  10.186  21.772   0.331
67582W        W68447   9.363  19.762   3.473
67583W        W68448   7.693  20.729   3.513
67584W        W68449  10.899  18.651   3.465
67585W        W68450  10.617  19.579   2.086
67586W        W68451   8.925  21.709   3.563
67587W        W68452   8.780  18.338   0.290
67588W        W68453  10.319  20.937   0.233
67589W        W68454   8.088  19.030   3.119
67590W        W68455   8.522  21.024   2.981
67591W        W68456  10.648  19.015   2.779
67592W        W68457   9.859  21.674   0.747
67593W        W68458  10.098  20.293   2.114
67594W        W68459   8.348  18.709   2.781
67595W        W68460   8.817  19.778   3.538
67596W        W68461   8.320  20.957   0.732
67597W        W68462  10.075  20.455   0.996
67598W        W68463   7.843  19.081   2.720
67599W        W68464   9.172  21.143   1.184
67600W        W68465  10.922  19.703   1.365
67601W        W68466   9.144  18.336   3.084
67602W        W68467   9.924  21.041   2.163
67603W        W68468  10.227  21.385   1.871
67604W        W68469   9.446  21.187   0.299
67605W        W68470   7.456  21.079   3.141
67606W        W68471   8.199  19.071   2.379
67607W        W68472   8.169  18.419   1.489
67608W        W68473   9.790  19.261   2.181
67609W        W68474   8.588  20.432   0.381
67610W        W68475  10.586  20.374   1.880
67611W        W68476   7.913  21.132   3.303
67612W        W68477  10.300  21.814   1.100
67613W        W68478   8.399  18.834   1.545
67614W        W68479   8.168  20.327   1.635
67615W        W68480   8.481  21.738   2.385
67616W        W68481  10.548  21.834   3.417
67617W        W68482   9.707  20.022   2.350
67618W        W68483   7.556  19.820   0.265
67619W        W68484  10.690  21.478   0.962
67620W        W68485  10.527  18.802   0.581
67621W        W68486   8.666  18.321   2.984
67622W        W68487  10.372  21.123   1.442
67623W        W68488  10.401  19.679   1.347
67624W        W68489   8.518  19.352   1.563
67625W        W68490   8.763  19.614   2.887
67626W        W68491   9.874  20.767   2.750
67627W        W68492   8.524  19.221   2.862
67628W        W68493   8.503  21.687   1.478
67629W        W68494   7.820  21.646   3.112
67630W        W68495   7.932  21.007   0.242
67631W        W68496  10.449  20.765   1.052
67632W        W68497   8.053  19.557   2.938
67633W        W68498  10.826  19.487   0.419
67634W        W68499   8.571  20.544   0.890
67635W        W68500   9.670  19.926   2.971
67636W        W68501   9.561  19.554   2.515
67637W        W68502   8.121  19.926   2.544
67638W        W68503  10.331  21.814   2.373
67639W        W68504  10.122  18.448   3.367
67640W        W68505   7.786  18.598   2.954
67641W        W68506   8.125  19.621   2.007
67642W        W68507   8.494  19.435   0.129
67643W        W68508   7.297  21.194   2.674
67644W        W68509   8.882  19.903   2.117
67645W        W68510   8.705  18.928   0.222
67646W        W68511   7.840  19.744   1.003
67647W        W68512   7.611  21.596   2.440
67648W        W68513  10.406  19.822   0.548
67649W        W68514  10.501  18.738   3.234
67650W        W68515   9.937  20.947   1.197
67651W        W68516   7.535  19.871   3.374
67652W        W68517  10.501  18.335   0.670
67653W        W68518  10.021  20.810   0.681
67654W        W68519   8.923  19.868   0.766
67655W        W68520  10.110  18.672   0.289
67656W        W68521  10.175  19.279   2.475
67657W        W68522   7.884  19.872   1.682
67658W        W68523   8.178  20.811   1.331
67659W        W68524   9.941  19.431   1.296
67660W        W68525   8.964  18.810   1.992
67661W        W68526  10.926  20.721   2.503
67662W        W68527  10.844  18.708   2.064
67663W        W68528   7.383  21.538   1.440
67664W        W68529   7.892  20.725   0.976
67665W        W68530   7.807  18.342   3.529
67666W        W68531   8.926  21.195   3.631
67667W        W68532  10.681  20.163   1.421
67668W        W68533  10.035  20.340   0.301
67669W        W68534   9.330  21.861   2.513
67670W        W68535  10.187  20.583   3.550
67671W        W68536   9.002  18.293   0.830
67672W        W68537   9.715  19.162   1.689
67673W        W68538   7.401  20.749   2.021
67674W        W68539   8.654  18.711   0.662
67675W        W68540   8.458  20.195   3.511
67676W        W68541   9.452  19.176   1.225
67677W        W68542   9.657  20.586   2.347
67678W        W68543   7.811  21.191   2.782
67679W        W68544   8.402  21.174   3.505
67680W        W68545   8.253  18.971   0.519
67681W        W68546   9.770  19.113   0.844
67682W        W68547   9.728  21.221   3.081
67683W        W68548   8.413  19.813   1.680
67684W        W68549   8.068  21.511   2.545
67685W        W68550  10.813  21.628   0.146
67686W        W68551   7.676  20.300   3.142
67687W        W68552   9.671  20.562   1.830
67688W        W68553   8.107  20.211   1.072
67689W        W68554   8.478  21.218   2.467
67690W        W68555   8.856  18.637   1.508
67691W        W68556   7.467  20.621   0.438
67692W        W68557   8.986  19.572   0.308
67693W        W68558   7.632  20.121   1.327
67694W        W68559   8.922  18.763   2.791
67695W        W68560  10.594  18.472   0.218
67696W        W68561  10.687  20.218   3.317
67697W        W68562   9.341  21.475   3.469
67698W        W68563  10.899  20.569   2.991
67699W        W68564  10.307  21.367   3.602
67700W        W68565   8.046  21.823   2.080
67701W        W68566  10.905  20.445   0.954
67702W        W68567   9.435  19.712   1.467
67703W        W68568   9.202  18.324   1.357
67704W        W68569   8.261  21.308   1.194
67705W        W68570   8.760  19.049   2.419
67706W        W68571   8.460  18.418   1.888
67707W        W68572   7.523  21.240   0.436
67708W        W68573   9.339  20.604   1.154
67709W        W68574   8.214  21.399   3.033
67710W        W68575   7.691  20.222   0.729
67711W        W68576   7.576  18.765   1.728
67712W        W68577   9.124  20.730   1.785
67713W        W68578   7.376  18.584   0.805
67714W        W68579  10.040  19.790   2.732
67715W        W68580   9.917  19.176   0.304
67716W        W68581  10.434  20.848   1.952
67717W        W68582   9.095  21.332   1.783
67718W        W68583   8.507  21.436   0.694
67719W        W68584   9.789  18.339   0.124
67720W        W68585   7.589  21.599   1.865
67721W        W68586   9.786  19.357   3.500
67722W        W68587   7.769  18.887   3.499
67723W        W68588   7.500  19.487   0.832
67724W        W68589   8.191  19.476   0.557
67725W        W68590   9.954  19.803   3.374
67726W        W68591   8.297  20.084   2.083
67727W        W68592   9.771  18.370   1.203
67728W        W68593   8.902  21.801   1.706
67729W        W68594  10.116  21.263   2.643
67730W        W68595   9.700  21.412   1.754
67731W        W68596   9.719  20.392   1.348
67732W        W68597   9.181  18.617   0.419
67733W        W68598  10.862  18.245   1.141
67734W        W68599   8.550  19.880   0.304
67735W        W68600  10.716  19.217   1.294
67736W        W68601   9.408  20.387   0.171
67737W        W68602  10.344  20.587   2.919
67738W        W68603   9.998  21.288   0.386
67739W        W68604   8.613  18.963   3.292
67740W        W68605   8.433  19.547   2.533
67741W        W68606  10.525  21.042   2.810
67742W        W68607   9.625  18.992   3.187
67743W        W68608   7.469  19.463   2.964
67744W        W68609   9.229  19.940   2.690
67745W        W68610   7.586  20.698   1.347
67746W        W68611   7.733  19.995   2.237
67747W        W68612  10.050  20.281   2.587
67748W        W68613   9.822  21.661   3.398
67749W        W68614   9.718  19.400   2.951
67750W        W68615   9.995  21.454   1.356
67751W        W68616   8.997  21.174   2.679
67752W        W68617   8.482  21.529   1.948
67753W        W68618  10.287  20.700   2.367
67754W        W68619   9.337  20.772   3.504
67755W        W68620   7.942  20.725   1.843
67756W        W68621  10.288  20.484   1.488
67757W        W68622   9.929  21.550   2.239
67758W        W68623   7.907  21.279   2.109
67759W        W68624   8.928  19.331   3.319
67760W        W68625   9.379  21.497   0.830
67761W        W68626   8.687  20.752   3.468
67762W        W68627   8.813  20.990   0.845
67763W        W68628   8.034  19.730   0.104
67764W        W68629   7.373  21.816   7.003
67765W        W68630   7.749  20.709   6.526
67766W        W68631  10.454  20.439   4.296
67767W        W68632  10.584  21.524   6.323
67768W        W68633   8.502  21.515   3.849
67769W        W68634   8.585  19.667   4.832
67770W        W68635   8.100  19.515   4.996
67771W        W68636   9.091  20.330   4.430
67772W        W68637   8.766  21.422   6.785
67773W        W68638   7.415  18.983   6.748
67774W        W68639   8.177  18.263   6.550
67775W        W68640   9.871  18.651   5.437
67776W        W68641   9.520  19.522   4.007
67777W        W68642  10.090  18.956   7.098
67778W        W68643   7.456  18.748   6.223
67779W        W68644   7.555  21.367   7.244
67780W        W68645   9.077  20.757   3.976
67781W        W68646   7.509  19.540   5.669
67782W        W68647   8.402  19.431   6.906
67783W        W68648  10.861  19.290   5.405
67784W        W68649  10.625  20.333   6.264
67785W        W68650   8.933  19.666   5.291
67786W        W68651   9.479  21.005   5.660
67787W        W68652   7.979  20.439   5.892
67788W        W68653   7.338  19.967   5.463
67789W        W68654   8.374  19.939   6.655
67790W        W68655  10.645  19.722   6.909
67791W        W68656   8.261  21.166   5.354
67792W        W68657   9.382  20.855   6.488
67793W        W68658   8.602  19.495   5.713
67794W        W68659   8.894  20.279   5.356
67795W        W68660   9.891  21.052   7.204
67796W        W68661   8.970  20.372   7.214
67797W        W68662   8.951  20.088   6.692
67798W        W68663   7.360  19.479   7.214
67799W        W68664  10.192  21.014   6.813
67800W        W68665   7.773  18.596   4.811
67801W        W68666   8.300  20.854   5.810
67802W        W68667  10.763  20.637   5.100
67803W        W68668  10.176  19.037   5.667
67804W        W68669  10.461  18.990   3.762
67805W        W68670  10.926  19.791   6.068
67806W        W68671   8.893  21.498   5.821
67807W        W68672  10.667  20.964   4.259
67808W        W68673   7.796  21.750   4.013
67809W        W68674   8.189  21.796   4.689
67810W        W68675   7.986  18.550   6.115
67811W        W68676  10.609  19.568   6.390
67812W        W68677  10.014  19.990   4.849
67813W        W68678   9.980  19.678   3.876
67814W        W68679   9.188  20.822   6.016
67815W        W68680   8.994  19.152   5.215
67816W        W68681   9.594  21.239   6.209
67817W        W68682  10.465  20.030   4.631
67818W        W68683   9.367  18.688   4.647
67819W        W68684   8.024  21.382   4.330
67820W        W68685   7.395  18.881   4.929
67821W        W68686  10.181  19.488   5.403
67822W        W68687   7.639  21.105   5.318
67823W        W68688   8.980  21.455   4.188
67824W        W68689  10.372  19.481   3.652
67825W        W68690   7.395  21.239   5.816
67826W        W68691   8.186  20.811   6.296
67827W        W68692   8.559  20.171   4.915
67828W        W68693   8.581  18.576   6.008
67829W        W68694  10.810  18.338   5.305
67830W        W68695   8.029  20.210   3.773
67831W        W68696   7.684  19.243   3.952
67832W        W68697   7.746  21.199   4.746
67833W        W68698   8.877  20.682   4.994
67834W        W68699  10.209  21.541   6.708
67835W        W68700   9.135  19.183   4.392
67836W        W68701  10.518  21.581   5.164
67837W        W68702  10.195  19.434   6.762
67838W        W68703  10.908  21.090   4.896
67839W        W68704   9.535  20.382   6.380
67840W        W68705   7.301  19.933   4.586
67841W        W68706   8.412  20.348   6.159
67842W        W68707   9.616  19.612   4.537
67843W        W68708   9.493  20.102   4.641
67844W        W68709   7.836  19.522   6.115
67845W        W68710   7.821  19.398   7.037
67846W        W68711   7.711  18.315   5.196
67847W        W68712   9.479  18.662   5.757
67848W        W68713   9.127  18.847   6.920
67849W        W68714   9.482  18.996   4.098
67850W        W68715  10.665  21.389   6.852
67851W        W68716   9.632  18.470   6.891
67852W        W68717  10.651  20.771   7.013
67853W        W68718  10.081  18.938   6.609
67854W        W68719   9.881  18.876   4.879
67855W        W68720  10.274  20.010   7.283
67856W        W68721   8.014  21.586   5.269
67857W        W68722   8.672  19.303   4.255
67858W        W68723   8.241  18.587   6.919
67859W        W68724  10.293  19.071   4.600
67860W        W68725  10.660  19.553   4.545
67861W        W68726   8.403  21.770   7.016
67862W        W68727   8.329  18.306   4.251
67863W        W68728  10.650  18.840   5.286
67864W        W68729  10.800  21.089   3.731
67865W        W68730   7.707  20.292   5.433
67866W        W68731   9.624  18.879   3.663
67867W        W68732  10.758  21.211   5.383
67868W        W68733  10.797  18.405   6.133
67869W        W68734   9.242  19.617   6.687
67870W        W68735   9.335  20.956   4.390
67871W        W68736   9.735  20.250   7.130
67872W        W68737   9.409  18.227   5.439
67873W        W68738   8.021  19.130   5.502
67874W        W68739   7.575  20.330   6.276
67875W        W68740   9.434  21.523   4.982
67876W        W68741  10.628  19.120   5.854
67877W        W68742   9.265  21.467   6.621
67878W        W68743  10.608  20.526   3.826
67879W        W68744   9.043  20.009   4.887
67880W        W68745  10.895  18.520   6.628
67881W        W68746   9.044  20.355   6.222
67882W        W68747   9.261  19.241   5.667
67883W        W68748  10.113  19.539   4.505
67884W        W68749  10.400  19.272   4.147
67885W        W68750  10.209  21.312   4.536
67886W        W68751  10.043  20.915   5.332
67887W        W68752   9.939  19.994   4.310
67888W        W68753   9.372  20.204   5.296
67889W        W68754  10.253  19.992   5.363
67890W        W68755   7.628  19.007   5.787
67891W        W68756  10.406  20.059   6.614
67892W        W68757  10.757  21.677   5.760
67893W        W68758   8.687  21.121   5.162
67894W        W68759   9.694  21.654   6.486
67895W        W68760   9.688  18.984   6.250
67896W        W68761   8.895  21.692   6.311
67897W        W68762  10.592  18.646   4.777
67898W        W68763  10.383  19.965   6.078
67899W        W68764   7.366  19.286   6.116
67900W        W68765  10.226  19.081   5.134
67901W        W68766  10.637  19.232   6.911
67902W        W68767   9.522  20.931   5.129
67903W        W68768   8.778  21.522   4.742
67904W        W68769   7.893  18.702   4.000
67905W        W68770   8.997  18.356   5.810
67906W        W68771   8.025  21.476   3.658
67907W        W68772   8.399  19.942   4.409
67908W        W68773   9.053  20.571   6.722
67909W        W68774   8.883  18.929   4.712
67910W        W68775  10.239  18.526   5.140
67911W        W68776   9.959  21.808   5.468
67912W        W68777   9.371  21.456   5.808
67913W        W68778   8.767  20.493   5.769
67914W        W68779  10.537  21.216   5.895
67915W        W68780   8.231  18.719   4.664
67916W        W68781   8.753  21.016   5.624
67917W        W68782   8.236  18.947   3.689
67918W        W68783   9.037  19.556   6.083
67919W        W68784   9.885  18.422   5.953
67920W        W68785   7.305  20.265   5.838
67921W        W68786   9.009  20.083   3.996
67922W        W68787   8.277  18.398   3.766
67923W        W68788   9.015  19.479   4.817
67924W        W68789   9.985  18.455   6.516
67925W        W68790   8.573  20.467   6.625
67926W        W68791   9.377  20.249   6.842
67927W        W68792   9.994  20.279   6.735
67928W        W68793   9.278  18.419   7.240
67929W        W68794   8.500  19.035   5.633
67930W        W68795   7.926  18.991   5.031
67931W        W68796   7.712  21.703   4.707
67932W        W68797   9.044  21.033   6.832
67933W        W68798   8.079  20.518   4.191
67934W        W68799   9.759  19.903   5.412
67935W        W68800  10.039  19.702   5.811
67936W        W68801   9.244  20.376   5.745
67937W        W68802   9.714  20.750   3.877
67938W        W68803   9.386  18.771   5.205
67939W        W68804  10.865  19.049   4.473
67940W        W68805   7.359  21.638   6.504
67941W        W68806   7.776  20.864   6.036
67942W        W68807   7.343  21.710   4.268
67943W        W68808   9.242  18.980   6.074
67944W        W68809   8.605  21.003   3.923
67945W        W68810  10.510  21.385   4.109
67946W        W68811   9.485  20.038   4.123
67947W        W68812   8.328  19.229   4.640
67948W        W68813   9.160  19.139   3.692
67949W        W68814   9.744  20.704   6.870
67950W        W68815  10.097  18.610   4.487
67951W        W68816   7.427  18.458   3.935
67952W        W68817   8.713  20.777   6.225
67953W        W68818   8.512  20.693   5.317
67954W        W68819   8.254  20.645   3.715
67955W        W68820   7.495  20.886   4.483
67956W        W68821   7.999  19.956   6.925
67957W        W68822   8.703  18.516   7.111
67958W        W68823   9.412  18.658   6.467
67959W        W68824   8.607  18.426   4.748
67960W        W68825   9.666  18.503   4.253
67961W        W68826   7.611  18.435   5.830
67962W        W68827   7.659  19.398   5.200
67963W        W68828  10.348  18.506   5.606
67964W        W68829   7.770  19.004   4.420
67965W        W68830  10.341  18.692   6.036
67966W        W68831  10.737  19.895   3.721
67967W        W68832   8.029  18.653   5.540
67968W        W68833   9.143  19.225   6.480
67969W        W68834   7.291  18.915   3.958
67970W        W68835   8.077  20.304   6.519
67971W        W68836   9.435  19.702   5.698
67972W        W68837   9.302  21.781   3.994
67973W        W68838   7.448  20.288   3.691
67974W        W68839   8.183  20.699   6.817
67975W        W68840   7.704  19.866   6.448
67976W        W68841   8.695  19.971   6.242
67977W        W68842  10.463  18.330   6.504
67978W        W68843  10.861  19.940   6.495
67979W        W68844  10.849  20.140   4.181
67980W        W68845   9.712  20.472   4.280
67981W        W68846  10.186  21.772   3.975
67982W        W68847   9.363  19.762   7.117
67983W        W68848   7.693  20.729   7.157
67984W        W68849  10.899  18.651   7.109
67985W        W68850  10.617  19.579   5.730
67986W        W68851   8.925  21.709   7.207
67987W        W68852   8.780  18.338   3.934
67988W        W68853  10.319  20.937   3.877
67989W        W68854   8.088  19.030   6.763
67990W        W68855   8.522  21.024   6.625
67991W        W68856  10.648  19.015   6.423
67992W        W68857   9.859  21.674   4.391
67993W        W68858  10.098  20.293   5.758
67994W        W68859   8.348  18.709   6.425
67995W        W68860   8.817  19.778   7.182
67996W        W68861   8.320  20.957   4.376
67997W        W68862  10.075  20.455   4.640
67998W        W68863   7.843  19.081   6.364
67999W        W68864   9.172  21.143   4.828
68000W        W68865  10.922  19.703   5.009
68001W        W68866   9.144  18.336   6.728
68002W        W68867   9.924  21.041   5.807
68003W        W68868  10.227  21.385   5.515
68004W        W68869   9.446  21.187   3.943
68005W        W68870   7.456  21.079   6.785
68006W        W68871   8.199  19.071   6.023
68007W        W68872   8.169  18.419   5.133
68008W        W68873   9.790  19.261   5.825
68009W        W68874   8.588  20.432   4.025
68010W        W68875  10.586  20.374   5.524
68011W        W68876   7.913  21.132   6.947
68012W        W68877  10.300  21.814   4.744
68013W        W68878   8.399  18.834   5.189
68014W        W68879   8.168  20.327   5.279
68015W        W68880   8.481  21.738   6.029
68016W        W68881  10.548  21.834   7.061
68017W        W68882   9.707  20.022   5.994
68018W        W68883   7.556  19.820   3.909
68019W        W68884  10.690  21.478   4.606
68020W        W68885  10.527  18.802   4.225
68021W        W68886   8.666  18.321   6.628
68022W        W68887  10.372  21.123   5.086
68023W        W68888  10.401  19.679   4.991
68024W        W68889   8.518  19.352   5.207
68025W        W68890   8.763  19.614   6.531
68026W        W68891   9.874  20.767   6.394
68027W        W68892   8.524  19.221   6.506
68028W        W68893   8.503  21.687   5.122
68029W        W68894   7.820  21.646   6.756
68030W        W68895   7.932  21.007   3.886
68031W        W68896  10.449  20.765   4.696
68032W        W68897   8.053  19.557   6.582
68033W        W68898  10.826  19.487   4.063
68034W        W68899   8.571  20.544   4.534
68035W        W68900   9.670  19.926   6.615
68036W        W68901   9.561  19.554   6.159
68037W        W68902   8.121  19.926   6.188
68038W        W68903  10.331  21.814   6.017
68039W        W68904  10.122  18.448   7.011
68040W        W68905   7.786  18.598   6.598
68041W        W68906   8.125  19.621   5.651
68042W        W68907   8.494  19.435   3.773
68043W        W68908   7.297  21.194   6.318
68044W        W68909   8.882  19.903   5.761
68045W        W68910   8.705  18.928   3.866
68046W        W68911   7.840  19.744   4.647
68047W        W68912   7.611  21.596   6.084
68048W        W68913  10.406  19.822   4.192
68049W        W68914  10.501  18.738   6.878
68050W        W68915   9.937  20.947   4.841
68051W        W68916   7.535  19.871   7.018
68052W        W68917  10.501  18.335   4.314
68053W        W68918  10.021  20.810   4.325
68054W        W68919   8.923  19.868   4.410
68055W        W68920  10.110  18.672   3.933
68056W        W68921  10.175  19.279   6.119
68057W        W68922   7.884  19.872   5.326
68058W        W68923   8.178  20.811   4.975
68059W        W68924   9.941  19.431   4.940
68060W        W68925   8.964  18.810   5.636
68061W        W68926  10.926  20.721   6.147
68062W        W68927  10.844  18.708   5.708
68063W        W68928   7.383  21.538   5.084
68064W        W68929   7.892  20.725   4.620
68065W        W68930   7.807  18.342   7.173
68066W        W68931   8.926  21.195   7.275
68067W        W68932  10.681  20.163   5.065
68068W        W68933  10.035  20.340   3.945
68069W        W68934   9.330  21.861   6.157
68070W        W68935  10.187  20.583   7.194
68071W        W68936   9.002  18.293   4.474
68072W        W68937   9.715  19.162   5.333
68073W        W68938   7.401  20.749   5.665
68074W        W68939   8.654  18.711   4.306
68075W        W68940   8.458  20.195   7.155
68076W        W68941   9.452  19.176   4.869
68077W        W68942   9.657  20.586   5.991
68078W        W68943   7.811  21.191   6.426
68079W        W68944   8.402  21.174   7.149
68080W        W68945   8.253  18.971   4.163
68081W        W68946   9.770  19.113   4.488
68082W        W68947   9.728  21.221   6.725
68083W        W68948   8.413  19.813   5.324
68084W        W68949   8.068  21.511   6.189
68085W        W68950  10.813  21.628   3.790
68086W        W68951   7.676  20.300   6.786
68087W        W68952   9.671  20.562   5.474
68088W        W68953   8.107  20.211   4.716
68089W        W68954   8.478  21.218   6.111
68090W        W68955   8.856  18.637   5.152
68091W        W68956   7.467  20.621   4.082
68092W        W68957   8.986  19.572   3.952
68093W        W68958   7.632  20.121   4.971
68094W        W68959   8.922  18.763   6.435
68095W        W68960  10.594  18.472   3.862
68096W        W68961  10.687  20.218   6.961
68097W        W68962   9.341  21.475   7.113
68098W        W68963  10.899  20.569   6.635
68099W        W68964  10.307  21.367   7.246
68100W        W68965   8.046  21.823   5.724
68101W        W68966  10.905  20.445   4.598
68102W        W68967   9.435  19.712   5.111
68103W        W68968   9.202  18.324   5.001
68104W        W68969   8.261  21.308   4.838
68105W        W68970   8.760  19.049   6.063
68106W        W68971   8.460  18.418   5.532
68107W        W68972   7.523  21.240   4.080
68108W        W68973   9.339  20.604   4.798
68109W        W68974   8.214  21.399   6.677
68110W        W68975   7.691  20.222   4.373
68111W        W68976   7.576  18.765   5.372
68112W        W68977   9.124  20.730   5.429
68113W        W68978   7.376  18.584   4.449
68114W        W68979  10.040  19.790   6.376
68115W        W68980   9.917  19.176   3.948
68116W        W68981  10.434  20.848   5.596
68117W        W68982   9.095  21.332   5.427
68118W        W68983   8.507  21.436   4.338
68119W        W68984   9.789  18.339   3.768
68120W        W68985   7.589  21.599   5.509
68121W        W68986   9.786  19.357   7.144
68122W        W68987   7.769  18.887   7.143
68123W        W68988   7.500  19.487   4.476
68124W        W68989   8.191  19.476   4.201
68125W        W68990   9.954  19.803   7.018
68126W        W68991   8.297  20.084   5.727
68127W        W68992   9.771  18.370   4.847
68128W        W68993   8.902  21.801   5.350
68129W        W68994  10.116  21.263   6.287
68130W        W68995   9.700  21.412   5.398
68131W        W68996   9.719  20.392   4.992
68132W        W68997   9.181  18.617   4.063
68133W        W68998  10.862  18.245   4.785
68134W        W68999   8.550  19.880   3.948
68135W        W69000  10.716  19.217   4.938
68136W        W69001   9.408  20.387   3.815
68137W        W69002  10.344  20.587   6.563
68138W        W69003   9.998  21.288   4.030
68139W        W69004   8.613  18.963   6.936
68140W        W69005   8.433  19.547   6.177
68141W        W69006  10.525  21.042   6.454
68142W        W69007   9.625  18.992   6.831
68143W        W69008   7.469  19.463   6.608
68144W        W69009   9.229  19.940   6.334
68145W        W69010   7.586  20.698   4.991
68146W        W69011   7.733  19.995   5.881
68147W        W69012  10.050  20.281   6.231
68148W        W69013   9.822  21.661   7.042
68149W        W69014   9.718  19.400   6.595
68150W        W69015   9.995  21.454   5.000
68151W        W69016   8.997  21.174   6.323
68152W        W69017   8.482  21.529   5.592
68153W        W69018  10.287  20.700   6.011
68154W        W69019   9.337  20.772   7.148
68155W        W69020   7.942  20.725   5.487
68156W        W69021  10.288  20.484   5.132
68157W        W69022   9.929  21.550   5.883
68158W        W69023   7.907  21.279   5.753
68159W        W69024   8.928  19.331   6.963
68160W        W69025   9.379  21.497   4.474
68161W        W69026   8.687  20.752   7.112
68162W        W69027   8.813  20.990   4.489
68163W        W69028   8.034  19.730   3.748
68164W        W69029   7.373  21.816  10.648
68165W        W69030   7.749  20.709  10.171
68166W        W69031  10.454  20.439   7.941
68167W        W69032  10.584  21.524   9.968
68168W        W69033   8.502  21.515   7.494
68169W        W69034   8.585  19.667   8.477
68170W        W69035   8.100  19.515   8.641
68171W        W69036   9.091  20.330   8.075
68172W        W69037   8.766  21.422  10.430
68173W        W69038   7.415  18.983  10.393
68174W        W69039   8.177  18.263  10.195
68175W        W69040   9.871  18.651   9.082
68176W        W69041   9.520  19.522   7.652
68177W        W69042  10.090  18.956  10.743
68178W        W69043   7.456  18.748   9.868
68179W        W69044   7.555  21.367  10.889
68180W        W69045   9.077  20.757   7.621
68181W        W69046   7.509  19.540   9.314
68182W        W69047   8.402  19.431  10.551
68183W        W69048  10.861  19.290   9.050
68184W        W69049  10.625  20.333   9.909
68185W        W69050   8.933  19.666   8.936
68186W        W69051   9.479  21.005   9.305
68187W        W69052   7.979  20.439   9.537
68188W        W69053   7.338  19.967   9.108
68189W        W69054   8.374  19.939  10.300
68190W        W69055  10.645  19.722  10.554
68191W        W69056   8.261  21.166   8.999
68192W        W69057   9.382  20.855  10.133
68193W        W69058   8.602  19.495   9.358
68194W        W69059   8.894  20.279   9.001
68195W        W69060   9.891  21.052  10.849
68196W        W69061   8.970  20.372  10.859
68197W        W69062   8.951  20.088  10.337
68198W        W69063   7.360  19.479  10.859
68199W        W69064  10.192  21.014  10.458
68200W        W69065   7.773  18.596   8.456
68201W        W69066   8.300  20.854   9.455
68202W        W69067  10.763  20.637   8.745
68203W        W69068  10.176  19.037   9.312
68204W        W69069  10.461  18.990   7.407
68205W        W69070  10.926  19.791   9.713
68206W        W69071   8.893  21.498   9.466
68207W        W69072  10.667  20.964   7.904
68208W        W69073   7.796  21.750   7.658
68209W        W69074   8.189  21.796   8.334
68210W        W69075   7.986  18.550   9.760
68211W        W69076  10.609  19.568  10.035
68212W        W69077  10.014  19.990   8.494
68213W        W69078   9.980  19.678   7.521
68214W        W69079   9.188  20.822   9.661
68215W        W69080   8.994  19.152   8.860
68216W        W69081   9.594  21.239   9.854
68217W        W69082  10.465  20.030   8.276
68218W        W69083   9.367  18.688   8.292
68219W        W69084   8.024  21.382   7.975
68220W        W69085   7.395  18.881   8.574
68221W        W69086  10.181  19.488   9.048
68222W        W69087   7.639  21.105   8.963
68223W        W69088   8.980  21.455   7.833
68224W        W69089  10.372  19.481   7.297
68225W        W69090   7.395  21.239   9.461
68226W        W69091   8.186  20.811   9.941
68227W        W69092   8.559  20.171   8.560
68228W        W69093   8.581  18.576   9.653
68229W        W69094  10.810  18.338   8.950
68230W        W69095   8.029  20.210   7.418
68231W        W69096   7.684  19.243   7.597
68232W        W69097   7.746  21.199   8.391
68233W        W69098   8.877  20.682   8.639
68234W        W69099  10.209  21.541  10.353
68235W        W69100   9.135  19.183   8.037
68236W        W69101  10.518  21.581   8.809
68237W        W69102  10.195  19.434  10.407
68238W        W69103  10.908  21.090   8.541
68239W        W69104   9.535  20.382  10.025
68240W        W69105   7.301  19.933   8.231
68241W        W69106   8.412  20.348   9.804
68242W        W69107   9.616  19.612   8.182
68243W        W69108   9.493  20.102   8.286
68244W        W69109   7.836  19.522   9.760
68245W        W69110   7.821  19.398  10.682
68246W        W69111   7.711  18.315   8.841
68247W        W69112   9.479  18.662   9.402
68248W        W69113   9.127  18.847  10.565
68249W        W69114   9.482  18.996   7.743
68250W        W69115  10.665  21.389  10.497
68251W        W69116   9.632  18.470  10.536
68252W        W69117  10.651  20.771  10.658
68253W        W69118  10.081  18.938  10.254
68254W        W69119   9.881  18.876   8.524
68255W        W69120  10.274  20.010  10.928
68256W        W69121   8.014  21.586   8.914
68257W        W69122   8.672  19.303   7.900
68258W        W69123   8.241  18.587  10.564
68259W        W69124  10.293  19.071   8.245
68260W        W69125  10.660  19.553   8.190
68261W        W69126   8.403  21.770  10.661
68262W        W69127   8.329  18.306   7.896
68263W        W69128  10.650  18.840   8.931
68264W        W69129  10.800  21.089   7.376
68265W        W69130   7.707  20.292   9.078
68266W        W69131   9.624  18.879   7.308
68267W        W69132  10.758  21.211   9.028
68268W        W69133  10.797  18.405   9.778
68269W        W69134   9.242  19.617  10.332
68270W        W69135   9.335  20.956   8.035
68271W        W69136   9.735  20.250  10.775
68272W        W69137   9.409  18.227   9.084
68273W        W69138   8.021  19.130   9.147
68274W        W69139   7.575  20.330   9.921
68275W        W69140   9.434  21.523   8.627
68276W        W69141  10.628  19.120   9.499
68277W        W69142   9.265  21.467  10.266
68278W        W69143  10.608  20.526   7.471
68279W        W69144   9.043  20.009   8.532
68280W        W69145  10.895  18.520  10.273
68281W        W69146   9.044  20.355   9.867
68282W        W69147   9.261  19.241   9.312
68283W        W69148  10.113  19.539   8.150
68284W        W69149  10.400  19.272   7.792
68285W        W69150  10.209  21.312   8.181
68286W        W69151  10.043  20.915   8.977
68287W        W69152   9.939  19.994   7.955
68288W        W69153   9.372  20.204   8.941
68289W        W69154  10.253  19.992   9.008
68290W        W69155   7.628  19.007   9.432
68291W        W69156  10.406  20.059  10.259
68292W        W69157  10.757  21.677   9.405
68293W        W69158   8.687  21.121   8.807
68294W        W69159   9.694  21.654  10.131
68295W        W69160   9.688  18.984   9.895
68296W        W69161   8.895  21.692   9.956
68297W        W69162  10.592  18.646   8.422
68298W        W69163  10.383  19.965   9.723
68299W        W69164   7.366  19.286   9.761
68300W        W69165  10.226  19.081   8.779
68301W        W69166  10.637  19.232  10.556
68302W        W69167   9.522  20.931   8.774
68303W        W69168   8.778  21.522   8.387
68304W        W69169   7.893  18.702   7.645
68305W        W69170   8.997  18.356   9.455
68306W        W69171   8.025  21.476   7.303
68307W        W69172   8.399  19.942   8.054
68308W        W69173   9.053  20.571  10.367
68309W        W69174   8.883  18.929   8.357
68310W        W69175  10.239  18.526   8.785
68311W        W69176   9.959  21.808   9.113
68312W        W69177   9.371  21.456   9.453
68313W        W69178   8.767  20.493   9.414
68314W        W69179  10.537  21.216   9.540
68315W        W69180   8.231  18.719   8.309
68316W        W69181   8.753  21.016   9.269
68317W        W69182   8.236  18.947   7.334
68318W        W69183   9.037  19.556   9.728
68319W        W69184   9.885  18.422   9.598
68320W        W69185   7.305  20.265   9.483
68321W        W69186   9.009  20.083   7.641
68322W        W69187   8.277  18.398   7.411
68323W        W69188   9.015  19.479   8.462
68324W        W69189   9.985  18.455  10.161
68325W        W69190   8.573  20.467  10.270
68326W        W69191   9.377  20.249  10.487
68327W        W69192   9.994  20.279  10.380
68328W        W69193   9.278  18.419  10.885
68329W        W69194   8.500  19.035   9.278
68330W        W69195   7.926  18.991   8.676
68331W        W69196   7.712  21.703   8.352
68332W        W69197   9.044  21.033  10.477
68333W        W69198   8.079  20.518   7.836
68334W        W69199   9.759  19.903   9.057
68335W        W69200  10.039  19.702   9.456
68336W        W69201   9.244  20.376   9.390
68337W        W69202   9.714  20.750   7.522
68338W        W69203   9.386  18.771   8.850
68339W        W69204  10.865  19.049   8.118
68340W        W69205   7.359  21.638  10.149
68341W        W69206   7.776  20.864   9.681
68342W        W69207   7.343  21.710   7.913
68343W        W69208   9.242  18.980   9.719
68344W        W69209   8.605  21.003   7.568
68345W        W69210  10.510  21.385   7.754
68346W        W69211   9.485  20.038   7.768
68347W        W69212   8.328  19.229   8.285
68348W        W69213   9.160  19.139   7.337
68349W        W69214   9.744  20.704  10.515
68350W        W69215  10.097  18.610   8.132
68351W        W69216   7.427  18.458   7.580
68352W        W69217   8.713  20.777   9.870
68353W        W69218   8.512  20.693   8.962
68354W        W69219   8.254  20.645   7.360
68355W        W69220   7.495  20.886   8.128
68356W        W69221   7.999  19.956  10.570
68357W        W69222   8.703  18.516  10.756
68358W        W69223   9.412  18.658  10.112
68359W        W69224   8.607  18.426   8.393
68360W        W69225   9.666  18.503   7.898
68361W        W69226   7.611  18.435   9.475
68362W        W69227   7.659  19.398   8.845
68363W        W69228  10.348  18.506   9.251
68364W        W69229   7.770  19.004   8.065
68365W        W69230  10.341  18.692   9.681
68366W        W69231  10.737  19.895   7.366
68367W        W69232   8.029  18.653   9.185
68368W        W69233   9.143  19.225  10.125
68369W        W69234   7.291  18.915   7.603
68370W        W69235   8.077  20.304  10.164
68371W        W69236   9.435  19.702   9.343
68372W        W69237   9.302  21.781   7.639
68373W        W69238   7.448  20.288   7.336
68374W        W69239   8.183  20.699  10.462
68375W        W69240   7.704  19.866  10.093
68376W        W69241   8.695  19.971   9.887
68377W        W69242  10.463  18.330  10.149
68378W        W69243  10.861  19.940  10.140
68379W        W69244  10.849  20.140   7.826
68380W        W69245   9.712  20.472   7.925
68381W        W69246  10.186  21.772   7.620
68382W        W69247   9.363  19.762  10.762
68383W        W69248   7.693  20.729  10.802
68384W        W69249  10.899  18.651  10.754
68385W        W69250  10.617  19.579   9.375
68386W        W69251   8.925  21.709  10.852
68387W        W69252   8.780  18.338   7.579
68388W        W69253  10.319  20.937   7.522
68389W        W69254   8.088  19.030  10.408
68390W        W69255   8.522  21.024  10.270
68391W        W69256  10.648  19.015  10.068
68392W        W69257   9.859  21.674   8.036
68393W        W69258  10.098  20.293   9.403
68394W        W69259   8.348  18.709  10.070
68395W        W69260   8.817  19.778  10.827
68396W        W69261   8.320  20.957   8.021
68397W        W69262  10.075  20.455   8.285
68398W        W69263   7.843  19.081  10.009
68399W        W69264   9.172  21.143   8.473
68400W        W69265  10.922  19.703   8.654
68401W        W69266   9.144  18.336  10.373
68402W        W69267   9.924  21.041   9.452
68403W        W69268  10.227  21.385   9.160
68404W        W69269   9.446  21.187   7.588
68405W        W69270   7.456  21.079  10.430
68406W        W69271   8.199  19.071   9.668
68407W        W69272   8.169  18.419   8.778
68408W        W69273   9.790  19.261   9.470
68409W        W69274   8.588  20.432   7.670
68410W        W69275  10.586  20.374   9.169
68411W        W69276   7.913  21.132  10.592
68412W        W69277  10.300  21.814   8.389
68413W        W69278   8.399  18.834   8.834
68414W        W69279   8.168  20.327   8.924
68415W        W69280   8.481  21.738   9.674
68416W        W69281  10.548  21.834  10.706
68417W        W69282   9.707  20.022   9.639
68418W        W69283   7.556  19.820   7.554
68419W        W69284  10.690  21.478   8.251
68420W        W69285  10.527  18.802   7.870
68421W        W69286   8.666  18.321  10.273
68422W        W69287  10.372  21.123   8.731
68423W        W69288  10.401  19.679   8.636
68424W        W69289   8.518  19.352   8.852
68425W        W69290   8.763  19.614  10.176
68426W        W69291   9.874  20.767  10.039
68427W        W69292   8.524  19.221  10.151
68428W        W69293   8.503  21.687   8.767
68429W        W69294   7.820  21.646  10.401
68430W        W69295   7.932  21.007   7.531
68431W        W69296  10.449  20.765   8.341
68432W        W69297   8.053  19.557  10.227
68433W        W69298  10.826  19.487   7.708
68434W        W69299   8.571  20.544   8.179
68435W        W69300   9.670  19.926  10.260
68436W        W69301   9.561  19.554   9.804
68437W        W69302   8.121  19.926   9.833
68438W        W69303  10.331  21.814   9.662
68439W        W69304  10.122  18.448  10.656
68440W        W69305   7.786  18.598  10.243
68441W        W69306   8.125  19.621   9.296
68442W        W69307   8.494  19.435   7.418
68443W        W69308   7.297  21.194   9.963
68444W        W69309   8.882  19.903   9.406
68445W        W69310   8.705  18.928   7.511
68446W        W69311   7.840  19.744   8.292
68447W        W69312   7.611  21.596   9.729
68448W        W69313  10.406  19.822   7.837
68449W        W69314  10.501  18.738  10.523
68450W        W69315   9.937  20.947   8.486
68451W        W69316   7.535  19.871  10.663
68452W        W69317  10.501  18.335   7.959
68453W        W69318  10.021  20.810   7.970
68454W        W69319   8.923  19.868   8.055
68455W        W69320  10.110  18.672   7.578
68456W        W69321  10.175  19.279   9.764
68457W        W69322   7.884  19.872   8.971
68458W        W69323   8.178  20.811   8.620
68459W        W69324   9.941  19.431   8.585
68460W        W69325   8.964  18.810   9.281
68461W        W69326  10.926  20.721   9.792
68462W        W69327  10.844  18.708   9.353
68463W        W69328   7.383  21.538   8.729
68464W        W69329   7.892  20.725   8.265
68465W        W69330   7.807  18.342  10.818
68466W        W69331   8.926  21.195  10.920
68467W        W69332  10.681  20.163   8.710
68468W        W69333  10.035  20.340   7.590
68469W        W69334   9.330  21.861   9.802
68470W        W69335  10.187  20.583  10.839
68471W        W69336   9.002  18.293   8.119
68472W        W69337   9.715  19.162   8.978
68473W        W69338   7.401  20.749   9.310
68474W        W69339   8.654  18.711   7.951
68475W        W69340   8.458  20.195  10.800
68476W        W69341   9.452  19.176   8.514
68477W        W69342   9.657  20.586   9.636
68478W        W69343   7.811  21.191  10.071
68479W        W69344   8.402  21.174  10.794
68480W        W69345   8.253  18.971   7.808
68481W        W69346   9.770  19.113   8.133
68482W        W69347   9.728  21.221  10.370
68483W        W69348   8.413  19.813   8.969
68484W        W69349   8.068  21.511   9.834
68485W        W69350  10.813  21.628   7.435
68486W        W69351   7.676  20.300  10.431
68487W        W69352   9.671  20.562   9.119
68488W        W69353   8.107  20.211   8.361
68489W        W69354   8.478  21.218   9.756
68490W        W69355   8.856  18.637   8.797
68491W        W69356   7.467  20.621   7.727
68492W        W69357   8.986  19.572   7.597
68493W        W69358   7.632  20.121   8.616
68494W        W69359   8.922  18.763  10.080
68495W        W69360  10.594  18.472   7.507
68496W        W69361  10.687  20.218  10.606
68497W        W69362   9.341  21.475  10.758
68498W        W69363  10.899  20.569  10.280
68499W        W69364  10.307  21.367  10.891
68500W        W69365   8.046  21.823   9.369
68501W        W69366  10.905  20.445   8.243
68502W        W69367   9.435  19.712   8.756
68503W        W69368   9.202  18.324   8.646
68504W        W69369   8.261  21.308   8.483
68505W        W69370   8.760  19.049   9.708
68506W        W69371   8.460  18.418   9.177
68507W        W69372   7.523  21.240   7.725
68508W        W69373   9.339  20.604   8.443
68509W        W69374   8.214  21.399  10.322
68510W        W69375   7.691  20.222   8.018
68511W        W69376   7.576  18.765   9.017
68512W        W69377   9.124  20.730   9.074
68513W        W69378   7.376  18.584   8.094
68514W        W69379  10.040  19.790  10.021
68515W        W69380   9.917  19.176   7.593
68516W        W69381  10.434  20.848   9.241
68517W        W69382   9.095  21.332   9.072
68518W        W69383   8.507  21.436   7.983
68519W        W69384   9.789  18.339   7.413
68520W        W69385   7.589  21.599   9.154
68521W        W69386   9.786  19.357  10.789
68522W        W69387   7.769  18.887  10.788
68523W        W69388   7.500  19.487   8.121
68524W        W69389   8.191  19.476   7.846
68525W        W69390   9.954  19.803  10.663
68526W        W69391   8.297  20.084   9.372
68527W        W69392   9.771  18.370   8.492
68528W        W69393   8.902  21.801   8.995
68529W        W69394  10.116  21.263   9.932
68530W        W69395   9.700  21.412   9.043
68531W        W69396   9.719  20.392   8.637
68532W        W69397   9.181  18.617   7.708
68533W        W69398  10.862  18.245   8.430
68534W        W69399   8.550  19.880   7.593
68535W        W69400  10.716  19.217   8.583
68536W        W69401   9.408  20.387   7.460
68537W        W69402  10.344  20.587  10.208
68538W        W69403   9.998  21.288   7.675
68539W        W69404   8.613  18.963  10.581
68540W        W69405   8.433  19.547   9.822
68541W        W69406  10.525  21.042  10.099
68542W        W69407   9.625  18.992  10.476
68543W        W69408   7.469  19.463  10.253
68544W        W69409   9.229  19.940   9.979
68545W        W69410   7.586  20.698   8.636
68546W        W69411   7.733  19.995   9.526
68547W        W69412  10.050  20.281   9.876
68548W        W69413   9.822  21.661  10.687
68549W        W69414   9.718  19.400  10.240
68550W        W69415   9.995  21.454   8.645
68551W        W69416   8.997  21.174   9.968
68552W        W69417   8.482  21.529   9.237
68553W        W69418  10.287  20.700   9.656
68554W        W69419   9.337  20.772  10.793
68555W        W69420   7.942  20.725   9.132
68556W        W69421  10.288  20.484   8.777
68557W        W69422   9.929  21.550   9.528
68558W        W69423   7.907  21.279   9.398
68559W        W69424   8.928  19.331  10.608
68560W        W69425   9.379  21.497   8.119
68561W        W69426   8.687  20.752  10.757
68562W        W69427   8.813  20.990   8.134
68563W        W69428   8.034  19.730   7.393
68564W        W69429   7.373  21.816  14.292
68565W        W69430   7.749  20.709  13.815
68566W        W69431  10.454  20.439  11.585
68567W        W69432  10.584  21.524  13.612
68568W        W69433   8.502  21.515  11.138
68569W        W69434   8.585  19.667  12.121
68570W        W69435   8.100  19.515  12.285
68571W        W69436   9.091  20.330  11.719
68572W        W69437   8.766  21.422  14.074
68573W        W69438   7.415  18.983  14.037
68574W        W69439   8.177  18.263  13.839
68575W        W69440   9.871  18.651  12.726
68576W        W69441   9.520  19.522  11.296
68577W        W69442  10.090  18.956  14.387
68578W        W69443   7.456  18.748  13.512
68579W        W69444   7.555  21.367  14.533
68580W        W69445   9.077  20.757  11.265
68581W        W69446   7.509  19.540  12.958
68582W        W69447   8.402  19.431  14.195
68583W        W69448  10.861  19.290  12.694
68584W        W69449  10.625  20.333  13.553
68585W        W69450   8.933  19.666  12.580
68586W        W69451   9.479  21.005  12.949
68587W        W69452   7.979  20.439  13.181
68588W        W69453   7.338  19.967  12.752
68589W        W69454   8.374  19.939  13.944
68590W        W69455  10.645  19.722  14.198
68591W        W69456   8.261  21.166  12.643
68592W        W69457   9.382  20.855  13.777
68593W        W69458   8.602  19.495  13.002
68594W        W69459   8.894  20.279  12.645
68595W        W69460   9.891  21.052  14.493
68596W        W69461   8.970  20.372  14.503
68597W        W69462   8.951  20.088  13.981
68598W        W69463   7.360  19.479  14.503
68599W        W69464  10.192  21.014  14.102
68600W        W69465   7.773  18.596  12.100
68601W        W69466   8.300  20.854  13.099
68602W        W69467  10.763  20.637  12.389
68603W        W69468  10.176  19.037  12.956
68604W        W69469  10.461  18.990  11.051
68605W        W69470  10.926  19.791  13.357
68606W        W69471   8.893  21.498  13.110
68607W        W69472  10.667  20.964  11.548
68608W        W69473   7.796  21.750  11.302
68609W        W69474   8.189  21.796  11.978
68610W        W69475   7.986  18.550  13.404
68611W        W69476  10.609  19.568  13.679
68612W        W69477  10.014  19.990  12.138
68613W        W69478   9.980  19.678  11.165
68614W        W69479   9.188  20.822  13.305
68615W        W69480   8.994  19.152  12.504
68616W        W69481   9.594  21.239  13.498
68617W        W69482  10.465  20.030  11.920
68618W        W69483   9.367  18.688  11.936
68619W        W69484   8.024  21.382  11.619
68620W        W69485   7.395  18.881  12.218
68621W        W69486  10.181  19.488  12.692
68622W        W69487   7.639  21.105  12.607
68623W        W69488   8.980  21.455  11.477
68624W        W69489  10.372  19.481  10.941
68625W        W69490   7.395  21.239  13.105
68626W        W69491   8.186  20.811  13.585
68627W        W69492   8.559  20.171  12.204
68628W        W69493   8.581  18.576  13.297
68629W        W69494  10.810  18.338  12.594
68630W        W69495   8.029  20.210  11.062
68631W        W69496   7.684  19.243  11.241
68632W        W69497   7.746  21.199  12.035
68633W        W69498   8.877  20.682  12.283
68634W        W69499  10.209  21.541  13.997
68635W        W69500   9.135  19.183  11.681
68636W        W69501  10.518  21.581  12.453
68637W        W69502  10.195  19.434  14.051
68638W        W69503  10.908  21.090  12.185
68639W        W69504   9.535  20.382  13.669
68640W        W69505   7.301  19.933  11.875
68641W        W69506   8.412  20.348  13.448
68642W        W69507   9.616  19.612  11.826
68643W        W69508   9.493  20.102  11.930
68644W        W69509   7.836  19.522  13.404
68645W        W69510   7.821  19.398  14.326
68646W        W69511   7.711  18.315  12.485
68647W        W69512   9.479  18.662  13.046
68648W        W69513   9.127  18.847  14.209
68649W        W69514   9.482  18.996  11.387
68650W        W69515  10.665  21.389  14.141
68651W        W69516   9.632  18.470  14.180
68652W        W69517  10.651  20.771  14.302
68653W        W69518  10.081  18.938  13.898
68654W        W69519   9.881  18.876  12.168
68655W        W69520  10.274  20.010  14.572
68656W        W69521   8.014  21.586  12.558
68657W        W69522   8.672  19.303  11.544
68658W        W69523   8.241  18.587  14.208
68659W        W69524  10.293  19.071  11.889
68660W        W69525  10.660  19.553  11.834
68661W        W69526   8.403  21.770  14.305
68662W        W69527   8.329  18.306  11.540
68663W        W69528  10.650  18.840  12.575
68664W        W69529  10.800  21.089  11.020
68665W        W69530   7.707  20.292  12.722
68666W        W69531   9.624  18.879  10.952
68667W        W69532  10.758  21.211  12.672
68668W        W69533  10.797  18.405  13.422
68669W        W69534   9.242  19.617  13.976
68670W        W69535   9.335  20.956  11.679
68671W        W69536   9.735  20.250  14.419
68672W        W69537   9.409  18.227  12.728
68673W        W69538   8.021  19.130  12.791
68674W        W69539   7.575  20.330  13.565
68675W        W69540   9.434  21.523  12.271
68676W        W69541  10.628  19.120  13.143
68677W        W69542   9.265  21.467  13.910
68678W        W69543  10.608  20.526  11.115
68679W        W69544   9.043  20.009  12.176
68680W        W69545  10.895  18.520  13.917
68681W        W69546   9.044  20.355  13.511
68682W        W69547   9.261  19.241  12.956
68683W        W69548  10.113  19.539  11.794
68684W        W69549  10.400  19.272  11.436
68685W        W69550  10.209  21.312  11.825
68686W        W69551  10.043  20.915  12.621
68687W        W69552   9.939  19.994  11.599
68688W        W69553   9.372  20.204  12.585
68689W        W69554  10.253  19.992  12.652
68690W        W69555   7.628  19.007  13.076
68691W        W69556  10.406  20.059  13.903
68692W        W69557  10.757  21.677  13.049
68693W        W69558   8.687  21.121  12.451
68694W        W69559   9.694  21.654  13.775
68695W        W69560   9.688  18.984  13.539
68696W        W69561   8.895  21.692  13.600
68697W        W69562  10.592  18.646  12.066
68698W        W69563  10.383  19.965  13.367
68699W        W69564   7.366  19.286  13.405
68700W        W69565  10.226  19.081  12.423
68701W        W69566  10.637  19.232  14.200
68702W        W69567   9.522  20.931  12.418
68703W        W69568   8.778  21.522  12.031
68704W        W69569   7.893  18.702  11.289
68705W        W69570   8.997  18.356  13.099
68706W        W69571   8.025  21.476  10.947
68707W        W69572   8.399  19.942  11.698
68708W        W69573   9.053  20.571  14.011
68709W        W69574   8.883  18.929  12.001
68710W        W69575  10.239  18.526  12.429
68711W        W69576   9.959  21.808  12.757
68712W        W69577   9.371  21.456  13.097
68713W        W69578   8.767  20.493  13.058
68714W        W69579  10.537  21.216  13.184
68715W        W69580   8.231  18.719  11.953
68716W        W69581   8.753  21.016  12.913
68717W        W69582   8.236  18.947  10.978
68718W        W69583   9.037  19.556  13.372
68719W        W69584   9.885  18.422  13.242
68720W        W69585   7.305  20.265  13.127
68721W        W69586   9.009  20.083  11.285
68722W        W69587   8.277  18.398  11.055
68723W        W69588   9.015  19.479  12.106
68724W        W69589   9.985  18.455  13.805
68725W        W69590   8.573  20.467  13.914
68726W        W69591   9.377  20.249  14.131
68727W        W69592   9.994  20.279  14.024
68728W        W69593   9.278  18.419  14.529
68729W        W69594   8.500  19.035  12.922
68730W        W69595   7.926  18.991  12.320
68731W        W69596   7.712  21.703  11.996
68732W        W69597   9.044  21.033  14.121
68733W        W69598   8.079  20.518  11.480
68734W        W69599   9.759  19.903  12.701
68735W        W69600  10.039  19.702  13.100
68736W        W69601   9.244  20.376  13.034
68737W        W69602   9.714  20.750  11.166
68738W        W69603   9.386  18.771  12.494
68739W        W69604  10.865  19.049  11.762
68740W        W69605   7.359  21.638  13.793
68741W        W69606   7.776  20.864  13.325
68742W        W69607   7.343  21.710  11.557
68743W        W69608   9.242  18.980  13.363
68744W        W69609   8.605  21.003  11.212
68745W        W69610  10.510  21.385  11.398
68746W        W69611   9.485  20.038  11.412
68747W        W69612   8.328  19.229  11.929
68748W        W69613   9.160  19.139  10.981
68749W        W69614   9.744  20.704  14.159
68750W        W69615  10.097  18.610  11.776
68751W        W69616   7.427  18.458  11.224
68752W        W69617   8.713  20.777  13.514
68753W        W69618   8.512  20.693  12.606
68754W        W69619   8.254  20.645  11.004
68755W        W69620   7.495  20.886  11.772
68756W        W69621   7.999  19.956  14.214
68757W        W69622   8.703  18.516  14.400
68758W        W69623   9.412  18.658  13.756
68759W        W69624   8.607  18.426  12.037
68760W        W69625   9.666  18.503  11.542
68761W        W69626   7.611  18.435  13.119
68762W        W69627   7.659  19.398  12.489
68763W        W69628  10.348  18.506  12.895
68764W        W69629   7.770  19.004  11.709
68765W        W69630  10.341  18.692  13.325
68766W        W69631  10.737  19.895  11.010
68767W        W69632   8.029  18.653  12.829
68768W        W69633   9.143  19.225  13.769
68769W        W69634   7.291  18.915  11.247
68770W        W69635   8.077  20.304  13.808
68771W        W69636   9.435  19.702  12.987
68772W        W69637   9.302  21.781  11.283
68773W        W69638   7.448  20.288  10.980
68774W        W69639   8.183  20.699  14.106
68775W        W69640   7.704  19.866  13.737
68776W        W69641   8.695  19.971  13.531
68777W        W69642  10.463  18.330  13.793
68778W        W69643  10.861  19.940  13.784
68779W        W69644  10.849  20.140  11.470
68780W        W69645   9.712  20.472  11.569
68781W        W69646  10.186  21.772  11.264
68782W        W69647   9.363  19.762  14.406
68783W        W69648   7.693  20.729  14.446
68784W        W69649  10.899  18.651  14.398
68785W        W69650  10.617  19.579  13.019
68786W        W69651   8.925  21.709  14.496
68787W        W69652   8.780  18.338  11.223
68788W        W69653  10.319  20.937  11.166
68789W        W69654   8.088  19.030  14.052
68790W        W69655   8.522  21.024  13.914
68791W        W69656  10.648  19.015  13.712
68792W        W69657   9.859  21.674  11.680
68793W        W69658  10.098  20.293  13.047
68794W        W69659   8.348  18.709  13.714
68795W        W69660   8.817  19.778  14.471
68796W        W69661   8.320  20.957  11.665
68797W        W69662  10.075  20.455  11.929
68798W        W69663   7.843  19.081  13.653
68799W        W69664   9.172  21.143  12.117
68800W        W69665  10.922  19.703  12.298
68801W        W69666   9.144  18.336  14.017
68802W        W69667   9.924  21.041  13.096
68803W        W69668  10.227  21.385  12.804
68804W        W69669   9.446  21.187  11.232
68805W        W69670   7.456  21.079  14.074
68806W        W69671   8.199  19.071  13.312
68807W        W69672   8.169  18.419  12.422
68808W        W69673   9.790  19.261  13.114
68809W        W69674   8.588  20.432  11.314
68810W        W69675  10.586  20.374  12.813
68811W        W69676   7.913  21.132  14.236
68812W        W69677  10.300  21.814  12.033
68813W        W69678   8.399  18.834  12.478
68814W        W69679   8.168  20.327  12.568
68815W        W69680   8.481  21.738  13.318
68816W        W69681  10.548  21.834  14.350
68817W        W69682   9.707  20.022  13.283
68818W        W69683   7.556  19.820  11.198
68819W        W69684  10.690  21.478  11.895
68820W        W69685  10.527  18.802  11.514
68821W        W69686   8.666  18.321  13.917
68822W        W69687  10.372  21.123  12.375
68823W        W69688  10.401  19.679  12.280
68824W        W69689   8.518  19.352  12.496
68825W        W69690   8.763  19.614  13.820
68826W        W69691   9.874  20.767  13.683
68827W        W69692   8.524  19.221  13.795
68828W        W69693   8.503  21.687  12.411
68829W        W69694   7.820  21.646  14.045
68830W        W69695   7.932  21.007  11.175
68831W        W69696  10.449  20.765  11.985
68832W        W69697   8.053  19.557  13.871
68833W        W69698  10.826  19.487  11.352
68834W        W69699   8.571  20.544  11.823
68835W        W69700   9.670  19.926  13.904
68836W        W69701   9.561  19.554  13.448
68837W        W69702   8.121  19.926  13.477
68838W        W69703  10.331  21.814  13.306
68839W        W69704  10.122  18.448  14.300
68840W        W69705   7.786  18.598  13.887
68841W        W69706   8.125  19.621  12.940
68842W        W69707   8.494  19.435  11.062
68843W        W69708   7.297  21.194  13.607
68844W        W69709   8.882  19.903  13.050
68845W        W69710   8.705  18.928  11.155
68846W        W69711   7.840  19.744  11.936
68847W        W69712   7.611  21.596  13.373
68848W        W69713  10.406  19.822  11.481
68849W        W69714  10.501  18.738  14.167
68850W        W69715   9.937  20.947  12.130
68851W        W69716   7.535  19.871  14.307
68852W        W69717  10.501  18.335  11.603
68853W        W69718  10.021  20.810  11.614
68854W        W69719   8.923  19.868  11.699
68855W        W69720  10.110  18.672  11.222
68856W        W69721  10.175  19.279  13.408
68857W        W69722   7.884  19.872  12.615
68858W        W69723   8.178  20.811  12.264
68859W        W69724   9.941  19.431  12.229
68860W        W69725   8.964  18.810  12.925
68861W        W69726  10.926  20.721  13.436
68862W        W69727  10.844  18.708  12.997
68863W        W69728   7.383  21.538  12.373
68864W        W69729   7.892  20.725  11.909
68865W        W69730   7.807  18.342  14.462
68866W        W69731   8.926  21.195  14.564
68867W        W69732  10.681  20.163  12.354
68868W        W69733  10.035  20.340  11.234
68869W        W69734   9.330  21.861  13.446
68870W        W69735  10.187  20.583  14.483
68871W        W69736   9.002  18.293  11.763
68872W        W69737   9.715  19.162  12.622
68873W        W69738   7.401  20.749  12.954
68874W        W69739   8.654  18.711  11.595
68875W        W69740   8.458  20.195  14.444
68876W        W69741   9.452  19.176  12.158
68877W        W69742   9.657  20.586  13.280
68878W        W69743   7.811  21.191  13.715
68879W        W69744   8.402  21.174  14.438
68880W        W69745   8.253  18.971  11.452
68881W        W69746   9.770  19.113  11.777
68882W        W69747   9.728  21.221  14.014
68883W        W69748   8.413  19.813  12.613
68884W        W69749   8.068  21.511  13.478
68885W        W69750  10.813  21.628  11.079
68886W        W69751   7.676  20.300  14.075
68887W        W69752   9.671  20.562  12.763
68888W        W69753   8.107  20.211  12.005
68889W        W69754   8.478  21.218  13.400
68890W        W69755   8.856  18.637  12.441
68891W        W69756   7.467  20.621  11.371
68892W        W69757   8.986  19.572  11.241
68893W        W69758   7.632  20.121  12.260
68894W        W69759   8.922  18.763  13.724
68895W        W69760  10.594  18.472  11.151
68896W        W69761  10.687  20.218  14.250
68897W        W69762   9.341  21.475  14.402
68898W        W69763  10.899  20.569  13.924
68899W        W69764  10.307  21.367  14.535
68900W        W69765   8.046  21.823  13.013
68901W        W69766  10.905  20.445  11.887
68902W        W69767   9.435  19.712  12.400
68903W        W69768   9.202  18.324  12.290
68904W        W69769   8.261  21.308  12.127
68905W        W69770   8.760  19.049  13.352
68906W        W69771   8.460  18.418  12.821
68907W        W69772   7.523  21.240  11.369
68908W        W69773   9.339  20.604  12.087
68909W        W69774   8.214  21.399  13.966
68910W        W69775   7.691  20.222  11.662
68911W        W69776   7.576  18.765  12.661
68912W        W69777   9.124  20.730  12.718
68913W        W69778   7.376  18.584  11.738
68914W        W69779  10.040  19.790  13.665
68915W        W69780   9.917  19.176  11.237
68916W        W69781  10.434  20.848  12.885
68917W        W69782   9.095  21.332  12.716
68918W        W69783   8.507  21.436  11.627
68919W        W69784   9.789  18.339  11.057
68920W        W69785   7.589  21.599  12.798
68921W        W69786   9.786  19.357  14.433
68922W        W69787   7.769  18.887  14.432
68923W        W69788   7.500  19.487  11.765
68924W        W69789   8.191  19.476  11.490
68925W        W69790   9.954  19.803  14.307
68926W        W69791   8.297  20.084  13.016
68927W        W69792   9.771  18.370  12.136
68928W        W69793   8.902  21.801  12.639
68929W        W69794  10.116  21.263  13.576
68930W        W69795   9.700  21.412  12.687
68931W        W69796   9.719  20.392  12.281
68932W        W69797   9.181  18.617  11.352
68933W        W69798  10.862  18.245  12.074
68934W        W69799   8.550  19.880  11.237
68935W        W69800  10.716  19.217  12.227
68936W        W69801   9.408  20.387  11.104
68937W        W69802  10.344  20.587  13.852
68938W        W69803   9.998  21.288  11.319
68939W        W69804   8.613  18.963  14.225
68940W        W69805   8.433  19.547  13.466
68941W        W69806  10.525  21.042  13.743
68942W        W69807   9.625  18.992  14.120
68943W        W69808   7.469  19.463  13.897
68944W        W69809   9.229  19.940  13.623
68945W        W69810   7.586  20.698  12.280
68946W        W69811   7.733  19.995  13.170
68947W        W69812  10.050  20.281  13.520
68948W        W69813   9.822  21.661  14.331
68949W        W69814   9.718  19.400  13.884
68950W        W69815   9.995  21.454  12.289
68951W        W69816   8.997  21.174  13.612
68952W        W69817   8.482  21.529  12.881
68953W        W69818  10.287  20.700  13.300
68954W        W69819   9.337  20.772  14.437
68955W        W69820   7.942  20.725  12.776
68956W        W69821  10.288  20.484  12.421
68957W        W69822   9.929  21.550  13.172
68958W        W69823   7.907  21.279  13.042
68959W        W69824   8.928  19.331  14.252
68960W        W69825   9.379  21.497  11.763
68961W        W69826   8.687  20.752  14.401
68962W        W69827   8.813  20.990  11.778
68963W        W69828   8.034  19.730  11.037
68964W        W69829   7.373  21.816  17.936
68965W        W69830   7.749  20.709  17.459
68966W        W69831  10.454  20.439  15.229
68967W        W69832  10.584  21.524  17.256
68968W        W69833   8.502  21.515  14.782
68969W        W69834   8.585  19.667  15.765
68970W        W69835   8.100  19.515  15.929
68971W        W69836   9.091  20.330  15.363
68972W        W69837   8.766  21.422  17.718
68973W        W69838   7.415  18.983  17.681
68974W        W69839   8.177  18.263  17.483
68975W        W69840   9.871  18.651  16.370
68976W        W69841   9.520  19.522  14.940
68977W        W69842  10.090  18.956  18.031
68978W        W69843   7.456  18.748  17.156
68979W        W69844   7.555  21.367  18.177
68980W        W69845   9.077  20.757  14.909
68981W        W69846   7.509  19.540  16.602
68982W        W69847   8.402  19.431  17.839
68983W        W69848  10.861  19.290  16.338
68984W        W69849  10.625  20.333  17.197
68985W        W69850   8.933  19.666  16.224
68986W        W69851   9.479  21.005  16.593
68987W        W69852   7.979  20.439  16.825
68988W        W69853   7.338  19.967  16.396
68989W        W69854   8.374  19.939  17.588
68990W        W69855  10.645  19.722  17.842
68991W        W69856   8.261  21.166  16.287
68992W        W69857   9.382  20.855  17.421
68993W        W69858   8.602  19.495  16.646
68994W        W69859   8.894  20.279  16.289
68995W        W69860   9.891  21.052  18.137
68996W        W69861   8.970  20.372  18.147
68997W        W69862   8.951  20.088  17.625
68998W        W69863   7.360  19.479  18.147
68999W        W69864  10.192  21.014  17.746
69000W        W69865   7.773  18.596  15.744
69001W        W69866   8.300  20.854  16.743
69002W        W69867  10.763  20.637  16.033
69003W        W69868  10.176  19.037  16.600
69004W        W69869  10.461  18.990  14.695
69005W        W69870  10.926  19.791  17.001
69006W        W69871   8.893  21.498  16.754
69007W        W69872  10.667  20.964  15.192
69008W        W69873   7.796  21.750  14.946
69009W        W69874   8.189  21.796  15.622
69010W        W69875   7.986  18.550  17.048
69011W        W69876  10.609  19.568  17.323
69012W        W69877  10.014  19.990  15.782
69013W        W69878   9.980  19.678  14.809
69014W        W69879   9.188  20.822  16.949
69015W        W69880   8.994  19.152  16.148
69016W        W69881   9.594  21.239  17.142
69017W        W69882  10.465  20.030  15.564
69018W        W69883   9.367  18.688  15.580
69019W        W69884   8.024  21.382  15.263
69020W        W69885   7.395  18.881  15.862
69021W        W69886  10.181  19.488  16.336
69022W        W69887   7.639  21.105  16.251
69023W        W69888   8.980  21.455  15.121
69024W        W69889  10.372  19.481  14.585
69025W        W69890   7.395  21.239  16.749
69026W        W69891   8.186  20.811  17.229
69027W        W69892   8.559  20.171  15.848
69028W        W69893   8.581  18.576  16.941
69029W        W69894  10.810  18.338  16.238
69030W        W69895   8.029  20.210  14.706
69031W        W69896   7.684  19.243  14.885
69032W        W69897   7.746  21.199  15.679
69033W        W69898   8.877  20.682  15.927
69034W        W69899  10.209  21.541  17.641
69035W        W69900   9.135  19.183  15.325
69036W        W69901  10.518  21.581  16.097
69037W        W69902  10.195  19.434  17.695
69038W        W69903  10.908  21.090  15.829
69039W        W69904   9.535  20.382  17.313
69040W        W69905   7.301  19.933  15.519
69041W        W69906   8.412  20.348  17.092
69042W        W69907   9.616  19.612  15.470
69043W        W69908   9.493  20.102  15.574
69044W        W69909   7.836  19.522  17.048
69045W        W69910   7.821  19.398  17.970
69046W        W69911   7.711  18.315  16.129
69047W        W69912   9.479  18.662  16.690
69048W        W69913   9.127  18.847  17.853
69049W        W69914   9.482  18.996  15.031
69050W        W69915  10.665  21.389  17.785
69051W        W69916   9.632  18.470  17.824
69052W        W69917  10.651  20.771  17.946
69053W        W69918  10.081  18.938  17.542
69054W        W69919   9.881  18.876  15.812
69055W        W69920  10.274  20.010  18.216
69056W        W69921   8.014  21.586  16.202
69057W        W69922   8.672  19.303  15.188
69058W        W69923   8.241  18.587  17.852
69059W        W69924  10.293  19.071  15.533
69060W        W69925  10.660  19.553  15.478
69061W        W69926   8.403  21.770  17.949
69062W        W69927   8.329  18.306  15.184
69063W        W69928  10.650  18.840  16.219
69064W        W69929  10.800  21.089  14.664
69065W        W69930   7.707  20.292  16.366
69066W        W69931   9.624  18.879  14.596
69067W        W69932  10.758  21.211  16.316
69068W        W69933  10.797  18.405  17.066
69069W        W69934   9.242  19.617  17.620
69070W        W69935   9.335  20.956  15.323
69071W        W69936   9.735  20.250  18.063
69072W        W69937   9.409  18.227  16.372
69073W        W69938   8.021  19.130  16.435
69074W        W69939   7.575  20.330  17.209
69075W        W69940   9.434  21.523  15.915
69076W        W69941  10.628  19.120  16.787
69077W        W69942   9.265  21.467  17.554
69078W        W69943  10.608  20.526  14.759
69079W        W69944   9.043  20.009  15.820
69080W        W69945  10.895  18.520  17.561
69081W        W69946   9.044  20.355  17.155
69082W        W69947   9.261  19.241  16.600
69083W        W69948  10.113  19.539  15.438
69084W        W69949  10.400  19.272  15.080
69085W        W69950  10.209  21.312  15.469
69086W        W69951  10.043  20.915  16.265
69087W        W69952   9.939  19.994  15.243
69088W        W69953   9.372  20.204  16.229
69089W        W69954  10.253  19.992  16.296
69090W        W69955   7.628  19.007  16.720
69091W        W69956  10.406  20.059  17.547
69092W        W69957  10.757  21.677  16.693
69093W        W69958   8.687  21.121  16.095
69094W        W69959   9.694  21.654  17.419
69095W        W69960   9.688  18.984  17.183
69096W        W69961   8.895  21.692  17.244
69097W        W69962  10.592  18.646  15.710
69098W        W69963  10.383  19.965  17.011
69099W        W69964   7.366  19.286  17.049
69100W        W69965  10.226  19.081  16.067
69101W        W69966  10.637  19.232  17.844
69102W        W69967   9.522  20.931  16.062
69103W        W69968   8.778  21.522  15.675
69104W        W69969   7.893  18.702  14.933
69105W        W69970   8.997  18.356  16.743
69106W        W69971   8.025  21.476  14.591
69107W        W69972   8.399  19.942  15.342
69108W        W69973   9.053  20.571  17.655
69109W        W69974   8.883  18.929  15.645
69110W        W69975  10.239  18.526  16.073
69111W        W69976   9.959  21.808  16.401
69112W        W69977   9.371  21.456  16.741
69113W        W69978   8.767  20.493  16.702
69114W        W69979  10.537  21.216  16.828
69115W        W69980   8.231  18.719  15.597
69116W        W69981   8.753  21.016  16.557
69117W        W69982   8.236  18.947  14.622
69118W        W69983   9.037  19.556  17.016
69119W        W69984   9.885  18.422  16.886
69120W        W69985   7.305  20.265  16.771
69121W        W69986   9.009  20.083  14.929
69122W        W69987   8.277  18.398  14.699
69123W        W69988   9.015  19.479  15.750
69124W        W69989   9.985  18.455  17.449
69125W        W69990   8.573  20.467  17.558
69126W        W69991   9.377  20.249  17.775
69127W        W69992   9.994  20.279  17.668
69128W        W69993   9.278  18.419  18.173
69129W        W69994   8.500  19.035  16.566
69130W        W69995   7.926  18.991  15.964
69131W        W69996   7.712  21.703  15.640
69132W        W69997   9.044  21.033  17.765
69133W        W69998   8.079  20.518  15.124
69134W        W69999   9.759  19.903  16.345
69135W        W70000  10.039  19.702  16.744
69136W        W70001   9.244  20.376  16.678
69137W        W70002   9.714  20.750  14.810
69138W        W70003   9.386  18.771  16.138
69139W        W70004  10.865  19.049  15.406
69140W        W70005   7.359  21.638  17.437
69141W        W70006   7.776  20.864  16.969
69142W        W70007   7.343  21.710  15.201
69143W        W70008   9.242  18.980  17.007
69144W        W70009   8.605  21.003  14.856
69145W        W70010  10.510  21.385  15.042
69146W        W70011   9.485  20.038  15.056
69147W        W70012   8.328  19.229  15.573
69148W        W70013   9.160  19.139  14.625
69149W        W70014   9.744  20.704  17.803
69150W        W70015  10.097  18.610  15.420
69151W        W70016   7.427  18.458  14.868
69152W        W70017   8.713  20.777  17.158
69153W        W70018   8.512  20.693  16.250
69154W        W70019   8.254  20.645  14.648
69155W        W70020   7.495  20.886  15.416
69156W        W70021   7.999  19.956  17.858
69157W        W70022   8.703  18.516  18.044
69158W        W70023   9.412  18.658  17.400
69159W        W70024   8.607  18.426  15.681
69160W        W70025   9.666  18.503  15.186
69161W        W70026   7.611  18.435  16.763
69162W        W70027   7.659  19.398  16.133
69163W        W70028  10.348  18.506  16.539
69164W        W70029   7.770  19.004  15.353
69165W        W70030  10.341  18.692  16.969
69166W        W70031  10.737  19.895  14.654
69167W        W70032   8.029  18.653  16.473
69168W        W70033   9.143  19.225  17.413
69169W        W70034   7.291  18.915  14.891
69170W        W70035   8.077  20.304  17.452
69171W        W70036   9.435  19.702  16.631
69172W        W70037   9.302  21.781  14.927
69173W        W70038   7.448  20.288  14.624
69174W        W70039   8.183  20.699  17.750
69175W        W70040   8.695  19.971  17.175
69176W        W70041  10.463  18.330  17.437
69177W        W70042  10.861  19.940  17.428
69178W        W70043  10.849  20.140  15.114
69179W        W70044   9.712  20.472  15.213
69180W        W70045  10.186  21.772  14.908
69181W        W70046   9.363  19.762  18.050
69182W        W70047   7.693  20.729  18.090
69183W        W70048  10.899  18.651  18.042
69184W        W70049  10.617  19.579  16.663
69185W        W70050   8.925  21.709  18.140
69186W        W70051   8.780  18.338  14.867
69187W        W70052  10.319  20.937  14.810
69188W        W70053   8.088  19.030  17.696
69189W        W70054   8.522  21.024  17.558
69190W        W70055  10.648  19.015  17.356
69191W        W70056   9.859  21.674  15.324
69192W        W70057  10.098  20.293  16.691
69193W        W70058   8.348  18.709  17.358
69194W        W70059   8.817  19.778  18.115
69195W        W70060   8.320  20.957  15.309
69196W        W70061  10.075  20.455  15.573
69197W        W70062   7.843  19.081  17.297
69198W        W70063   9.172  21.143  15.761
69199W        W70064  10.922  19.703  15.942
69200W        W70065   9.144  18.336  17.661
69201W        W70066   9.924  21.041  16.740
69202W        W70067  10.227  21.385  16.448
69203W        W70068   9.446  21.187  14.876
69204W        W70069   7.456  21.079  17.718
69205W        W70070   8.199  19.071  16.956
69206W        W70071   8.169  18.419  16.066
69207W        W70072   9.790  19.261  16.758
69208W        W70073   8.588  20.432  14.958
69209W        W70074  10.586  20.374  16.457
69210W        W70075   7.913  21.132  17.880
69211W        W70076  10.300  21.814  15.677
69212W        W70077   8.399  18.834  16.122
69213W        W70078   8.168  20.327  16.212
69214W        W70079   8.481  21.738  16.962
69215W        W70080  10.548  21.834  17.994
69216W        W70081   9.707  20.022  16.927
69217W        W70082   7.556  19.820  14.842
69218W        W70083  10.690  21.478  15.539
69219W        W70084  10.527  18.802  15.158
69220W        W70085   8.666  18.321  17.561
69221W        W70086  10.372  21.123  16.019
69222W        W70087  10.401  19.679  15.924
69223W        W70088   8.518  19.352  16.140
69224W        W70089   8.763  19.614  17.464
69225W        W70090   9.874  20.767  17.327
69226W        W70091   8.524  19.221  17.439
69227W        W70092   8.503  21.687  16.055
69228W        W70093   7.820  21.646  17.689
69229W        W70094   7.932  21.007  14.819
69230W        W70095  10.449  20.765  15.629
69231W        W70096   8.053  19.557  17.515
69232W        W70097  10.826  19.487  14.996
69233W        W70098   8.571  20.544  15.467
69234W        W70099   9.670  19.926  17.548
69235W        W70100   9.561  19.554  17.092
69236W        W70101   8.121  19.926  17.121
69237W        W70102  10.331  21.814  16.950
69238W        W70103  10.122  18.448  17.944
69239W        W70104   7.786  18.598  17.531
69240W        W70105   8.125  19.621  16.584
69241W        W70106   8.494  19.435  14.706
69242W        W70107   7.297  21.194  17.251
69243W        W70108   8.882  19.903  16.694
69244W        W70109   8.705  18.928  14.799
69245W        W70110   7.840  19.744  15.580
69246W        W70111   7.611  21.596  17.017
69247W        W70112  10.406  19.822  15.125
69248W        W70113  10.501  18.738  17.811
69249W        W70114   9.937  20.947  15.774
69250W        W70115   7.535  19.871  17.951
69251W        W70116  10.501  18.335  15.247
69252W        W70117  10.021  20.810  15.258
69253W        W70118   8.923  19.868  15.343
69254W        W70119  10.110  18.672  14.866
69255W        W70120  10.175  19.279  17.052
69256W        W70121   7.884  19.872  16.259
69257W        W70122   8.178  20.811  15.908
69258W        W70123   9.941  19.431  15.873
69259W        W70124   8.964  18.810  16.569
69260W        W70125  10.926  20.721  17.080
69261W        W70126  10.844  18.708  16.641
69262W        W70127   7.383  21.538  16.017
69263W        W70128   7.892  20.725  15.553
69264W        W70129   7.807  18.342  18.106
69265W        W70130   8.926  21.195  18.208
69266W        W70131  10.681  20.163  15.998
69267W        W70132  10.035  20.340  14.878
69268W        W70133   9.330  21.861  17.090
69269W        W70134  10.187  20.583  18.127
69270W        W70135   9.002  18.293  15.407
69271W        W70136   9.715  19.162  16.266
69272W        W70137   7.401  20.749  16.598
69273W        W70138   8.654  18.711  15.239
69274W        W70139   8.458  20.195  18.088
69275W        W70140   9.452  19.176  15.802
69276W        W70141   9.657  20.586  16.924
69277W        W70142   7.811  21.191  17.359
69278W        W70143   8.402  21.174  18.082
69279W        W70144   8.253  18.971  15.096
69280W        W70145   9.770  19.113  15.421
69281W        W70146   9.728  21.221  17.658
69282W        W70147   8.413  19.813  16.257
69283W        W70148   8.068  21.511  17.122
69284W        W70149  10.813  21.628  14.723
69285W        W70150   7.676  20.300  17.719
69286W        W70151   9.671  20.562  16.407
69287W        W70152   8.107  20.211  15.649
69288W        W70153   8.478  21.218  17.044
69289W        W70154   8.856  18.637  16.085
69290W        W70155   7.467  20.621  15.015
69291W        W70156   8.986  19.572  14.885
69292W        W70157   7.632  20.121  15.904
69293W        W70158   8.922  18.763  17.368
69294W        W70159  10.594  18.472  14.795
69295W        W70160  10.687  20.218  17.894
69296W        W70161   9.341  21.475  18.046
69297W        W70162  10.899  20.569  17.568
69298W        W70163  10.307  21.367  18.179
69299W        W70164   8.046  21.823  16.657
69300W        W70165  10.905  20.445  15.531
69301W        W70166   9.435  19.712  16.044
69302W        W70167   9.202  18.324  15.934
69303W        W70168   8.261  21.308  15.771
69304W        W70169   8.760  19.049  16.996
69305W        W70170   8.460  18.418  16.465
69306W        W70171   7.523  21.240  15.013
69307W        W70172   9.339  20.604  15.731
69308W        W70173   8.214  21.399  17.610
69309W        W70174   7.691  20.222  15.306
69310W        W70175   7.576  18.765  16.305
69311W        W70176   9.124  20.730  16.362
69312W        W70177   7.376  18.584  15.382
69313W        W70178  10.040  19.790  17.309
69314W        W70179   9.917  19.176  14.881
69315W        W70180  10.434  20.848  16.529
69316W        W70181   9.095  21.332  16.360
69317W        W70182   8.507  21.436  15.271
69318W        W70183   9.789  18.339  14.701
69319W        W70184   7.589  21.599  16.442
69320W        W70185   9.786  19.357  18.077
69321W        W70186   7.769  18.887  18.076
69322W        W70187   7.500  19.487  15.409
69323W        W70188   8.191  19.476  15.134
69324W        W70189   9.954  19.803  17.951
69325W        W70190   8.297  20.084  16.660
69326W        W70191   9.771  18.370  15.780
69327W        W70192   8.902  21.801  16.283
69328W        W70193  10.116  21.263  17.220
69329W        W70194   9.700  21.412  16.331
69330W        W70195   9.719  20.392  15.925
69331W        W70196   9.181  18.617  14.996
69332W        W70197  10.862  18.245  15.718
69333W        W70198   8.550  19.880  14.881
69334W        W70199  10.716  19.217  15.871
69335W        W70200   9.408  20.387  14.748
69336W        W70201  10.344  20.587  17.496
69337W        W70202   9.998  21.288  14.963
69338W        W70203   8.613  18.963  17.869
69339W        W70204   8.433  19.547  17.110
69340W        W70205  10.525  21.042  17.387
69341W        W70206   9.625  18.992  17.764
69342W        W70207   7.469  19.463  17.541
69343W        W70208   9.229  19.940  17.267
69344W        W70209   7.586  20.698  15.924
69345W        W70210   7.733  19.995  16.814
69346W        W70211  10.050  20.281  17.164
69347W        W70212   9.822  21.661  17.975
69348W        W70213   9.718  19.400  17.528
69349W        W70214   9.995  21.454  15.933
69350W        W70215   8.997  21.174  17.256
69351W        W70216   8.482  21.529  16.525
69352W        W70217  10.287  20.700  16.944
69353W        W70218   9.337  20.772  18.081
69354W        W70219   7.942  20.725  16.420
69355W        W70220  10.288  20.484  16.065
69356W        W70221   9.929  21.550  16.816
69357W        W70222   7.907  21.279  16.686
69358W        W70223   8.928  19.331  17.896
69359W        W70224   9.379  21.497  15.407
69360W        W70225   8.687  20.752  18.045
69361W        W70226   8.813  20.990  15.422
69362W        W70227   8.034  19.730  14.681
69363W        W70228   7.373  21.816  21.580
69364W        W70229   7.749  20.709  21.103
69365W        W70230  10.454  20.439  18.873
69366W        W70231  10.584  21.524  20.900
69367W        W70232   8.502  21.515  18.426
69368W        W70233   8.585  19.667  19.409
69369W        W70234   8.100  19.515  19.573
69370W        W70235   9.091  20.330  19.007
69371W        W70236   8.766  21.422  21.362
69372W        W70237   7.415  18.983  21.325
69373W        W70238   8.177  18.263  21.127
69374W        W70239   9.871  18.651  20.014
69375W        W70240   9.520  19.522  18.584
69376W        W70241  10.090  18.956  21.675
69377W        W70242   7.456  18.748  20.800
69378W        W70243   7.555  21.367  21.821
69379W        W70244   9.077  20.757  18.553
69380W        W70245   7.509  19.540  20.246
69381W        W70246   8.402  19.431  21.483
69382W        W70247  10.861  19.290  19.982
69383W        W70248  10.625  20.333  20.841
69384W        W70249   8.933  19.666  19.868
69385W        W70250   9.479  21.005  20.237
69386W        W70251   7.979  20.439  20.469
69387W        W70252   7.338  19.967  20.040
69388W        W70253   8.374  19.939  21.232
69389W        W70254  10.645  19.722  21.486
69390W        W70255   8.261  21.166  19.931
69391W        W70256   9.382  20.855  21.065
69392W        W70257   8.602  19.495  20.290
69393W        W70258   8.894  20.279  19.933
69394W        W70259   9.891  21.052  21.781
69395W        W70260   8.970  20.372  21.791
69396W        W70261   8.951  20.088  21.269
69397W        W70262   7.360  19.479  21.791
69398W        W70263  10.192  21.014  21.390
69399W        W70264   7.773  18.596  19.388
69400W        W70265   8.300  20.854  20.387
69401W        W70266  10.763  20.637  19.677
69402W        W70267  10.176  19.037  20.244
69403W        W70268  10.461  18.990  18.339
69404W        W70269  10.926  19.791  20.645
69405W        W70270   8.893  21.498  20.398
69406W        W70271  10.667  20.964  18.836
69407W        W70272   7.796  21.750  18.590
69408W        W70273   8.189  21.796  19.266
69409W        W70274   7.986  18.550  20.692
69410W        W70275  10.609  19.568  20.967
69411W        W70276  10.014  19.990  19.426
69412W        W70277   9.980  19.678  18.453
69413W        W70278   9.188  20.822  20.593
69414W        W70279   8.994  19.152  19.792
69415W        W70280   9.594  21.239  20.786
69416W        W70281  10.465  20.030  19.208
69417W        W70282   9.367  18.688  19.224
69418W        W70283   8.024  21.382  18.907
69419W        W70284   7.395  18.881  19.506
69420W        W70285  10.181  19.488  19.980
69421W        W70286   7.639  21.105  19.895
69422W        W70287   8.980  21.455  18.765
69423W        W70288  10.372  19.481  18.229
69424W        W70289   7.395  21.239  20.393
69425W        W70290   8.186  20.811  20.873
69426W        W70291   8.559  20.171  19.492
69427W        W70292   8.581  18.576  20.585
69428W        W70293  10.810  18.338  19.882
69429W        W70294   8.029  20.210  18.350
69430W        W70295   7.684  19.243  18.529
69431W        W70296   7.746  21.199  19.323
69432W        W70297   8.877  20.682  19.571
69433W        W70298  10.209  21.541  21.285
69434W        W70299  10.518  21.581  19.741
69435W        W70300  10.195  19.434  21.339
69436W        W70301  10.908  21.090  19.473
69437W        W70302   9.535  20.382  20.957
69438W        W70303   7.301  19.933  19.163
69439W        W70304   8.412  20.348  20.736
69440W        W70305   9.616  19.612  19.114
69441W        W70306   9.493  20.102  19.218
69442W        W70307   7.836  19.522  20.692
69443W        W70308   7.821  19.398  21.614
69444W        W70309   7.711  18.315  19.773
69445W        W70310   9.479  18.662  20.334
69446W        W70311   9.127  18.847  21.497
69447W        W70312   9.482  18.996  18.675
69448W        W70313  10.665  21.389  21.429
69449W        W70314   9.632  18.470  21.468
69450W        W70315  10.651  20.771  21.590
69451W        W70316  10.081  18.938  21.186
69452W        W70317   9.881  18.876  19.456
69453W        W70318  10.274  20.010  21.860
69454W        W70319   8.014  21.586  19.846
69455W        W70320   8.672  19.303  18.832
69456W        W70321   8.241  18.587  21.496
69457W        W70322  10.293  19.071  19.177
69458W        W70323  10.660  19.553  19.122
69459W        W70324   8.403  21.770  21.593
69460W        W70325   8.329  18.306  18.828
69461W        W70326  10.650  18.840  19.863
69462W        W70327  10.800  21.089  18.308
69463W        W70328   7.707  20.292  20.010
69464W        W70329   9.624  18.879  18.240
69465W        W70330  10.758  21.211  19.960
69466W        W70331  10.797  18.405  20.710
69467W        W70332   9.242  19.617  21.264
69468W        W70333   9.335  20.956  18.967
69469W        W70334   9.735  20.250  21.707
69470W        W70335   9.409  18.227  20.016
69471W        W70336   8.021  19.130  20.079
69472W        W70337   7.575  20.330  20.853
69473W        W70338   9.434  21.523  19.559
69474W        W70339  10.628  19.120  20.431
69475W        W70340   9.265  21.467  21.198
69476W        W70341  10.608  20.526  18.403
69477W        W70342   9.043  20.009  19.464
69478W        W70343  10.895  18.520  21.205
69479W        W70344   9.044  20.355  20.799
69480W        W70345   9.261  19.241  20.244
69481W        W70346  10.113  19.539  19.082
69482W        W70347  10.400  19.272  18.724
69483W        W70348  10.209  21.312  19.113
69484W        W70349  10.043  20.915  19.909
69485W        W70350   9.939  19.994  18.887
69486W        W70351   9.372  20.204  19.873
69487W        W70352  10.253  19.992  19.940
69488W        W70353   7.628  19.007  20.364
69489W        W70354  10.406  20.059  21.191
69490W        W70355  10.757  21.677  20.337
69491W        W70356   8.687  21.121  19.739
69492W        W70357   9.694  21.654  21.063
69493W        W70358   9.688  18.984  20.827
69494W        W70359   8.895  21.692  20.888
69495W        W70360  10.592  18.646  19.354
69496W        W70361  10.383  19.965  20.655
69497W        W70362   7.366  19.286  20.693
69498W        W70363  10.226  19.081  19.711
69499W        W70364  10.637  19.232  21.488
69500W        W70365   9.522  20.931  19.706
69501W        W70366   8.778  21.522  19.319
69502W        W70367   7.893  18.702  18.577
69503W        W70368   8.997  18.356  20.387
69504W        W70369   8.025  21.476  18.235
69505W        W70370   8.399  19.942  18.986
69506W        W70371   9.053  20.571  21.299
69507W        W70372   8.883  18.929  19.289
69508W        W70373  10.239  18.526  19.717
69509W        W70374   9.959  21.808  20.045
69510W        W70375   9.371  21.456  20.385
69511W        W70376   8.767  20.493  20.346
69512W        W70377  10.537  21.216  20.472
69513W        W70378   8.231  18.719  19.241
69514W        W70379   8.753  21.016  20.201
69515W        W70380   8.236  18.947  18.266
69516W        W70381   9.037  19.556  20.660
69517W        W70382   9.885  18.422  20.530
69518W        W70383   7.305  20.265  20.415
69519W        W70384   9.009  20.083  18.573
69520W        W70385   8.277  18.398  18.343
69521W        W70386   9.015  19.479  19.394
69522W        W70387   9.985  18.455  21.093
69523W        W70388   8.573  20.467  21.202
69524W        W70389   9.377  20.249  21.419
69525W        W70390   9.994  20.279  21.312
69526W        W70391   9.278  18.419  21.817
69527W        W70392   8.500  19.035  20.210
69528W        W70393   7.926  18.991  19.608
69529W        W70394   7.712  21.703  19.284
69530W        W70395   9.044  21.033  21.409
69531W        W70396   8.079  20.518  18.768
69532W        W70397   9.759  19.903  19.989
69533W        W70398  10.039  19.702  20.388
69534W        W70399   9.244  20.376  20.322
69535W        W70400   9.714  20.750  18.454
69536W        W70401   9.386  18.771  19.782
69537W        W70402  10.865  19.049  19.050
69538W        W70403   7.359  21.638  21.081
69539W        W70404   7.776  20.864  20.613
69540W        W70405   7.343  21.710  18.845
69541W        W70406   9.242  18.980  20.651
69542W        W70407   8.605  21.003  18.500
69543W        W70408  10.510  21.385  18.686
69544W        W70409   9.485  20.038  18.700
69545W        W70410   8.328  19.229  19.217
69546W        W70411   9.160  19.139  18.269
69547W        W70412   9.744  20.704  21.447
69548W        W70413  10.097  18.610  19.064
69549W        W70414   7.427  18.458  18.512
69550W        W70415   8.713  20.777  20.802
69551W        W70416   8.512  20.693  19.894
69552W        W70417   8.254  20.645  18.292
69553W        W70418   7.495  20.886  19.060
69554W        W70419   7.999  19.956  21.502
69555W        W70420   8.703  18.516  21.688
69556W        W70421   9.412  18.658  21.044
69557W        W70422   8.607  18.426  19.325
69558W        W70423   9.666  18.503  18.830
69559W        W70424   7.611  18.435  20.407
69560W        W70425   7.659  19.398  19.777
69561W        W70426  10.348  18.506  20.183
69562W        W70427   7.770  19.004  18.997
69563W        W70428  10.341  18.692  20.613
69564W        W70429  10.737  19.895  18.298
69565W        W70430   8.029  18.653  20.117
69566W        W70431   9.143  19.225  21.057
69567W        W70432   7.291  18.915  18.535
69568W        W70433   8.077  20.304  21.096
69569W        W70434   9.435  19.702  20.275
69570W        W70435   9.302  21.781  18.571
69571W        W70436   7.448  20.288  18.268
69572W        W70437   8.183  20.699  21.394
69573W        W70438   7.704  19.866  21.025
69574W        W70439   8.695  19.971  20.819
69575W        W70440  10.463  18.330  21.081
69576W        W70441  10.861  19.940  21.072
69577W        W70442  10.849  20.140  18.758
69578W        W70443   9.712  20.472  18.857
69579W        W70444  10.186  21.772  18.552
69580W        W70445   9.363  19.762  21.694
69581W        W70446   7.693  20.729  21.734
69582W        W70447  10.899  18.651  21.686
69583W        W70448  10.617  19.579  20.307
69584W        W70449   8.925  21.709  21.784
69585W        W70450   8.780  18.338  18.511
69586W        W70451  10.319  20.937  18.454
69587W        W70452   8.088  19.030  21.340
69588W        W70453   8.522  21.024  21.202
69589W        W70454  10.648  19.015  21.000
69590W        W70455   9.859  21.674  18.968
69591W        W70456  10.098  20.293  20.335
69592W        W70457   8.348  18.709  21.002
69593W        W70458   8.817  19.778  21.759
69594W        W70459   8.320  20.957  18.953
69595W        W70460  10.075  20.455  19.217
69596W        W70461   7.843  19.081  20.941
69597W        W70462   9.172  21.143  19.405
69598W        W70463  10.922  19.703  19.586
69599W        W70464   9.144  18.336  21.305
69600W        W70465   9.924  21.041  20.384
69601W        W70466  10.227  21.385  20.092
69602W        W70467   9.446  21.187  18.520
69603W        W70468   7.456  21.079  21.362
69604W        W70469   8.199  19.071  20.600
69605W        W70470   8.169  18.419  19.710
69606W        W70471   9.790  19.261  20.402
69607W        W70472   8.588  20.432  18.602
69608W        W70473  10.586  20.374  20.101
69609W        W70474   7.913  21.132  21.524
69610W        W70475  10.300  21.814  19.321
69611W        W70476   8.399  18.834  19.766
69612W        W70477   8.168  20.327  19.856
69613W        W70478   8.481  21.738  20.606
69614W        W70479  10.548  21.834  21.638
69615W        W70480   9.707  20.022  20.571
69616W        W70481   7.556  19.820  18.486
69617W        W70482  10.690  21.478  19.183
69618W        W70483  10.527  18.802  18.802
69619W        W70484   8.666  18.321  21.205
69620W        W70485  10.372  21.123  19.663
69621W        W70486  10.401  19.679  19.568
69622W        W70487   8.518  19.352  19.784
69623W        W70488   8.763  19.614  21.108
69624W        W70489   9.874  20.767  20.971
69625W        W70490   8.524  19.221  21.083
69626W        W70491   8.503  21.687  19.699
69627W        W70492   7.820  21.646  21.333
69628W        W70493   7.932  21.007  18.463
69629W        W70494  10.449  20.765  19.273
69630W        W70495   8.053  19.557  21.159
69631W        W70496  10.826  19.487  18.640
69632W        W70497   8.571  20.544  19.111
69633W        W70498   9.670  19.926  21.192
69634W        W70499   9.561  19.554  20.736
69635W        W70500   8.121  19.926  20.765
69636W        W70501  10.331  21.814  20.594
69637W        W70502  10.122  18.448  21.588
69638W        W70503   7.786  18.598  21.175
69639W        W70504   8.125  19.621  20.228
69640W        W70505   8.494  19.435  18.350
69641W        W70506   7.297  21.194  20.895
69642W        W70507   8.882  19.903  20.338
69643W        W70508   8.705  18.928  18.443
69644W        W70509   7.840  19.744  19.224
69645W        W70510   7.611  21.596  20.661
69646W        W70511  10.406  19.822  18.769
69647W        W70512  10.501  18.738  21.455
69648W        W70513   9.937  20.947  19.418
69649W        W70514   7.535  19.871  21.595
69650W        W70515  10.501  18.335  18.891
69651W        W70516  10.021  20.810  18.902
69652W        W70517   8.923  19.868  18.987
69653W        W70518  10.110  18.672  18.510
69654W        W70519  10.175  19.279  20.696
69655W        W70520   7.884  19.872  19.903
69656W        W70521   8.178  20.811  19.552
69657W        W70522   9.941  19.431  19.517
69658W        W70523   8.964  18.810  20.213
69659W        W70524  10.926  20.721  20.724
69660W        W70525  10.844  18.708  20.285
69661W        W70526   7.383  21.538  19.661
69662W        W70527   7.892  20.725  19.197
69663W        W70528   7.807  18.342  21.750
69664W        W70529   8.926  21.195  21.852
69665W        W70530  10.681  20.163  19.642
69666W        W70531  10.035  20.340  18.522
69667W        W70532   9.330  21.861  20.734
69668W        W70533  10.187  20.583  21.771
69669W        W70534   9.002  18.293  19.051
69670W        W70535   9.715  19.162  19.910
69671W        W70536   7.401  20.749  20.242
69672W        W70537   8.654  18.711  18.883
69673W        W70538   8.458  20.195  21.732
69674W        W70539   9.452  19.176  19.446
69675W        W70540   9.657  20.586  20.568
69676W        W70541   7.811  21.191  21.003
69677W        W70542   8.402  21.174  21.726
69678W        W70543   8.253  18.971  18.740
69679W        W70544   9.770  19.113  19.065
69680W        W70545   9.728  21.221  21.302
69681W        W70546   8.413  19.813  19.901
69682W        W70547   8.068  21.511  20.766
69683W        W70548  10.813  21.628  18.367
69684W        W70549   7.676  20.300  21.363
69685W        W70550   9.671  20.562  20.051
69686W        W70551   8.107  20.211  19.293
69687W        W70552   8.478  21.218  20.688
69688W        W70553   8.856  18.637  19.729
69689W        W70554   7.467  20.621  18.659
69690W        W70555   8.986  19.572  18.529
69691W        W70556   7.632  20.121  19.548
69692W        W70557   8.922  18.763  21.012
69693W        W70558  10.594  18.472  18.439
69694W        W70559  10.687  20.218  21.538
69695W        W70560   9.341  21.475  21.690
69696W        W70561  10.899  20.569  21.212
69697W        W70562  10.307  21.367  21.823
69698W        W70563   8.046  21.823  20.301
69699W        W70564  10.905  20.445  19.175
69700W        W70565   9.435  19.712  19.688
69701W        W70566   9.202  18.324  19.578
69702W        W70567   8.261  21.308  19.415
69703W        W70568   8.760  19.049  20.640
69704W        W70569   8.460  18.418  20.109
69705W        W70570   7.523  21.240  18.657
69706W        W70571   9.339  20.604  19.375
69707W        W70572   8.214  21.399  21.254
69708W        W70573   7.691  20.222  18.950
69709W        W70574   7.576  18.765  19.949
69710W        W70575   9.124  20.730  20.006
69711W        W70576   7.376  18.584  19.026
69712W        W70577  10.040  19.790  20.953
69713W        W70578   9.917  19.176  18.525
69714W        W70579  10.434  20.848  20.173
69715W        W70580   9.095  21.332  20.004
69716W        W70581   8.507  21.436  18.915
69717W        W70582   9.789  18.339  18.345
69718W        W70583   7.589  21.599  20.086
69719W        W70584   9.786  19.357  21.721
69720W        W70585   7.769  18.887  21.720
69721W        W70586   7.500  19.487  19.053
69722W        W70587   8.191  19.476  18.778
69723W        W70588   9.954  19.803  21.595
69724W        W70589   8.297  20.084  20.304
69725W        W70590   9.771  18.370  19.424
69726W        W70591   8.902  21.801  19.927
69727W        W70592  10.116  21.263  20.864
69728W        W70593   9.700  21.412  19.975
69729W        W70594   9.719  20.392  19.569
69730W        W70595   9.181  18.617  18.640
69731W        W70596  10.862  18.245  19.362
69732W        W70597   8.550  19.880  18.525
69733W        W70598  10.716  19.217  19.515
69734W        W70599   9.408  20.387  18.392
69735W        W70600  10.344  20.587  21.140
69736W        W70601   9.998  21.288  18.607
69737W        W70602   8.613  18.963  21.513
69738W        W70603   8.433  19.547  20.754
69739W        W70604  10.525  21.042  21.031
69740W        W70605   9.625  18.992  21.408
69741W        W70606   7.469  19.463  21.185
69742W        W70607   9.229  19.940  20.911
69743W        W70608   7.586  20.698  19.568
69744W        W70609   7.733  19.995  20.458
69745W        W70610  10.050  20.281  20.808
69746W        W70611   9.822  21.661  21.619
69747W        W70612   9.718  19.400  21.172
69748W        W70613   9.995  21.454  19.577
69749W        W70614   8.997  21.174  20.900
69750W        W70615   8.482  21.529  20.169
69751W        W70616  10.287  20.700  20.588
69752W        W70617   9.337  20.772  21.725
69753W        W70618   7.942  20.725  20.064
69754W        W70619  10.288  20.484  19.709
69755W        W70620   9.929  21.550  20.460
69756W        W70621   7.907  21.279  20.330
69757W        W70622   8.928  19.331  21.540
69758W        W70623   9.379  21.497  19.051
69759W        W70624   8.687  20.752  21.689
69760W        W70625   8.813  20.990  19.066
69761W        W70626   8.034  19.730  18.325
69762W        W70627   7.373  21.816  25.225
69763W        W70628   7.749  20.709  24.748
69764W        W70629  10.454  20.439  22.518
69765W        W70630  10.584  21.524  24.545
69766W        W70631   8.502  21.515  22.071
69767W        W70632   8.585  19.667  23.054
69768W        W70633   8.100  19.515  23.218
69769W        W70634   9.091  20.330  22.652
69770W        W70635   8.766  21.422  25.007
69771W        W70636   7.415  18.983  24.970
69772W        W70637   8.177  18.263  24.772
69773W        W70638   9.871  18.651  23.659
69774W        W70639   9.520  19.522  22.229
69775W        W70640  10.090  18.956  25.320
69776W        W70641   7.456  18.748  24.445
69777W        W70642   7.555  21.367  25.466
69778W        W70643   9.077  20.757  22.198
69779W        W70644   7.509  19.540  23.891
69780W        W70645   8.402  19.431  25.128
69781W        W70646  10.861  19.290  23.627
69782W        W70647  10.625  20.333  24.486
69783W        W70648   8.933  19.666  23.513
69784W        W70649   9.479  21.005  23.882
69785W        W70650   7.979  20.439  24.114
69786W        W70651   7.338  19.967  23.685
69787W        W70652   8.374  19.939  24.877
69788W        W70653  10.645  19.722  25.131
69789W        W70654   8.261  21.166  23.576
69790W        W70655   9.382  20.855  24.710
69791W        W70656   8.602  19.495  23.935
69792W        W70657   8.894  20.279  23.578
69793W        W70658   9.891  21.052  25.426
69794W        W70659   8.970  20.372  25.436
69795W        W70660   8.951  20.088  24.914
69796W        W70661   7.360  19.479  25.436
69797W        W70662  10.192  21.014  25.035
69798W        W70663   7.773  18.596  23.033
69799W        W70664   8.300  20.854  24.032
69800W        W70665  10.763  20.637  23.322
69801W        W70666  10.176  19.037  23.889
69802W        W70667  10.461  18.990  21.984
69803W        W70668  10.926  19.791  24.290
69804W        W70669   8.893  21.498  24.043
69805W        W70670  10.667  20.964  22.481
69806W        W70671   7.796  21.750  22.235
69807W        W70672   8.189  21.796  22.911
69808W        W70673   7.986  18.550  24.337
69809W        W70674  10.609  19.568  24.612
69810W        W70675  10.014  19.990  23.071
69811W        W70676   9.980  19.678  22.098
69812W        W70677   9.188  20.822  24.238
69813W        W70678   8.994  19.152  23.437
69814W        W70679   9.594  21.239  24.431
69815W        W70680  10.465  20.030  22.853
69816W        W70681   9.367  18.688  22.869
69817W        W70682   8.024  21.382  22.552
69818W        W70683   7.395  18.881  23.151
69819W        W70684  10.181  19.488  23.625
69820W        W70685   7.639  21.105  23.540
69821W        W70686   8.980  21.455  22.410
69822W        W70687  10.372  19.481  21.874
69823W        W70688   7.395  21.239  24.038
69824W        W70689   8.186  20.811  24.518
69825W        W70690   8.559  20.171  23.137
69826W        W70691   8.581  18.576  24.230
69827W        W70692  10.810  18.338  23.527
69828W        W70693   8.029  20.210  21.995
69829W        W70694   7.684  19.243  22.174
69830W        W70695   7.746  21.199  22.968
69831W        W70696   8.877  20.682  23.216
69832W        W70697  10.209  21.541  24.930
69833W        W70698   9.135  19.183  22.614
69834W        W70699  10.518  21.581  23.386
69835W        W70700  10.195  19.434  24.984
69836W        W70701  10.908  21.090  23.118
69837W        W70702   9.535  20.382  24.602
69838W        W70703   7.301  19.933  22.808
69839W        W70704   8.412  20.348  24.381
69840W        W70705   9.616  19.612  22.759
69841W        W70706   9.493  20.102  22.863
69842W        W70707   7.836  19.522  24.337
69843W        W70708   7.821  19.398  25.259
69844W        W70709   7.711  18.315  23.418
69845W        W70710   9.479  18.662  23.979
69846W        W70711   9.127  18.847  25.142
69847W        W70712   9.482  18.996  22.320
69848W        W70713  10.665  21.389  25.074
69849W        W70714   9.632  18.470  25.113
69850W        W70715  10.651  20.771  25.235
69851W        W70716  10.081  18.938  24.831
69852W        W70717   9.881  18.876  23.101
69853W        W70718  10.274  20.010  25.505
69854W        W70719   8.014  21.586  23.491
69855W        W70720   8.672  19.303  22.477
69856W        W70721   8.241  18.587  25.141
69857W        W70722  10.293  19.071  22.822
69858W        W70723  10.660  19.553  22.767
69859W        W70724   8.403  21.770  25.238
69860W        W70725   8.329  18.306  22.473
69861W        W70726  10.650  18.840  23.508
69862W        W70727  10.800  21.089  21.953
69863W        W70728   7.707  20.292  23.655
69864W        W70729   9.624  18.879  21.885
69865W        W70730  10.758  21.211  23.605
69866W        W70731  10.797  18.405  24.355
69867W        W70732   9.242  19.617  24.909
69868W        W70733   9.335  20.956  22.612
69869W        W70734   9.735  20.250  25.352
69870W        W70735   9.409  18.227  23.661
69871W        W70736   8.021  19.130  23.724
69872W        W70737   7.575  20.330  24.498
69873W        W70738   9.434  21.523  23.204
69874W        W70739  10.628  19.120  24.076
69875W        W70740   9.265  21.467  24.843
69876W        W70741  10.608  20.526  22.048
69877W        W70742   9.043  20.009  23.109
69878W        W70743  10.895  18.520  24.850
69879W        W70744   9.044  20.355  24.444
69880W        W70745   9.261  19.241  23.889
69881W        W70746  10.113  19.539  22.727
69882W        W70747  10.400  19.272  22.369
69883W        W70748  10.209  21.312  22.758
69884W        W70749  10.043  20.915  23.554
69885W        W70750   9.939  19.994  22.532
69886W        W70751   9.372  20.204  23.518
69887W        W70752  10.253  19.992  23.585
69888W        W70753   7.628  19.007  24.009
69889W        W70754  10.406  20.059  24.836
69890W        W70755  10.757  21.677  23.982
69891W        W70756   8.687  21.121  23.384
69892W        W70757   9.694  21.654  24.708
69893W        W70758   9.688  18.984  24.472
69894W        W70759   8.895  21.692  24.533
69895W        W70760  10.592  18.646  22.999
69896W        W70761  10.383  19.965  24.300
69897W        W70762   7.366  19.286  24.338
69898W        W70763  10.226  19.081  23.356
69899W        W70764  10.637  19.232  25.133
69900W        W70765   9.522  20.931  23.351
69901W        W70766   8.778  21.522  22.964
69902W        W70767   7.893  18.702  22.222
69903W        W70768   8.997  18.356  24.032
69904W        W70769   8.025  21.476  21.880
69905W        W70770   8.399  19.942  22.631
69906W        W70771   9.053  20.571  24.944
69907W        W70772   8.883  18.929  22.934
69908W        W70773  10.239  18.526  23.362
69909W        W70774   9.959  21.808  23.690
69910W        W70775   9.371  21.456  24.030
69911W        W70776   8.767  20.493  23.991
69912W        W70777  10.537  21.216  24.117
69913W        W70778   8.231  18.719  22.886
69914W        W70779   8.753  21.016  23.846
69915W        W70780   8.236  18.947  21.911
69916W        W70781   9.037  19.556  24.305
69917W        W70782   9.885  18.422  24.175
69918W        W70783   7.305  20.265  24.060
69919W        W70784   9.009  20.083  22.218
69920W        W70785   8.277  18.398  21.988
69921W        W70786   9.015  19.479  23.039
69922W        W70787   9.985  18.455  24.738
69923W        W70788   8.573  20.467  24.847
69924W        W70789   9.377  20.249  25.064
69925W        W70790   9.994  20.279  24.957
69926W        W70791   9.278  18.419  25.462
69927W        W70792   8.500  19.035  23.855
69928W        W70793   7.926  18.991  23.253
69929W        W70794   7.712  21.703  22.929
69930W        W70795   9.044  21.033  25.054
69931W        W70796   8.079  20.518  22.413
69932W        W70797   9.759  19.903  23.634
69933W        W70798  10.039  19.702  24.033
69934W        W70799   9.244  20.376  23.967
69935W        W70800   9.714  20.750  22.099
69936W        W70801   9.386  18.771  23.427
69937W        W70802  10.865  19.049  22.695
69938W        W70803   7.359  21.638  24.726
69939W        W70804   7.776  20.864  24.258
69940W        W70805   7.343  21.710  22.490
69941W        W70806   9.242  18.980  24.296
69942W        W70807   8.605  21.003  22.145
69943W        W70808  10.510  21.385  22.331
69944W        W70809   9.485  20.038  22.345
69945W        W70810   8.328  19.229  22.862
69946W        W70811   9.160  19.139  21.914
69947W        W70812   9.744  20.704  25.092
69948W        W70813  10.097  18.610  22.709
69949W        W70814   7.427  18.458  22.157
69950W        W70815   8.713  20.777  24.447
69951W        W70816   8.512  20.693  23.539
69952W        W70817   8.254  20.645  21.937
69953W        W70818   7.495  20.886  22.705
69954W        W70819   7.999  19.956  25.147
69955W        W70820   8.703  18.516  25.333
69956W        W70821   9.412  18.658  24.689
69957W        W70822   8.607  18.426  22.970
69958W        W70823   9.666  18.503  22.475
69959W        W70824   7.611  18.435  24.052
69960W        W70825   7.659  19.398  23.422
69961W        W70826  10.348  18.506  23.828
69962W        W70827   7.770  19.004  22.642
69963W        W70828  10.341  18.692  24.258
69964W        W70829  10.737  19.895  21.943
69965W        W70830   8.029  18.653  23.762
69966W        W70831   9.143  19.225  24.702
69967W        W70832   7.291  18.915  22.180
69968W        W70833   8.077  20.304  24.741
69969W        W70834   9.435  19.702  23.920
69970W        W70835   9.302  21.781  22.216
69971W        W70836   7.448  20.288  21.913
69972W        W70837   8.183  20.699  25.039
69973W        W70838   7.704  19.866  24.670
69974W        W70839   8.695  19.971  24.464
69975W        W70840  10.463  18.330  24.726
69976W        W70841  10.861  19.940  24.717
69977W        W70842  10.849  20.140  22.403
69978W        W70843   9.712  20.472  22.502
69979W        W70844  10.186  21.772  22.197
69980W        W70845   9.363  19.762  25.339
69981W        W70846   7.693  20.729  25.379
69982W        W70847  10.899  18.651  25.331
69983W        W70848  10.617  19.579  23.952
69984W        W70849   8.925  21.709  25.429
69985W        W70850   8.780  18.338  22.156
69986W        W70851  10.319  20.937  22.099
69987W        W70852   8.088  19.030  24.985
69988W        W70853   8.522  21.024  24.847
69989W        W70854  10.648  19.015  24.645
69990W        W70855   9.859  21.674  22.613
69991W        W70856  10.098  20.293  23.980
69992W        W70857   8.348  18.709  24.647
69993W        W70858   8.817  19.778  25.404
69994W        W70859   8.320  20.957  22.598
69995W        W70860  10.075  20.455  22.862
69996W        W70861   7.843  19.081  24.586
69997W        W70862   9.172  21.143  23.050
69998W        W70863  10.922  19.703  23.231
69999W        W70864   9.144  18.336  24.950
70000W        W70865   9.924  21.041  24.029
70001W        W70866  10.227  21.385  23.737
70002W        W70867   9.446  21.187  22.165
70003W        W70868   7.456  21.079  25.007
70004W        W70869   8.199  19.071  24.245
70005W        W70870   8.169  18.419  23.355
70006W        W70871   9.790  19.261  24.047
70007W        W70872   8.588  20.432  22.247
70008W        W70873  10.586  20.374  23.746
70009W        W70874   7.913  21.132  25.169
70010W        W70875  10.300  21.814  22.966
70011W        W70876   8.399  18.834  23.411
70012W        W70877   8.168  20.327  23.501
70013W        W70878   8.481  21.738  24.251
70014W        W70879  10.548  21.834  25.283
70015W        W70880   9.707  20.022  24.216
70016W        W70881   7.556  19.820  22.131
70017W        W70882  10.690  21.478  22.828
70018W        W70883  10.527  18.802  22.447
70019W        W70884   8.666  18.321  24.850
70020W        W70885  10.372  21.123  23.308
70021W        W70886  10.401  19.679  23.213
70022W        W70887   8.518  19.352  23.429
70023W        W70888   8.763  19.614  24.753
70024W        W70889   9.874  20.767  24.616
70025W        W70890   8.524  19.221  24.728
70026W        W70891   8.503  21.687  23.344
70027W        W70892   7.820  21.646  24.978
70028W        W70893   7.932  21.007  22.108
70029W        W70894  10.449  20.765  22.918
70030W        W70895   8.053  19.557  24.804
70031W        W70896  10.826  19.487  22.285
70032W        W70897   8.571  20.544  22.756
70033W        W70898   9.670  19.926  24.837
70034W        W70899   9.561  19.554  24.381
70035W        W70900   8.121  19.926  24.410
70036W        W70901  10.331  21.814  24.239
70037W        W70902  10.122  18.448  25.233
70038W        W70903   7.786  18.598  24.820
70039W        W70904   8.125  19.621  23.873
70040W        W70905   8.494  19.435  21.995
70041W        W70906   7.297  21.194  24.540
70042W        W70907   8.882  19.903  23.983
70043W        W70908   8.705  18.928  22.088
70044W        W70909   7.840  19.744  22.869
70045W        W70910   7.611  21.596  24.306
70046W        W70911  10.406  19.822  22.414
70047W        W70912  10.501  18.738  25.100
70048W        W70913   9.937  20.947  23.063
70049W        W70914   7.535  19.871  25.240
70050W        W70915  10.501  18.335  22.536
70051W        W70916  10.021  20.810  22.547
70052W        W70917   8.923  19.868  22.632
70053W        W70918  10.110  18.672  22.155
70054W        W70919  10.175  19.279  24.341
70055W        W70920   7.884  19.872  23.548
70056W        W70921   8.178  20.811  23.197
70057W        W70922   9.941  19.431  23.162
70058W        W70923   8.964  18.810  23.858
70059W        W70924  10.926  20.721  24.369
70060W        W70925  10.844  18.708  23.930
70061W        W70926   7.383  21.538  23.306
70062W        W70927   7.892  20.725  22.842
70063W        W70928   7.807  18.342  25.395
70064W        W70929   8.926  21.195  25.497
70065W        W70930  10.681  20.163  23.287
70066W        W70931  10.035  20.340  22.167
70067W        W70932   9.330  21.861  24.379
70068W        W70933  10.187  20.583  25.416
70069W        W70934   9.002  18.293  22.696
70070W        W70935   9.715  19.162  23.555
70071W        W70936   7.401  20.749  23.887
70072W        W70937   8.654  18.711  22.528
70073W        W70938   8.458  20.195  25.377
70074W        W70939   9.452  19.176  23.091
70075W        W70940   9.657  20.586  24.213
70076W        W70941   7.811  21.191  24.648
70077W        W70942   8.402  21.174  25.371
70078W        W70943   8.253  18.971  22.385
70079W        W70944   9.770  19.113  22.710
70080W        W70945   9.728  21.221  24.947
70081W        W70946   8.413  19.813  23.546
70082W        W70947   8.068  21.511  24.411
70083W        W70948  10.813  21.628  22.012
70084W        W70949   7.676  20.300  25.008
70085W        W70950   9.671  20.562  23.696
70086W        W70951   8.107  20.211  22.938
70087W        W70952   8.478  21.218  24.333
70088W        W70953   8.856  18.637  23.374
70089W        W70954   7.467  20.621  22.304
70090W        W70955   8.986  19.572  22.174
70091W        W70956   7.632  20.121  23.193
70092W        W70957   8.922  18.763  24.657
70093W        W70958  10.594  18.472  22.084
70094W        W70959  10.687  20.218  25.183
70095W        W70960   9.341  21.475  25.335
70096W        W70961  10.899  20.569  24.857
70097W        W70962  10.307  21.367  25.468
70098W        W70963   8.046  21.823  23.946
70099W        W70964  10.905  20.445  22.820
70100W        W70965   9.435  19.712  23.333
70101W        W70966   9.202  18.324  23.223
70102W        W70967   8.261  21.308  23.060
70103W        W70968   8.760  19.049  24.285
70104W        W70969   8.460  18.418  23.754
70105W        W70970   7.523  21.240  22.302
70106W        W70971   9.339  20.604  23.020
70107W        W70972   8.214  21.399  24.899
70108W        W70973   7.691  20.222  22.595
70109W        W70974   7.576  18.765  23.594
70110W        W70975   9.124  20.730  23.651
70111W        W70976   7.376  18.584  22.671
70112W        W70977  10.040  19.790  24.598
70113W        W70978   9.917  19.176  22.170
70114W        W70979  10.434  20.848  23.818
70115W        W70980   9.095  21.332  23.649
70116W        W70981   8.507  21.436  22.560
70117W        W70982   9.789  18.339  21.990
70118W        W70983   7.589  21.599  23.731
70119W        W70984   9.786  19.357  25.366
70120W        W70985   7.769  18.887  25.365
70121W        W70986   7.500  19.487  22.698
70122W        W70987   8.191  19.476  22.423
70123W        W70988   9.954  19.803  25.240
70124W        W70989   8.297  20.084  23.949
70125W        W70990   9.771  18.370  23.069
70126W        W70991   8.902  21.801  23.572
70127W        W70992  10.116  21.263  24.509
70128W        W70993   9.700  21.412  23.620
70129W        W70994   9.719  20.392  23.214
70130W        W70995   9.181  18.617  22.285
70131W        W70996  10.862  18.245  23.007
70132W        W70997   8.550  19.880  22.170
70133W        W70998  10.716  19.217  23.160
70134W        W70999   9.408  20.387  22.037
70135W        W71000  10.344  20.587  24.785
70136W        W71001   9.998  21.288  22.252
70137W        W71002   8.613  18.963  25.158
70138W        W71003   8.433  19.547  24.399
70139W        W71004  10.525  21.042  24.676
70140W        W71005   9.625  18.992  25.053
70141W        W71006   7.469  19.463  24.830
70142W        W71007   9.229  19.940  24.556
70143W        W71008   7.586  20.698  23.213
70144W        W71009   7.733  19.995  24.103
70145W        W71010  10.050  20.281  24.453
70146W        W71011   9.822  21.661  25.264
70147W        W71012   9.718  19.400  24.817
70148W        W71013   9.995  21.454  23.222
70149W        W71014   8.997  21.174  24.545
70150W        W71015   8.482  21.529  23.814
70151W        W71016  10.287  20.700  24.233
70152W        W71017   9.337  20.772  25.370
70153W        W71018   7.942  20.725  23.709
70154W        W71019  10.288  20.484  23.354
70155W        W71020   9.929  21.550  24.105
70156W        W71021   7.907  21.279  23.975
70157W        W71022   8.928  19.331  25.185
70158W        W71023   9.379  21.497  22.696
70159W        W71024   8.687  20.752  25.334
70160W        W71025   8.813  20.990  22.711
70161W        W71026   8.034  19.730  21.970
70162W        W71027   7.373  21.816  28.869
70163W        W71028   7.749  20.709  28.392
70164W        W71029  10.454  20.439  26.162
70165W        W71030  10.584  21.524  28.189
70166W        W71031   8.502  21.515  25.715
70167W        W71032   8.585  19.667  26.698
70168W        W71033   8.100  19.515  26.862
70169W        W71034   9.091  20.330  26.296
70170W        W71035   8.766  21.422  28.651
70171W        W71036   7.415  18.983  28.614
70172W        W71037   8.177  18.263  28.416
70173W        W71038   9.871  18.651  27.303
70174W        W71039   9.520  19.522  25.873
70175W        W71040  10.090  18.956  28.964
70176W        W71041   7.456  18.748  28.089
70177W        W71042   7.555  21.367  29.110
70178W        W71043   9.077  20.757  25.842
70179W        W71044   7.509  19.540  27.535
70180W        W71045   8.402  19.431  28.772
70181W        W71046  10.861  19.290  27.271
70182W        W71047  10.625  20.333  28.130
70183W        W71048   8.933  19.666  27.157
70184W        W71049   9.479  21.005  27.526
70185W        W71050   7.979  20.439  27.758
70186W        W71051   7.338  19.967  27.329
70187W        W71052   8.374  19.939  28.521
70188W        W71053  10.645  19.722  28.775
70189W        W71054   8.261  21.166  27.220
70190W        W71055   9.382  20.855  28.354
70191W        W71056   8.602  19.495  27.579
70192W        W71057   8.894  20.279  27.222
70193W        W71058   9.891  21.052  29.070
70194W        W71059   8.970  20.372  29.080
70195W        W71060   8.951  20.088  28.558
70196W        W71061   7.360  19.479  29.080
70197W        W71062  10.192  21.014  28.679
70198W        W71063   7.773  18.596  26.677
70199W        W71064   8.300  20.854  27.676
70200W        W71065  10.763  20.637  26.966
70201W        W71066  10.176  19.037  27.533
70202W        W71067  10.461  18.990  25.628
70203W        W71068  10.926  19.791  27.934
70204W        W71069   8.893  21.498  27.687
70205W        W71070  10.667  20.964  26.125
70206W        W71071   7.796  21.750  25.879
70207W        W71072   8.189  21.796  26.555
70208W        W71073   7.986  18.550  27.981
70209W        W71074  10.609  19.568  28.256
70210W        W71075  10.014  19.990  26.715
70211W        W71076   9.980  19.678  25.742
70212W        W71077   9.188  20.822  27.882
70213W        W71078   8.994  19.152  27.081
70214W        W71079   9.594  21.239  28.075
70215W        W71080  10.465  20.030  26.497
70216W        W71081   9.367  18.688  26.513
70217W        W71082   8.024  21.382  26.196
70218W        W71083   7.395  18.881  26.795
70219W        W71084  10.181  19.488  27.269
70220W        W71085   7.639  21.105  27.184
70221W        W71086   8.980  21.455  26.054
70222W        W71087  10.372  19.481  25.518
70223W        W71088   7.395  21.239  27.682
70224W        W71089   8.186  20.811  28.162
70225W        W71090   8.559  20.171  26.781
70226W        W71091   8.581  18.576  27.874
70227W        W71092  10.810  18.338  27.171
70228W        W71093   8.029  20.210  25.639
70229W        W71094   7.684  19.243  25.818
70230W        W71095   7.746  21.199  26.612
70231W        W71096   8.877  20.682  26.860
70232W        W71097  10.209  21.541  28.574
70233W        W71098   9.135  19.183  26.258
70234W        W71099  10.518  21.581  27.030
70235W        W71100  10.195  19.434  28.628
70236W        W71101  10.908  21.090  26.762
70237W        W71102   9.535  20.382  28.246
70238W        W71103   7.301  19.933  26.452
70239W        W71104   8.412  20.348  28.025
70240W        W71105   9.616  19.612  26.403
70241W        W71106   9.493  20.102  26.507
70242W        W71107   7.836  19.522  27.981
70243W        W71108   7.821  19.398  28.903
70244W        W71109   7.711  18.315  27.062
70245W        W71110   9.479  18.662  27.623
70246W        W71111   9.127  18.847  28.786
70247W        W71112   9.482  18.996  25.964
70248W        W71113  10.665  21.389  28.718
70249W        W71114   9.632  18.470  28.757
70250W        W71115  10.651  20.771  28.879
70251W        W71116  10.081  18.938  28.475
70252W        W71117   9.881  18.876  26.745
70253W        W71118  10.274  20.010  29.149
70254W        W71119   8.014  21.586  27.135
70255W        W71120   8.672  19.303  26.121
70256W        W71121   8.241  18.587  28.785
70257W        W71122  10.293  19.071  26.466
70258W        W71123  10.660  19.553  26.411
70259W        W71124   8.403  21.770  28.882
70260W        W71125   8.329  18.306  26.117
70261W        W71126  10.650  18.840  27.152
70262W        W71127  10.800  21.089  25.597
70263W        W71128   7.707  20.292  27.299
70264W        W71129   9.624  18.879  25.529
70265W        W71130  10.758  21.211  27.249
70266W        W71131  10.797  18.405  27.999
70267W        W71132   9.242  19.617  28.553
70268W        W71133   9.335  20.956  26.256
70269W        W71134   9.735  20.250  28.996
70270W        W71135   9.409  18.227  27.305
70271W        W71136   8.021  19.130  27.368
70272W        W71137   7.575  20.330  28.142
70273W        W71138   9.434  21.523  26.848
70274W        W71139  10.628  19.120  27.720
70275W        W71140   9.265  21.467  28.487
70276W        W71141  10.608  20.526  25.692
70277W        W71142   9.043  20.009  26.753
70278W        W71143  10.895  18.520  28.494
70279W        W71144   9.044  20.355  28.088
70280W        W71145   9.261  19.241  27.533
70281W        W71146  10.113  19.539  26.371
70282W        W71147  10.400  19.272  26.013
70283W        W71148  10.209  21.312  26.402
70284W        W71149  10.043  20.915  27.198
70285W        W71150   9.939  19.994  26.176
70286W        W71151   9.372  20.204  27.162
70287W        W71152  10.253  19.992  27.229
70288W        W71153   7.628  19.007  27.653
70289W        W71154  10.406  20.059  28.480
70290W        W71155  10.757  21.677  27.626
70291W        W71156   8.687  21.121  27.028
70292W        W71157   9.694  21.654  28.352
70293W        W71158   9.688  18.984  28.116
70294W        W71159   8.895  21.692  28.177
70295W        W71160  10.592  18.646  26.643
70296W        W71161  10.383  19.965  27.944
70297W        W71162   7.366  19.286  27.982
70298W        W71163  10.226  19.081  27.000
70299W        W71164  10.637  19.232  28.777
70300W        W71165   9.522  20.931  26.995
70301W        W71166   8.778  21.522  26.608
70302W        W71167   7.893  18.702  25.866
70303W        W71168   8.997  18.356  27.676
70304W        W71169   8.025  21.476  25.524
70305W        W71170   8.399  19.942  26.275
70306W        W71171   9.053  20.571  28.588
70307W        W71172   8.883  18.929  26.578
70308W        W71173  10.239  18.526  27.006
70309W        W71174   9.959  21.808  27.334
70310W        W71175   9.371  21.456  27.674
70311W        W71176   8.767  20.493  27.635
70312W        W71177  10.537  21.216  27.761
70313W        W71178   8.231  18.719  26.530
70314W        W71179   8.753  21.016  27.490
70315W        W71180   8.236  18.947  25.555
70316W        W71181   9.037  19.556  27.949
70317W        W71182   9.885  18.422  27.819
70318W        W71183   7.305  20.265  27.704
70319W        W71184   9.009  20.083  25.862
70320W        W71185   8.277  18.398  25.632
70321W        W71186   9.015  19.479  26.683
70322W        W71187   9.985  18.455  28.382
70323W        W71188   8.573  20.467  28.491
70324W        W71189   9.377  20.249  28.708
70325W        W71190   9.994  20.279  28.601
70326W        W71191   9.278  18.419  29.106
70327W        W71192   8.500  19.035  27.499
70328W        W71193   7.926  18.991  26.897
70329W        W71194   7.712  21.703  26.573
70330W        W71195   9.044  21.033  28.698
70331W        W71196   8.079  20.518  26.057
70332W        W71197   9.759  19.903  27.278
70333W        W71198  10.039  19.702  27.677
70334W        W71199   9.244  20.376  27.611
70335W        W71200   9.714  20.750  25.743
70336W        W71201   9.386  18.771  27.071
70337W        W71202  10.865  19.049  26.339
70338W        W71203   7.359  21.638  28.370
70339W        W71204   7.776  20.864  27.902
70340W        W71205   7.343  21.710  26.134
70341W        W71206   9.242  18.980  27.940
70342W        W71207   8.605  21.003  25.789
70343W        W71208  10.510  21.385  25.975
70344W        W71209   9.485  20.038  25.989
70345W        W71210   8.328  19.229  26.506
70346W        W71211   9.160  19.139  25.558
70347W        W71212   9.744  20.704  28.736
70348W        W71213  10.097  18.610  26.353
70349W        W71214   7.427  18.458  25.801
70350W        W71215   8.713  20.777  28.091
70351W        W71216   8.512  20.693  27.183
70352W        W71217   8.254  20.645  25.581
70353W        W71218   7.495  20.886  26.349
70354W        W71219   7.999  19.956  28.791
70355W        W71220   8.703  18.516  28.977
70356W        W71221   9.412  18.658  28.333
70357W        W71222   8.607  18.426  26.614
70358W        W71223   9.666  18.503  26.119
70359W        W71224   7.611  18.435  27.696
70360W        W71225   7.659  19.398  27.066
70361W        W71226  10.348  18.506  27.472
70362W        W71227   7.770  19.004  26.286
70363W        W71228  10.341  18.692  27.902
70364W        W71229  10.737  19.895  25.587
70365W        W71230   8.029  18.653  27.406
70366W        W71231   9.143  19.225  28.346
70367W        W71232   7.291  18.915  25.824
70368W        W71233   8.077  20.304  28.385
70369W        W71234   9.435  19.702  27.564
70370W        W71235   9.302  21.781  25.860
70371W        W71236   7.448  20.288  25.557
70372W        W71237   8.183  20.699  28.683
70373W        W71238   7.704  19.866  28.314
70374W        W71239   8.695  19.971  28.108
70375W        W71240  10.463  18.330  28.370
70376W        W71241  10.861  19.940  28.361
70377W        W71242  10.849  20.140  26.047
70378W        W71243   9.712  20.472  26.146
70379W        W71244  10.186  21.772  25.841
70380W        W71245   9.363  19.762  28.983
70381W        W71246   7.693  20.729  29.023
70382W        W71247  10.899  18.651  28.975
70383W        W71248  10.617  19.579  27.596
70384W        W71249   8.925  21.709  29.073
70385W        W71250   8.780  18.338  25.800
70386W        W71251  10.319  20.937  25.743
70387W        W71252   8.088  19.030  28.629
70388W        W71253   8.522  21.024  28.491
70389W        W71254  10.648  19.015  28.289
70390W        W71255   9.859  21.674  26.257
70391W        W71256  10.098  20.293  27.624
70392W        W71257   8.348  18.709  28.291
70393W        W71258   8.817  19.778  29.048
70394W        W71259   8.320  20.957  26.242
70395W        W71260  10.075  20.455  26.506
70396W        W71261   7.843  19.081  28.230
70397W        W71262   9.172  21.143  26.694
70398W        W71263  10.922  19.703  26.875
70399W        W71264   9.144  18.336  28.594
70400W        W71265   9.924  21.041  27.673
70401W        W71266  10.227  21.385  27.381
70402W        W71267   9.446  21.187  25.809
70403W        W71268   7.456  21.079  28.651
70404W        W71269   8.199  19.071  27.889
70405W        W71270   8.169  18.419  26.999
70406W        W71271   9.790  19.261  27.691
70407W        W71272   8.588  20.432  25.891
70408W        W71273  10.586  20.374  27.390
70409W        W71274   7.913  21.132  28.813
70410W        W71275  10.300  21.814  26.610
70411W        W71276   8.399  18.834  27.055
70412W        W71277   8.168  20.327  27.145
70413W        W71278   8.481  21.738  27.895
70414W        W71279  10.548  21.834  28.927
70415W        W71280   9.707  20.022  27.860
70416W        W71281   7.556  19.820  25.775
70417W        W71282  10.690  21.478  26.472
70418W        W71283  10.527  18.802  26.091
70419W        W71284   8.666  18.321  28.494
70420W        W71285  10.372  21.123  26.952
70421W        W71286  10.401  19.679  26.857
70422W        W71287   8.518  19.352  27.073
70423W        W71288   8.763  19.614  28.397
70424W        W71289   9.874  20.767  28.260
70425W        W71290   8.524  19.221  28.372
70426W        W71291   8.503  21.687  26.988
70427W        W71292   7.820  21.646  28.622
70428W        W71293   7.932  21.007  25.752
70429W        W71294  10.449  20.765  26.562
70430W        W71295   8.053  19.557  28.448
70431W        W71296  10.826  19.487  25.929
70432W        W71297   8.571  20.544  26.400
70433W        W71298   9.670  19.926  28.481
70434W        W71299   9.561  19.554  28.025
70435W        W71300   8.121  19.926  28.054
70436W        W71301  10.331  21.814  27.883
70437W        W71302  10.122  18.448  28.877
70438W        W71303   7.786  18.598  28.464
70439W        W71304   8.125  19.621  27.517
70440W        W71305   8.494  19.435  25.639
70441W        W71306   7.297  21.194  28.184
70442W        W71307   8.882  19.903  27.627
70443W        W71308   8.705  18.928  25.732
70444W        W71309   7.840  19.744  26.513
70445W        W71310   7.611  21.596  27.950
70446W        W71311  10.406  19.822  26.058
70447W        W71312  10.501  18.738  28.744
70448W        W71313   9.937  20.947  26.707
70449W        W71314   7.535  19.871  28.884
70450W        W71315  10.501  18.335  26.180
70451W        W71316  10.021  20.810  26.191
70452W        W71317   8.923  19.868  26.276
70453W        W71318  10.110  18.672  25.799
70454W        W71319  10.175  19.279  27.985
70455W        W71320   7.884  19.872  27.192
70456W        W71321   8.178  20.811  26.841
70457W        W71322   9.941  19.431  26.806
70458W        W71323   8.964  18.810  27.502
70459W        W71324  10.926  20.721  28.013
70460W        W71325  10.844  18.708  27.574
70461W        W71326   7.383  21.538  26.950
70462W        W71327   7.892  20.725  26.486
70463W        W71328   7.807  18.342  29.039
70464W        W71329   8.926  21.195  29.141
70465W        W71330  10.681  20.163  26.931
70466W        W71331  10.035  20.340  25.811
70467W        W71332   9.330  21.861  28.023
70468W        W71333  10.187  20.583  29.060
70469W        W71334   9.002  18.293  26.340
70470W        W71335   9.715  19.162  27.199
70471W        W71336   7.401  20.749  27.531
70472W        W71337   8.654  18.711  26.172
70473W        W71338   8.458  20.195  29.021
70474W        W71339   9.452  19.176  26.735
70475W        W71340   9.657  20.586  27.857
70476W        W71341   7.811  21.191  28.292
70477W        W71342   8.402  21.174  29.015
70478W        W71343   8.253  18.971  26.029
70479W        W71344   9.770  19.113  26.354
70480W        W71345   9.728  21.221  28.591
70481W        W71346   8.413  19.813  27.190
70482W        W71347   8.068  21.511  28.055
70483W        W71348  10.813  21.628  25.656
70484W        W71349   7.676  20.300  28.652
70485W        W71350   9.671  20.562  27.340
70486W        W71351   8.107  20.211  26.582
70487W        W71352   8.478  21.218  27.977
70488W        W71353   8.856  18.637  27.018
70489W        W71354   7.467  20.621  25.948
70490W        W71355   8.986  19.572  25.818
70491W        W71356   7.632  20.121  26.837
70492W        W71357   8.922  18.763  28.301
70493W        W71358  10.594  18.472  25.728
70494W        W71359  10.687  20.218  28.827
70495W        W71360   9.341  21.475  28.979
70496W        W71361  10.899  20.569  28.501
70497W        W71362  10.307  21.367  29.112
70498W        W71363   8.046  21.823  27.590
70499W        W71364  10.905  20.445  26.464
70500W        W71365   9.435  19.712  26.977
70501W        W71366   9.202  18.324  26.867
70502W        W71367   8.261  21.308  26.704
70503W        W71368   8.760  19.049  27.929
70504W        W71369   8.460  18.418  27.398
70505W        W71370   7.523  21.240  25.946
70506W        W71371   9.339  20.604  26.664
70507W        W71372   8.214  21.399  28.543
70508W        W71373   7.691  20.222  26.239
70509W        W71374   7.576  18.765  27.238
70510W        W71375   9.124  20.730  27.295
70511W        W71376   7.376  18.584  26.315
70512W        W71377  10.040  19.790  28.242
70513W        W71378   9.917  19.176  25.814
70514W        W71379  10.434  20.848  27.462
70515W        W71380   9.095  21.332  27.293
70516W        W71381   8.507  21.436  26.204
70517W        W71382   9.789  18.339  25.634
70518W        W71383   7.589  21.599  27.375
70519W        W71384   9.786  19.357  29.010
70520W        W71385   7.769  18.887  29.009
70521W        W71386   7.500  19.487  26.342
70522W        W71387   8.191  19.476  26.067
70523W        W71388   9.954  19.803  28.884
70524W        W71389   8.297  20.084  27.593
70525W        W71390   9.771  18.370  26.713
70526W        W71391   8.902  21.801  27.216
70527W        W71392  10.116  21.263  28.153
70528W        W71393   9.700  21.412  27.264
70529W        W71394   9.719  20.392  26.858
70530W        W71395   9.181  18.617  25.929
70531W        W71396  10.862  18.245  26.651
70532W        W71397   8.550  19.880  25.814
70533W        W71398  10.716  19.217  26.804
70534W        W71399   9.408  20.387  25.681
70535W        W71400  10.344  20.587  28.429
70536W        W71401   9.998  21.288  25.896
70537W        W71402   8.613  18.963  28.802
70538W        W71403   8.433  19.547  28.043
70539W        W71404  10.525  21.042  28.320
70540W        W71405   9.625  18.992  28.697
70541W        W71406   7.469  19.463  28.474
70542W        W71407   9.229  19.940  28.200
70543W        W71408   7.586  20.698  26.857
70544W        W71409   7.733  19.995  27.747
70545W        W71410  10.050  20.281  28.097
70546W        W71411   9.822  21.661  28.908
70547W        W71412   9.718  19.400  28.461
70548W        W71413   9.995  21.454  26.866
70549W        W71414   8.997  21.174  28.189
70550W        W71415   8.482  21.529  27.458
70551W        W71416  10.287  20.700  27.877
70552W        W71417   9.337  20.772  29.014
70553W        W71418   7.942  20.725  27.353
70554W        W71419  10.288  20.484  26.998
70555W        W71420   9.929  21.550  27.749
70556W        W71421   7.907  21.279  27.619
70557W        W71422   8.928  19.331  28.829
70558W        W71423   9.379  21.497  26.340
70559W        W71424   8.687  20.752  28.978
70560W        W71425   8.813  20.990  26.355
70561W        W71426   8.034  19.730  25.614
70562W        W71427   7.373  25.461   3.359
70563W        W71428   7.749  24.354   2.882
70564W        W71429  10.454  24.084   0.652
70565W        W71430  10.584  25.169   2.679
70566W        W71431   8.502  25.160   0.205
70567W        W71432   8.585  23.312   1.188
70568W        W71433   8.100  23.160   1.352
70569W        W71434   9.091  23.975   0.786
70570W        W71435   8.766  25.067   3.141
70571W        W71436   7.415  22.628   3.104
70572W        W71437   8.177  21.908   2.906
70573W        W71438   9.871  22.296   1.793
70574W        W71439   9.520  23.167   0.363
70575W        W71440  10.090  22.601   3.454
70576W        W71441   7.456  22.393   2.579
70577W        W71442   7.555  25.012   3.600
70578W        W71443   9.077  24.402   0.332
70579W        W71444   7.509  23.185   2.025
70580W        W71445   8.402  23.076   3.262
70581W        W71446  10.861  22.935   1.761
70582W        W71447  10.625  23.978   2.620
70583W        W71448   8.933  23.311   1.647
70584W        W71449   9.479  24.650   2.016
70585W        W71450   7.979  24.084   2.248
70586W        W71451   7.338  23.612   1.819
70587W        W71452   8.374  23.584   3.011
70588W        W71453  10.645  23.367   3.265
70589W        W71454   8.261  24.811   1.710
70590W        W71455   9.382  24.500   2.844
70591W        W71456   8.602  23.140   2.069
70592W        W71457   8.894  23.924   1.712
70593W        W71458   9.891  24.697   3.560
70594W        W71459   8.970  24.017   3.570
70595W        W71460   8.951  23.733   3.048
70596W        W71461   7.360  23.124   3.570
70597W        W71462  10.192  24.659   3.169
70598W        W71463   7.773  22.241   1.167
70599W        W71464   8.300  24.499   2.166
70600W        W71465  10.763  24.282   1.456
70601W        W71466  10.176  22.682   2.023
70602W        W71467  10.461  22.635   0.118
70603W        W71468  10.926  23.436   2.424
70604W        W71469   8.893  25.143   2.177
70605W        W71470  10.667  24.609   0.615
70606W        W71471   7.796  25.395   0.369
70607W        W71472   8.189  25.441   1.045
70608W        W71473   7.986  22.195   2.471
70609W        W71474  10.609  23.213   2.746
70610W        W71475  10.014  23.635   1.205
70611W        W71476   9.980  23.323   0.232
70612W        W71477   9.188  24.467   2.372
70613W        W71478   8.994  22.797   1.571
70614W        W71479   9.594  24.884   2.565
70615W        W71480  10.465  23.675   0.987
70616W        W71481   9.367  22.333   1.003
70617W        W71482   8.024  25.027   0.686
70618W        W71483   7.395  22.526   1.285
70619W        W71484  10.181  23.133   1.759
70620W        W71485   7.639  24.750   1.674
70621W        W71486   8.980  25.100   0.544
70622W        W71487  10.372  23.126   0.008
70623W        W71488   7.395  24.884   2.172
70624W        W71489   8.186  24.456   2.652
70625W        W71490   8.559  23.816   1.271
70626W        W71491   8.581  22.221   2.364
70627W        W71492  10.810  21.983   1.661
70628W        W71493   8.029  23.855   0.129
70629W        W71494   7.684  22.888   0.308
70630W        W71495   7.746  24.844   1.102
70631W        W71496   8.877  24.327   1.350
70632W        W71497  10.209  25.186   3.064
70633W        W71498   9.135  22.828   0.748
70634W        W71499  10.518  25.226   1.520
70635W        W71500  10.195  23.079   3.118
70636W        W71501  10.908  24.735   1.252
70637W        W71502   9.535  24.027   2.736
70638W        W71503   7.301  23.578   0.942
70639W        W71504   8.412  23.993   2.515
70640W        W71505   9.616  23.257   0.893
70641W        W71506   9.493  23.747   0.997
70642W        W71507   7.836  23.167   2.471
70643W        W71508   7.821  23.043   3.393
70644W        W71509   7.711  21.960   1.552
70645W        W71510   9.479  22.307   2.113
70646W        W71511   9.127  22.492   3.276
70647W        W71512   9.482  22.641   0.454
70648W        W71513  10.665  25.034   3.208
70649W        W71514   9.632  22.115   3.247
70650W        W71515  10.651  24.416   3.369
70651W        W71516  10.081  22.583   2.965
70652W        W71517   9.881  22.521   1.235
70653W        W71518  10.274  23.655   3.639
70654W        W71519   8.014  25.231   1.625
70655W        W71520   8.672  22.948   0.611
70656W        W71521   8.241  22.232   3.275
70657W        W71522  10.293  22.716   0.956
70658W        W71523  10.660  23.198   0.901
70659W        W71524   8.403  25.415   3.372
70660W        W71525   8.329  21.951   0.607
70661W        W71526  10.650  22.485   1.642
70662W        W71527  10.800  24.734   0.087
70663W        W71528   7.707  23.937   1.789
70664W        W71529   9.624  22.524   0.019
70665W        W71530  10.758  24.856   1.739
70666W        W71531  10.797  22.050   2.489
70667W        W71532   9.242  23.262   3.043
70668W        W71533   9.335  24.601   0.746
70669W        W71534   9.735  23.895   3.486
70670W        W71535   9.409  21.872   1.795
70671W        W71536   8.021  22.775   1.858
70672W        W71537   7.575  23.975   2.632
70673W        W71538   9.434  25.168   1.338
70674W        W71539  10.628  22.765   2.210
70675W        W71540   9.265  25.112   2.977
70676W        W71541  10.608  24.171   0.182
70677W        W71542   9.043  23.654   1.243
70678W        W71543  10.895  22.165   2.984
70679W        W71544   9.044  24.000   2.578
70680W        W71545   9.261  22.886   2.023
70681W        W71546  10.113  23.184   0.861
70682W        W71547  10.400  22.917   0.503
70683W        W71548  10.209  24.957   0.892
70684W        W71549  10.043  24.560   1.688
70685W        W71550   9.939  23.639   0.666
70686W        W71551   9.372  23.849   1.652
70687W        W71552  10.253  23.637   1.719
70688W        W71553   7.628  22.652   2.143
70689W        W71554  10.406  23.704   2.970
70690W        W71555  10.757  25.322   2.116
70691W        W71556   8.687  24.766   1.518
70692W        W71557   9.694  25.299   2.842
70693W        W71558   9.688  22.629   2.606
70694W        W71559   8.895  25.337   2.667
70695W        W71560  10.592  22.291   1.133
70696W        W71561  10.383  23.610   2.434
70697W        W71562   7.366  22.931   2.472
70698W        W71563  10.226  22.726   1.490
70699W        W71564  10.637  22.877   3.267
70700W        W71565   9.522  24.576   1.485
70701W        W71566   8.778  25.167   1.098
70702W        W71567   7.893  22.347   0.356
70703W        W71568   8.997  22.001   2.166
70704W        W71569   8.025  25.121   0.014
70705W        W71570   8.399  23.587   0.765
70706W        W71571   9.053  24.216   3.078
70707W        W71572   8.883  22.574   1.068
70708W        W71573  10.239  22.171   1.496
70709W        W71574   9.959  25.453   1.824
70710W        W71575   9.371  25.101   2.164
70711W        W71576   8.767  24.138   2.125
70712W        W71577  10.537  24.861   2.251
70713W        W71578   8.231  22.364   1.020
70714W        W71579   8.753  24.661   1.980
70715W        W71580   8.236  22.592   0.045
70716W        W71581   9.037  23.201   2.439
70717W        W71582   9.885  22.067   2.309
70718W        W71583   7.305  23.910   2.194
70719W        W71584   9.009  23.728   0.352
70720W        W71585   8.277  22.043   0.122
70721W        W71586   9.015  23.124   1.173
70722W        W71587   9.985  22.100   2.872
70723W        W71588   8.573  24.112   2.981
70724W        W71589   9.377  23.894   3.198
70725W        W71590   9.994  23.924   3.091
70726W        W71591   9.278  22.064   3.596
70727W        W71592   8.500  22.680   1.989
70728W        W71593   7.926  22.636   1.387
70729W        W71594   7.712  25.348   1.063
70730W        W71595   9.044  24.678   3.188
70731W        W71596   8.079  24.163   0.547
70732W        W71597   9.759  23.548   1.768
70733W        W71598  10.039  23.347   2.167
70734W        W71599   9.244  24.021   2.101
70735W        W71600   9.714  24.395   0.233
70736W        W71601   9.386  22.416   1.561
70737W        W71602  10.865  22.694   0.829
70738W        W71603   7.359  25.283   2.860
70739W        W71604   7.776  24.509   2.392
70740W        W71605   7.343  25.355   0.624
70741W        W71606   9.242  22.625   2.430
70742W        W71607   8.605  24.648   0.279
70743W        W71608  10.510  25.030   0.465
70744W        W71609   9.485  23.683   0.479
70745W        W71610   8.328  22.874   0.996
70746W        W71611   9.160  22.784   0.048
70747W        W71612   9.744  24.349   3.226
70748W        W71613  10.097  22.255   0.843
70749W        W71614   7.427  22.103   0.291
70750W        W71615   8.713  24.422   2.581
70751W        W71616   8.512  24.338   1.673
70752W        W71617   8.254  24.290   0.071
70753W        W71618   7.495  24.531   0.839
70754W        W71619   7.999  23.601   3.281
70755W        W71620   8.703  22.161   3.467
70756W        W71621   9.412  22.303   2.823
70757W        W71622   8.607  22.071   1.104
70758W        W71623   9.666  22.148   0.609
70759W        W71624   7.611  22.080   2.186
70760W        W71625   7.659  23.043   1.556
70761W        W71626  10.348  22.151   1.962
70762W        W71627   7.770  22.649   0.776
70763W        W71628  10.341  22.337   2.392
70764W        W71629  10.737  23.540   0.077
70765W        W71630   8.029  22.298   1.896
70766W        W71631   7.291  22.560   0.314
70767W        W71632   8.077  23.949   2.875
70768W        W71633   9.435  23.347   2.054
70769W        W71634   9.302  25.426   0.350
70770W        W71635   7.448  23.933   0.047
70771W        W71636   8.183  24.344   3.173
70772W        W71637   7.704  23.511   2.804
70773W        W71638   8.695  23.616   2.598
70774W        W71639  10.463  21.975   2.860
70775W        W71640  10.861  23.585   2.851
70776W        W71641  10.849  23.785   0.537
70777W        W71642   9.712  24.117   0.636
70778W        W71643  10.186  25.417   0.331
70779W        W71644   9.363  23.407   3.473
70780W        W71645   7.693  24.374   3.513
70781W        W71646  10.899  22.296   3.465
70782W        W71647  10.617  23.224   2.086
70783W        W71648   8.925  25.354   3.563
70784W        W71649   8.780  21.983   0.290
70785W        W71650  10.319  24.582   0.233
70786W        W71651   8.088  22.675   3.119
70787W        W71652   8.522  24.669   2.981
70788W        W71653  10.648  22.660   2.779
70789W        W71654   9.859  25.319   0.747
70790W        W71655  10.098  23.938   2.114
70791W        W71656   8.348  22.354   2.781
70792W        W71657   8.817  23.423   3.538
70793W        W71658   8.320  24.602   0.732
70794W        W71659  10.075  24.100   0.996
70795W        W71660   7.843  22.726   2.720
70796W        W71661   9.172  24.788   1.184
70797W        W71662  10.922  23.348   1.365
70798W        W71663   9.144  21.981   3.084
70799W        W71664   9.924  24.686   2.163
70800W        W71665  10.227  25.030   1.871
70801W        W71666   9.446  24.832   0.299
70802W        W71667   7.456  24.724   3.141
70803W        W71668   8.199  22.716   2.379
70804W        W71669   8.169  22.064   1.489
70805W        W71670   9.790  22.906   2.181
70806W        W71671   8.588  24.077   0.381
70807W        W71672  10.586  24.019   1.880
70808W        W71673   7.913  24.777   3.303
70809W        W71674  10.300  25.459   1.100
70810W        W71675   8.399  22.479   1.545
70811W        W71676   8.168  23.972   1.635
70812W        W71677   8.481  25.383   2.385
70813W        W71678  10.548  25.479   3.417
70814W        W71679   9.707  23.667   2.350
70815W        W71680   7.556  23.465   0.265
70816W        W71681  10.690  25.123   0.962
70817W        W71682  10.527  22.447   0.581
70818W        W71683   8.666  21.966   2.984
70819W        W71684  10.372  24.768   1.442
70820W        W71685  10.401  23.324   1.347
70821W        W71686   8.518  22.997   1.563
70822W        W71687   8.763  23.259   2.887
70823W        W71688   9.874  24.412   2.750
70824W        W71689   8.524  22.866   2.862
70825W        W71690   8.503  25.332   1.478
70826W        W71691   7.820  25.291   3.112
70827W        W71692   7.932  24.652   0.242
70828W        W71693  10.449  24.410   1.052
70829W        W71694   8.053  23.202   2.938
70830W        W71695  10.826  23.132   0.419
70831W        W71696   8.571  24.189   0.890
70832W        W71697   9.670  23.571   2.971
70833W        W71698   9.561  23.199   2.515
70834W        W71699   8.121  23.571   2.544
70835W        W71700  10.331  25.459   2.373
70836W        W71701  10.122  22.093   3.367
70837W        W71702   7.786  22.243   2.954
70838W        W71703   8.125  23.266   2.007
70839W        W71704   8.494  23.080   0.129
70840W        W71705   7.297  24.839   2.674
70841W        W71706   8.882  23.548   2.117
70842W        W71707   8.705  22.573   0.222
70843W        W71708   7.840  23.389   1.003
70844W        W71709   7.611  25.241   2.440
70845W        W71710  10.406  23.467   0.548
70846W        W71711  10.501  22.383   3.234
70847W        W71712   9.937  24.592   1.197
70848W        W71713   7.535  23.516   3.374
70849W        W71714  10.501  21.980   0.670
70850W        W71715  10.021  24.455   0.681
70851W        W71716   8.923  23.513   0.766
70852W        W71717  10.110  22.317   0.289
70853W        W71718  10.175  22.924   2.475
70854W        W71719   7.884  23.517   1.682
70855W        W71720   8.178  24.456   1.331
70856W        W71721   9.941  23.076   1.296
70857W        W71722   8.964  22.455   1.992
70858W        W71723  10.926  24.366   2.503
70859W        W71724  10.844  22.353   2.064
70860W        W71725   7.383  25.183   1.440
70861W        W71726   7.892  24.370   0.976
70862W        W71727   7.807  21.987   3.529
70863W        W71728   8.926  24.840   3.631
70864W        W71729  10.681  23.808   1.421
70865W        W71730  10.035  23.985   0.301
70866W        W71731   9.330  25.506   2.513
70867W        W71732  10.187  24.228   3.550
70868W        W71733   9.002  21.938   0.830
70869W        W71734   9.715  22.807   1.689
70870W        W71735   7.401  24.394   2.021
70871W        W71736   8.654  22.356   0.662
70872W        W71737   8.458  23.840   3.511
70873W        W71738   9.452  22.821   1.225
70874W        W71739   9.657  24.231   2.347
70875W        W71740   7.811  24.836   2.782
70876W        W71741   8.402  24.819   3.505
70877W        W71742   8.253  22.616   0.519
70878W        W71743   9.770  22.758   0.844
70879W        W71744   9.728  24.866   3.081
70880W        W71745   8.413  23.458   1.680
70881W        W71746   8.068  25.156   2.545
70882W        W71747  10.813  25.273   0.146
70883W        W71748   7.676  23.945   3.142
70884W        W71749   9.671  24.207   1.830
70885W        W71750   8.107  23.856   1.072
70886W        W71751   8.478  24.863   2.467
70887W        W71752   8.856  22.282   1.508
70888W        W71753   7.467  24.266   0.438
70889W        W71754   8.986  23.217   0.308
70890W        W71755   7.632  23.766   1.327
70891W        W71756   8.922  22.408   2.791
70892W        W71757  10.594  22.117   0.218
70893W        W71758  10.687  23.863   3.317
70894W        W71759   9.341  25.120   3.469
70895W        W71760  10.899  24.214   2.991
70896W        W71761  10.307  25.012   3.602
70897W        W71762   8.046  25.468   2.080
70898W        W71763  10.905  24.090   0.954
70899W        W71764   9.435  23.357   1.467
70900W        W71765   9.202  21.969   1.357
70901W        W71766   8.261  24.953   1.194
70902W        W71767   8.760  22.694   2.419
70903W        W71768   8.460  22.063   1.888
70904W        W71769   7.523  24.885   0.436
70905W        W71770   9.339  24.249   1.154
70906W        W71771   8.214  25.044   3.033
70907W        W71772   7.691  23.867   0.729
70908W        W71773   7.576  22.410   1.728
70909W        W71774   9.124  24.375   1.785
70910W        W71775   7.376  22.229   0.805
70911W        W71776  10.040  23.435   2.732
70912W        W71777   9.917  22.821   0.304
70913W        W71778  10.434  24.493   1.952
70914W        W71779   9.095  24.977   1.783
70915W        W71780   8.507  25.081   0.694
70916W        W71781   9.789  21.984   0.124
70917W        W71782   7.589  25.244   1.865
70918W        W71783   9.786  23.002   3.500
70919W        W71784   7.769  22.532   3.499
70920W        W71785   7.500  23.132   0.832
70921W        W71786   8.191  23.121   0.557
70922W        W71787   9.954  23.448   3.374
70923W        W71788   8.297  23.729   2.083
70924W        W71789   9.771  22.015   1.203
70925W        W71790   8.902  25.446   1.706
70926W        W71791  10.116  24.908   2.643
70927W        W71792   9.700  25.057   1.754
70928W        W71793   9.719  24.037   1.348
70929W        W71794   9.181  22.262   0.419
70930W        W71795  10.862  21.890   1.141
70931W        W71796   8.550  23.525   0.304
70932W        W71797  10.716  22.862   1.294
70933W        W71798   9.408  24.032   0.171
70934W        W71799  10.344  24.232   2.919
70935W        W71800   9.998  24.933   0.386
70936W        W71801   8.613  22.608   3.292
70937W        W71802   8.433  23.192   2.533
70938W        W71803  10.525  24.687   2.810
70939W        W71804   9.625  22.637   3.187
70940W        W71805   7.469  23.108   2.964
70941W        W71806   9.229  23.585   2.690
70942W        W71807   7.586  24.343   1.347
70943W        W71808   7.733  23.640   2.237
70944W        W71809  10.050  23.926   2.587
70945W        W71810   9.822  25.306   3.398
70946W        W71811   9.718  23.045   2.951
70947W        W71812   9.995  25.099   1.356
70948W        W71813   8.997  24.819   2.679
70949W        W71814   8.482  25.174   1.948
70950W        W71815  10.287  24.345   2.367
70951W        W71816   9.337  24.417   3.504
70952W        W71817   7.942  24.370   1.843
70953W        W71818  10.288  24.129   1.488
70954W        W71819   9.929  25.195   2.239
70955W        W71820   7.907  24.924   2.109
70956W        W71821   8.928  22.976   3.319
70957W        W71822   9.379  25.142   0.830
70958W        W71823   8.687  24.397   3.468
70959W        W71824   8.813  24.635   0.845
70960W        W71825   8.034  23.375   0.104
70961W        W71826   7.373  25.461   7.003
70962W        W71827   7.749  24.354   6.526
70963W        W71828  10.454  24.084   4.296
70964W        W71829  10.584  25.169   6.323
70965W        W71830   8.502  25.160   3.849
70966W        W71831   8.585  23.312   4.832
70967W        W71832   8.100  23.160   4.996
70968W        W71833   9.091  23.975   4.430
70969W        W71834   8.766  25.067   6.785
70970W        W71835   7.415  22.628   6.748
70971W        W71836   8.177  21.908   6.550
70972W        W71837   9.871  22.296   5.437
70973W        W71838   9.520  23.167   4.007
70974W        W71839  10.090  22.601   7.098
70975W        W71840   7.456  22.393   6.223
70976W        W71841   7.555  25.012   7.244
70977W        W71842   9.077  24.402   3.976
70978W        W71843   7.509  23.185   5.669
70979W        W71844   8.402  23.076   6.906
70980W        W71845  10.861  22.935   5.405
70981W        W71846  10.625  23.978   6.264
70982W        W71847   8.933  23.311   5.291
70983W        W71848   9.479  24.650   5.660
70984W        W71849   7.979  24.084   5.892
70985W        W71850   7.338  23.612   5.463
70986W        W71851   8.374  23.584   6.655
70987W        W71852  10.645  23.367   6.909
70988W        W71853   8.261  24.811   5.354
70989W        W71854   9.382  24.500   6.488
70990W        W71855   8.602  23.140   5.713
70991W        W71856   8.894  23.924   5.356
70992W        W71857   9.891  24.697   7.204
70993W        W71858   8.970  24.017   7.214
70994W        W71859   8.951  23.733   6.692
70995W        W71860   7.360  23.124   7.214
70996W        W71861  10.192  24.659   6.813
70997W        W71862   7.773  22.241   4.811
70998W        W71863   8.300  24.499   5.810
70999W        W71864  10.763  24.282   5.100
71000W        W71865  10.176  22.682   5.667
71001W        W71866  10.461  22.635   3.762
71002W        W71867  10.926  23.436   6.068
71003W        W71868   8.893  25.143   5.821
71004W        W71869  10.667  24.609   4.259
71005W        W71870   7.796  25.395   4.013
71006W        W71871   8.189  25.441   4.689
71007W        W71872   7.986  22.195   6.115
71008W        W71873  10.609  23.213   6.390
71009W        W71874  10.014  23.635   4.849
71010W        W71875   9.980  23.323   3.876
71011W        W71876   9.188  24.467   6.016
71012W        W71877   8.994  22.797   5.215
71013W        W71878   9.594  24.884   6.209
71014W        W71879  10.465  23.675   4.631
71015W        W71880   9.367  22.333   4.647
71016W        W71881   8.024  25.027   4.330
71017W        W71882   7.395  22.526   4.929
71018W        W71883  10.181  23.133   5.403
71019W        W71884   7.639  24.750   5.318
71020W        W71885   8.980  25.100   4.188
71021W        W71886  10.372  23.126   3.652
71022W        W71887   7.395  24.884   5.816
71023W        W71888   8.186  24.456   6.296
71024W        W71889   8.559  23.816   4.915
71025W        W71890   8.581  22.221   6.008
71026W        W71891  10.810  21.983   5.305
71027W        W71892   8.029  23.855   3.773
71028W        W71893   7.684  22.888   3.952
71029W        W71894   7.746  24.844   4.746
71030W        W71895   8.877  24.327   4.994
71031W        W71896  10.209  25.186   6.708
71032W        W71897   9.135  22.828   4.392
71033W        W71898  10.518  25.226   5.164
71034W        W71899  10.195  23.079   6.762
71035W        W71900  10.908  24.735   4.896
71036W        W71901   9.535  24.027   6.380
71037W        W71902   7.301  23.578   4.586
71038W        W71903   8.412  23.993   6.159
71039W        W71904   9.616  23.257   4.537
71040W        W71905   9.493  23.747   4.641
71041W        W71906   7.836  23.167   6.115
71042W        W71907   7.821  23.043   7.037
71043W        W71908   7.711  21.960   5.196
71044W        W71909   9.479  22.307   5.757
71045W        W71910   9.127  22.492   6.920
71046W        W71911   9.482  22.641   4.098
71047W        W71912  10.665  25.034   6.852
71048W        W71913   9.632  22.115   6.891
71049W        W71914  10.651  24.416   7.013
71050W        W71915  10.081  22.583   6.609
71051W        W71916   9.881  22.521   4.879
71052W        W71917  10.274  23.655   7.283
71053W        W71918   8.014  25.231   5.269
71054W        W71919   8.672  22.948   4.255
71055W        W71920   8.241  22.232   6.919
71056W        W71921  10.293  22.716   4.600
71057W        W71922  10.660  23.198   4.545
71058W        W71923   8.403  25.415   7.016
71059W        W71924   8.329  21.951   4.251
71060W        W71925  10.650  22.485   5.286
71061W        W71926  10.800  24.734   3.731
71062W        W71927   7.707  23.937   5.433
71063W        W71928   9.624  22.524   3.663
71064W        W71929  10.758  24.856   5.383
71065W        W71930  10.797  22.050   6.133
71066W        W71931   9.242  23.262   6.687
71067W        W71932   9.335  24.601   4.390
71068W        W71933   9.735  23.895   7.130
71069W        W71934   9.409  21.872   5.439
71070W        W71935   8.021  22.775   5.502
71071W        W71936   7.575  23.975   6.276
71072W        W71937   9.434  25.168   4.982
71073W        W71938  10.628  22.765   5.854
71074W        W71939   9.265  25.112   6.621
71075W        W71940  10.608  24.171   3.826
71076W        W71941   9.043  23.654   4.887
71077W        W71942  10.895  22.165   6.628
71078W        W71943   9.044  24.000   6.222
71079W        W71944   9.261  22.886   5.667
71080W        W71945  10.113  23.184   4.505
71081W        W71946  10.400  22.917   4.147
71082W        W71947  10.209  24.957   4.536
71083W        W71948  10.043  24.560   5.332
71084W        W71949   9.939  23.639   4.310
71085W        W71950   9.372  23.849   5.296
71086W        W71951  10.253  23.637   5.363
71087W        W71952   7.628  22.652   5.787
71088W        W71953  10.406  23.704   6.614
71089W        W71954  10.757  25.322   5.760
71090W        W71955   8.687  24.766   5.162
71091W        W71956   9.694  25.299   6.486
71092W        W71957   9.688  22.629   6.250
71093W        W71958   8.895  25.337   6.311
71094W        W71959  10.592  22.291   4.777
71095W        W71960  10.383  23.610   6.078
71096W        W71961   7.366  22.931   6.116
71097W        W71962  10.226  22.726   5.134
71098W        W71963  10.637  22.877   6.911
71099W        W71964   9.522  24.576   5.129
71100W        W71965   8.778  25.167   4.742
71101W        W71966   7.893  22.347   4.000
71102W        W71967   8.997  22.001   5.810
71103W        W71968   8.025  25.121   3.658
71104W        W71969   8.399  23.587   4.409
71105W        W71970   9.053  24.216   6.722
71106W        W71971   8.883  22.574   4.712
71107W        W71972  10.239  22.171   5.140
71108W        W71973   9.959  25.453   5.468
71109W        W71974   9.371  25.101   5.808
71110W        W71975   8.767  24.138   5.769
71111W        W71976  10.537  24.861   5.895
71112W        W71977   8.231  22.364   4.664
71113W        W71978   8.753  24.661   5.624
71114W        W71979   8.236  22.592   3.689
71115W        W71980   9.037  23.201   6.083
71116W        W71981   9.885  22.067   5.953
71117W        W71982   7.305  23.910   5.838
71118W        W71983   9.009  23.728   3.996
71119W        W71984   8.277  22.043   3.766
71120W        W71985   9.015  23.124   4.817
71121W        W71986   9.985  22.100   6.516
71122W        W71987   8.573  24.112   6.625
71123W        W71988   9.377  23.894   6.842
71124W        W71989   9.994  23.924   6.735
71125W        W71990   9.278  22.064   7.240
71126W        W71991   8.500  22.680   5.633
71127W        W71992   7.926  22.636   5.031
71128W        W71993   7.712  25.348   4.707
71129W        W71994   9.044  24.678   6.832
71130W        W71995   8.079  24.163   4.191
71131W        W71996   9.759  23.548   5.412
71132W        W71997  10.039  23.347   5.811
71133W        W71998   9.244  24.021   5.745
71134W        W71999   9.714  24.395   3.877
71135W        W72000   9.386  22.416   5.205
71136W        W72001  10.865  22.694   4.473
71137W        W72002   7.359  25.283   6.504
71138W        W72003   7.776  24.509   6.036
71139W        W72004   7.343  25.355   4.268
71140W        W72005   9.242  22.625   6.074
71141W        W72006   8.605  24.648   3.923
71142W        W72007  10.510  25.030   4.109
71143W        W72008   9.485  23.683   4.123
71144W        W72009   8.328  22.874   4.640
71145W        W72010   9.160  22.784   3.692
71146W        W72011   9.744  24.349   6.870
71147W        W72012  10.097  22.255   4.487
71148W        W72013   7.427  22.103   3.935
71149W        W72014   8.713  24.422   6.225
71150W        W72015   8.512  24.338   5.317
71151W        W72016   8.254  24.290   3.715
71152W        W72017   7.495  24.531   4.483
71153W        W72018   7.999  23.601   6.925
71154W        W72019   8.703  22.161   7.111
71155W        W72020   9.412  22.303   6.467
71156W        W72021   8.607  22.071   4.748
71157W        W72022   9.666  22.148   4.253
71158W        W72023   7.611  22.080   5.830
71159W        W72024   7.659  23.043   5.200
71160W        W72025  10.348  22.151   5.606
71161W        W72026   7.770  22.649   4.420
71162W        W72027  10.341  22.337   6.036
71163W        W72028  10.737  23.540   3.721
71164W        W72029   8.029  22.298   5.540
71165W        W72030   9.143  22.870   6.480
71166W        W72031   7.291  22.560   3.958
71167W        W72032   8.077  23.949   6.519
71168W        W72033   9.435  23.347   5.698
71169W        W72034   9.302  25.426   3.994
71170W        W72035   7.448  23.933   3.691
71171W        W72036   8.183  24.344   6.817
71172W        W72037   7.704  23.511   6.448
71173W        W72038   8.695  23.616   6.242
71174W        W72039  10.463  21.975   6.504
71175W        W72040  10.861  23.585   6.495
71176W        W72041  10.849  23.785   4.181
71177W        W72042   9.712  24.117   4.280
71178W        W72043  10.186  25.417   3.975
71179W        W72044   9.363  23.407   7.117
71180W        W72045   7.693  24.374   7.157
71181W        W72046  10.899  22.296   7.109
71182W        W72047  10.617  23.224   5.730
71183W        W72048   8.925  25.354   7.207
71184W        W72049   8.780  21.983   3.934
71185W        W72050  10.319  24.582   3.877
71186W        W72051   8.088  22.675   6.763
71187W        W72052   8.522  24.669   6.625
71188W        W72053  10.648  22.660   6.423
71189W        W72054   9.859  25.319   4.391
71190W        W72055  10.098  23.938   5.758
71191W        W72056   8.348  22.354   6.425
71192W        W72057   8.817  23.423   7.182
71193W        W72058   8.320  24.602   4.376
71194W        W72059  10.075  24.100   4.640
71195W        W72060   7.843  22.726   6.364
71196W        W72061   9.172  24.788   4.828
71197W        W72062  10.922  23.348   5.009
71198W        W72063   9.144  21.981   6.728
71199W        W72064   9.924  24.686   5.807
71200W        W72065  10.227  25.030   5.515
71201W        W72066   9.446  24.832   3.943
71202W        W72067   7.456  24.724   6.785
71203W        W72068   8.199  22.716   6.023
71204W        W72069   8.169  22.064   5.133
71205W        W72070   9.790  22.906   5.825
71206W        W72071   8.588  24.077   4.025
71207W        W72072  10.586  24.019   5.524
71208W        W72073   7.913  24.777   6.947
71209W        W72074  10.300  25.459   4.744
71210W        W72075   8.399  22.479   5.189
71211W        W72076   8.168  23.972   5.279
71212W        W72077   8.481  25.383   6.029
71213W        W72078  10.548  25.479   7.061
71214W        W72079   9.707  23.667   5.994
71215W        W72080   7.556  23.465   3.909
71216W        W72081  10.690  25.123   4.606
71217W        W72082  10.527  22.447   4.225
71218W        W72083   8.666  21.966   6.628
71219W        W72084  10.372  24.768   5.086
71220W        W72085  10.401  23.324   4.991
71221W        W72086   8.518  22.997   5.207
71222W        W72087   8.763  23.259   6.531
71223W        W72088   9.874  24.412   6.394
71224W        W72089   8.524  22.866   6.506
71225W        W72090   8.503  25.332   5.122
71226W        W72091   7.820  25.291   6.756
71227W        W72092   7.932  24.652   3.886
71228W        W72093  10.449  24.410   4.696
71229W        W72094   8.053  23.202   6.582
71230W        W72095  10.826  23.132   4.063
71231W        W72096   8.571  24.189   4.534
71232W        W72097   9.670  23.571   6.615
71233W        W72098   9.561  23.199   6.159
71234W        W72099   8.121  23.571   6.188
71235W        W72100  10.331  25.459   6.017
71236W        W72101  10.122  22.093   7.011
71237W        W72102   7.786  22.243   6.598
71238W        W72103   8.125  23.266   5.651
71239W        W72104   8.494  23.080   3.773
71240W        W72105   7.297  24.839   6.318
71241W        W72106   8.882  23.548   5.761
71242W        W72107   8.705  22.573   3.866
71243W        W72108   7.840  23.389   4.647
71244W        W72109   7.611  25.241   6.084
71245W        W72110  10.406  23.467   4.192
71246W        W72111  10.501  22.383   6.878
71247W        W72112   9.937  24.592   4.841
71248W        W72113   7.535  23.516   7.018
71249W        W72114  10.501  21.980   4.314
71250W        W72115  10.021  24.455   4.325
71251W        W72116   8.923  23.513   4.410
71252W        W72117  10.110  22.317   3.933
71253W        W72118  10.175  22.924   6.119
71254W        W72119   7.884  23.517   5.326
71255W        W72120   8.178  24.456   4.975
71256W        W72121   9.941  23.076   4.940
71257W        W72122   8.964  22.455   5.636
71258W        W72123  10.926  24.366   6.147
71259W        W72124  10.844  22.353   5.708
71260W        W72125   7.383  25.183   5.084
71261W        W72126   7.892  24.370   4.620
71262W        W72127   7.807  21.987   7.173
71263W        W72128   8.926  24.840   7.275
71264W        W72129  10.681  23.808   5.065
71265W        W72130  10.035  23.985   3.945
71266W        W72131   9.330  25.506   6.157
71267W        W72132  10.187  24.228   7.194
71268W        W72133   9.002  21.938   4.474
71269W        W72134   9.715  22.807   5.333
71270W        W72135   7.401  24.394   5.665
71271W        W72136   8.654  22.356   4.306
71272W        W72137   8.458  23.840   7.155
71273W        W72138   9.452  22.821   4.869
71274W        W72139   9.657  24.231   5.991
71275W        W72140   7.811  24.836   6.426
71276W        W72141   8.402  24.819   7.149
71277W        W72142   8.253  22.616   4.163
71278W        W72143   9.770  22.758   4.488
71279W        W72144   9.728  24.866   6.725
71280W        W72145   8.413  23.458   5.324
71281W        W72146   8.068  25.156   6.189
71282W        W72147  10.813  25.273   3.790
71283W        W72148   7.676  23.945   6.786
71284W        W72149   9.671  24.207   5.474
71285W        W72150   8.107  23.856   4.716
71286W        W72151   8.478  24.863   6.111
71287W        W72152   8.856  22.282   5.152
71288W        W72153   7.467  24.266   4.082
71289W        W72154   8.986  23.217   3.952
71290W        W72155   7.632  23.766   4.971
71291W        W72156   8.922  22.408   6.435
71292W        W72157  10.594  22.117   3.862
71293W        W72158  10.687  23.863   6.961
71294W        W72159   9.341  25.120   7.113
71295W        W72160  10.899  24.214   6.635
71296W        W72161  10.307  25.012   7.246
71297W        W72162   8.046  25.468   5.724
71298W        W72163  10.905  24.090   4.598
71299W        W72164   9.435  23.357   5.111
71300W        W72165   9.202  21.969   5.001
71301W        W72166   8.261  24.953   4.838
71302W        W72167   8.760  22.694   6.063
71303W        W72168   8.460  22.063   5.532
71304W        W72169   7.523  24.885   4.080
71305W        W72170   9.339  24.249   4.798
71306W        W72171   8.214  25.044   6.677
71307W        W72172   7.691  23.867   4.373
71308W        W72173   7.576  22.410   5.372
71309W        W72174   9.124  24.375   5.429
71310W        W72175   7.376  22.229   4.449
71311W        W72176  10.040  23.435   6.376
71312W        W72177   9.917  22.821   3.948
71313W        W72178  10.434  24.493   5.596
71314W        W72179   9.095  24.977   5.427
71315W        W72180   8.507  25.081   4.338
71316W        W72181   9.789  21.984   3.768
71317W        W72182   7.589  25.244   5.509
71318W        W72183   9.786  23.002   7.144
71319W        W72184   7.769  22.532   7.143
71320W        W72185   7.500  23.132   4.476
71321W        W72186   8.191  23.121   4.201
71322W        W72187   9.954  23.448   7.018
71323W        W72188   8.297  23.729   5.727
71324W        W72189   9.771  22.015   4.847
71325W        W72190   8.902  25.446   5.350
71326W        W72191  10.116  24.908   6.287
71327W        W72192   9.700  25.057   5.398
71328W        W72193   9.719  24.037   4.992
71329W        W72194   9.181  22.262   4.063
71330W        W72195  10.862  21.890   4.785
71331W        W72196   8.550  23.525   3.948
71332W        W72197  10.716  22.862   4.938
71333W        W72198   9.408  24.032   3.815
71334W        W72199  10.344  24.232   6.563
71335W        W72200   9.998  24.933   4.030
71336W        W72201   8.613  22.608   6.936
71337W        W72202   8.433  23.192   6.177
71338W        W72203  10.525  24.687   6.454
71339W        W72204   9.625  22.637   6.831
71340W        W72205   7.469  23.108   6.608
71341W        W72206   9.229  23.585   6.334
71342W        W72207   7.586  24.343   4.991
71343W        W72208   7.733  23.640   5.881
71344W        W72209  10.050  23.926   6.231
71345W        W72210   9.822  25.306   7.042
71346W        W72211   9.718  23.045   6.595
71347W        W72212   9.995  25.099   5.000
71348W        W72213   8.997  24.819   6.323
71349W        W72214   8.482  25.174   5.592
71350W        W72215  10.287  24.345   6.011
71351W        W72216   9.337  24.417   7.148
71352W        W72217   7.942  24.370   5.487
71353W        W72218  10.288  24.129   5.132
71354W        W72219   9.929  25.195   5.883
71355W        W72220   7.907  24.924   5.753
71356W        W72221   8.928  22.976   6.963
71357W        W72222   9.379  25.142   4.474
71358W        W72223   8.687  24.397   7.112
71359W        W72224   8.813  24.635   4.489
71360W        W72225   8.034  23.375   3.748
71361W        W72226   7.373  25.461  10.648
71362W        W72227   7.749  24.354  10.171
71363W        W72228  10.454  24.084   7.941
71364W        W72229  10.584  25.169   9.968
71365W        W72230   8.502  25.160   7.494
71366W        W72231   8.585  23.312   8.477
71367W        W72232   8.100  23.160   8.641
71368W        W72233   9.091  23.975   8.075
71369W        W72234   8.766  25.067  10.430
71370W        W72235   7.415  22.628  10.393
71371W        W72236   8.177  21.908  10.195
71372W        W72237   9.871  22.296   9.082
71373W        W72238   9.520  23.167   7.652
71374W        W72239  10.090  22.601  10.743
71375W        W72240   7.456  22.393   9.868
71376W        W72241   7.555  25.012  10.889
71377W        W72242   9.077  24.402   7.621
71378W        W72243   7.509  23.185   9.314
71379W        W72244   8.402  23.076  10.551
71380W        W72245  10.861  22.935   9.050
71381W        W72246  10.625  23.978   9.909
71382W        W72247   8.933  23.311   8.936
71383W        W72248   9.479  24.650   9.305
71384W        W72249   7.979  24.084   9.537
71385W        W72250   7.338  23.612   9.108
71386W        W72251   8.374  23.584  10.300
71387W        W72252  10.645  23.367  10.554
71388W        W72253   8.261  24.811   8.999
71389W        W72254   9.382  24.500  10.133
71390W        W72255   8.602  23.140   9.358
71391W        W72256   8.894  23.924   9.001
71392W        W72257   9.891  24.697  10.849
71393W        W72258   8.970  24.017  10.859
71394W        W72259   8.951  23.733  10.337
71395W        W72260   7.360  23.124  10.859
71396W        W72261  10.192  24.659  10.458
71397W        W72262   7.773  22.241   8.456
71398W        W72263   8.300  24.499   9.455
71399W        W72264  10.763  24.282   8.745
71400W        W72265  10.176  22.682   9.312
71401W        W72266  10.461  22.635   7.407
71402W        W72267  10.926  23.436   9.713
71403W        W72268   8.893  25.143   9.466
71404W        W72269  10.667  24.609   7.904
71405W        W72270   7.796  25.395   7.658
71406W        W72271   8.189  25.441   8.334
71407W        W72272   7.986  22.195   9.760
71408W        W72273  10.609  23.213  10.035
71409W        W72274  10.014  23.635   8.494
71410W        W72275   9.980  23.323   7.521
71411W        W72276   9.188  24.467   9.661
71412W        W72277   8.994  22.797   8.860
71413W        W72278   9.594  24.884   9.854
71414W        W72279  10.465  23.675   8.276
71415W        W72280   9.367  22.333   8.292
71416W        W72281   8.024  25.027   7.975
71417W        W72282   7.395  22.526   8.574
71418W        W72283  10.181  23.133   9.048
71419W        W72284   7.639  24.750   8.963
71420W        W72285   8.980  25.100   7.833
71421W        W72286  10.372  23.126   7.297
71422W        W72287   7.395  24.884   9.461
71423W        W72288   8.186  24.456   9.941
71424W        W72289   8.559  23.816   8.560
71425W        W72290   8.581  22.221   9.653
71426W        W72291  10.810  21.983   8.950
71427W        W72292   8.029  23.855   7.418
71428W        W72293   7.684  22.888   7.597
71429W        W72294   7.746  24.844   8.391
71430W        W72295   8.877  24.327   8.639
71431W        W72296  10.209  25.186  10.353
71432W        W72297   9.135  22.828   8.037
71433W        W72298  10.518  25.226   8.809
71434W        W72299  10.195  23.079  10.407
71435W        W72300  10.908  24.735   8.541
71436W        W72301   9.535  24.027  10.025
71437W        W72302   7.301  23.578   8.231
71438W        W72303   8.412  23.993   9.804
71439W        W72304   9.616  23.257   8.182
71440W        W72305   9.493  23.747   8.286
71441W        W72306   7.836  23.167   9.760
71442W        W72307   7.821  23.043  10.682
71443W        W72308   7.711  21.960   8.841
71444W        W72309   9.479  22.307   9.402
71445W        W72310   9.127  22.492  10.565
71446W        W72311   9.482  22.641   7.743
71447W        W72312  10.665  25.034  10.497
71448W        W72313   9.632  22.115  10.536
71449W        W72314  10.651  24.416  10.658
71450W        W72315  10.081  22.583  10.254
71451W        W72316   9.881  22.521   8.524
71452W        W72317  10.274  23.655  10.928
71453W        W72318   8.014  25.231   8.914
71454W        W72319   8.672  22.948   7.900
71455W        W72320   8.241  22.232  10.564
71456W        W72321  10.293  22.716   8.245
71457W        W72322  10.660  23.198   8.190
71458W        W72323   8.403  25.415  10.661
71459W        W72324   8.329  21.951   7.896
71460W        W72325  10.650  22.485   8.931
71461W        W72326  10.800  24.734   7.376
71462W        W72327   7.707  23.937   9.078
71463W        W72328   9.624  22.524   7.308
71464W        W72329  10.758  24.856   9.028
71465W        W72330  10.797  22.050   9.778
71466W        W72331   9.242  23.262  10.332
71467W        W72332   9.335  24.601   8.035
71468W        W72333   9.735  23.895  10.775
71469W        W72334   9.409  21.872   9.084
71470W        W72335   8.021  22.775   9.147
71471W        W72336   7.575  23.975   9.921
71472W        W72337   9.434  25.168   8.627
71473W        W72338  10.628  22.765   9.499
71474W        W72339   9.265  25.112  10.266
71475W        W72340  10.608  24.171   7.471
71476W        W72341   9.043  23.654   8.532
71477W        W72342  10.895  22.165  10.273
71478W        W72343   9.044  24.000   9.867
71479W        W72344   9.261  22.886   9.312
71480W        W72345  10.113  23.184   8.150
71481W        W72346  10.400  22.917   7.792
71482W        W72347  10.209  24.957   8.181
71483W        W72348  10.043  24.560   8.977
71484W        W72349   9.939  23.639   7.955
71485W        W72350   9.372  23.849   8.941
71486W        W72351  10.253  23.637   9.008
71487W        W72352   7.628  22.652   9.432
71488W        W72353  10.406  23.704  10.259
71489W        W72354  10.757  25.322   9.405
71490W        W72355   8.687  24.766   8.807
71491W        W72356   9.694  25.299  10.131
71492W        W72357   9.688  22.629   9.895
71493W        W72358   8.895  25.337   9.956
71494W        W72359  10.592  22.291   8.422
71495W        W72360  10.383  23.610   9.723
71496W        W72361   7.366  22.931   9.761
71497W        W72362  10.226  22.726   8.779
71498W        W72363  10.637  22.877  10.556
71499W        W72364   9.522  24.576   8.774
71500W        W72365   8.778  25.167   8.387
71501W        W72366   7.893  22.347   7.645
71502W        W72367   8.997  22.001   9.455
71503W        W72368   8.025  25.121   7.303
71504W        W72369   8.399  23.587   8.054
71505W        W72370   9.053  24.216  10.367
71506W        W72371   8.883  22.574   8.357
71507W        W72372  10.239  22.171   8.785
71508W        W72373   9.959  25.453   9.113
71509W        W72374   9.371  25.101   9.453
71510W        W72375   8.767  24.138   9.414
71511W        W72376  10.537  24.861   9.540
71512W        W72377   8.231  22.364   8.309
71513W        W72378   8.753  24.661   9.269
71514W        W72379   8.236  22.592   7.334
71515W        W72380   9.037  23.201   9.728
71516W        W72381   9.885  22.067   9.598
71517W        W72382   7.305  23.910   9.483
71518W        W72383   9.009  23.728   7.641
71519W        W72384   8.277  22.043   7.411
71520W        W72385   9.015  23.124   8.462
71521W        W72386   9.985  22.100  10.161
71522W        W72387   8.573  24.112  10.270
71523W        W72388   9.377  23.894  10.487
71524W        W72389   9.994  23.924  10.380
71525W        W72390   9.278  22.064  10.885
71526W        W72391   8.500  22.680   9.278
71527W        W72392   7.926  22.636   8.676
71528W        W72393   7.712  25.348   8.352
71529W        W72394   9.044  24.678  10.477
71530W        W72395   8.079  24.163   7.836
71531W        W72396   9.759  23.548   9.057
71532W        W72397  10.039  23.347   9.456
71533W        W72398   9.244  24.021   9.390
71534W        W72399   9.714  24.395   7.522
71535W        W72400   9.386  22.416   8.850
71536W        W72401  10.865  22.694   8.118
71537W        W72402   7.359  25.283  10.149
71538W        W72403   7.776  24.509   9.681
71539W        W72404   7.343  25.355   7.913
71540W        W72405   9.242  22.625   9.719
71541W        W72406   8.605  24.648   7.568
71542W        W72407  10.510  25.030   7.754
71543W        W72408   9.485  23.683   7.768
71544W        W72409   8.328  22.874   8.285
71545W        W72410   9.160  22.784   7.337
71546W        W72411   9.744  24.349  10.515
71547W        W72412  10.097  22.255   8.132
71548W        W72413   7.427  22.103   7.580
71549W        W72414   8.713  24.422   9.870
71550W        W72415   8.512  24.338   8.962
71551W        W72416   8.254  24.290   7.360
71552W        W72417   7.495  24.531   8.128
71553W        W72418   7.999  23.601  10.570
71554W        W72419   8.703  22.161  10.756
71555W        W72420   9.412  22.303  10.112
71556W        W72421   8.607  22.071   8.393
71557W        W72422   9.666  22.148   7.898
71558W        W72423   7.611  22.080   9.475
71559W        W72424   7.659  23.043   8.845
71560W        W72425  10.348  22.151   9.251
71561W        W72426   7.770  22.649   8.065
71562W        W72427  10.341  22.337   9.681
71563W        W72428  10.737  23.540   7.366
71564W        W72429   8.029  22.298   9.185
71565W        W72430   9.143  22.870  10.125
71566W        W72431   7.291  22.560   7.603
71567W        W72432   8.077  23.949  10.164
71568W        W72433   9.435  23.347   9.343
71569W        W72434   9.302  25.426   7.639
71570W        W72435   7.448  23.933   7.336
71571W        W72436   8.183  24.344  10.462
71572W        W72437   7.704  23.511  10.093
71573W        W72438   8.695  23.616   9.887
71574W        W72439  10.463  21.975  10.149
71575W        W72440  10.861  23.585  10.140
71576W        W72441  10.849  23.785   7.826
71577W        W72442   9.712  24.117   7.925
71578W        W72443  10.186  25.417   7.620
71579W        W72444   9.363  23.407  10.762
71580W        W72445   7.693  24.374  10.802
71581W        W72446  10.899  22.296  10.754
71582W        W72447  10.617  23.224   9.375
71583W        W72448   8.925  25.354  10.852
71584W        W72449   8.780  21.983   7.579
71585W        W72450  10.319  24.582   7.522
71586W        W72451   8.088  22.675  10.408
71587W        W72452   8.522  24.669  10.270
71588W        W72453  10.648  22.660  10.068
71589W        W72454   9.859  25.319   8.036
71590W        W72455  10.098  23.938   9.403
71591W        W72456   8.348  22.354  10.070
71592W        W72457   8.817  23.423  10.827
71593W        W72458   8.320  24.602   8.021
71594W        W72459  10.075  24.100   8.285
71595W        W72460   7.843  22.726  10.009
71596W        W72461   9.172  24.788   8.473
71597W        W72462  10.922  23.348   8.654
71598W        W72463   9.144  21.981  10.373
71599W        W72464   9.924  24.686   9.452
71600W        W72465  10.227  25.030   9.160
71601W        W72466   9.446  24.832   7.588
71602W        W72467   7.456  24.724  10.430
71603W        W72468   8.199  22.716   9.668
71604W        W72469   8.169  22.064   8.778
71605W        W72470   9.790  22.906   9.470
71606W        W72471   8.588  24.077   7.670
71607W        W72472  10.586  24.019   9.169
71608W        W72473   7.913  24.777  10.592
71609W        W72474  10.300  25.459   8.389
71610W        W72475   8.399  22.479   8.834
71611W        W72476   8.168  23.972   8.924
71612W        W72477   8.481  25.383   9.674
71613W        W72478  10.548  25.479  10.706
71614W        W72479   9.707  23.667   9.639
71615W        W72480   7.556  23.465   7.554
71616W        W72481  10.690  25.123   8.251
71617W        W72482  10.527  22.447   7.870
71618W        W72483   8.666  21.966  10.273
71619W        W72484  10.372  24.768   8.731
71620W        W72485  10.401  23.324   8.636
71621W        W72486   8.518  22.997   8.852
71622W        W72487   8.763  23.259  10.176
71623W        W72488   9.874  24.412  10.039
71624W        W72489   8.524  22.866  10.151
71625W        W72490   8.503  25.332   8.767
71626W        W72491   7.820  25.291  10.401
71627W        W72492   7.932  24.652   7.531
71628W        W72493  10.449  24.410   8.341
71629W        W72494   8.053  23.202  10.227
71630W        W72495  10.826  23.132   7.708
71631W        W72496   8.571  24.189   8.179
71632W        W72497   9.670  23.571  10.260
71633W        W72498   9.561  23.199   9.804
71634W        W72499   8.121  23.571   9.833
71635W        W72500  10.331  25.459   9.662
71636W        W72501  10.122  22.093  10.656
71637W        W72502   7.786  22.243  10.243
71638W        W72503   8.125  23.266   9.296
71639W        W72504   8.494  23.080   7.418
71640W        W72505   7.297  24.839   9.963
71641W        W72506   8.882  23.548   9.406
71642W        W72507   8.705  22.573   7.511
71643W        W72508   7.840  23.389   8.292
71644W        W72509   7.611  25.241   9.729
71645W        W72510  10.406  23.467   7.837
71646W        W72511  10.501  22.383  10.523
71647W        W72512   9.937  24.592   8.486
71648W        W72513   7.535  23.516  10.663
71649W        W72514  10.501  21.980   7.959
71650W        W72515  10.021  24.455   7.970
71651W        W72516   8.923  23.513   8.055
71652W        W72517  10.110  22.317   7.578
71653W        W72518  10.175  22.924   9.764
71654W        W72519   7.884  23.517   8.971
71655W        W72520   8.178  24.456   8.620
71656W        W72521   9.941  23.076   8.585
71657W        W72522   8.964  22.455   9.281
71658W        W72523  10.926  24.366   9.792
71659W        W72524  10.844  22.353   9.353
71660W        W72525   7.383  25.183   8.729
71661W        W72526   7.892  24.370   8.265
71662W        W72527   7.807  21.987  10.818
71663W        W72528   8.926  24.840  10.920
71664W        W72529  10.681  23.808   8.710
71665W        W72530  10.035  23.985   7.590
71666W        W72531   9.330  25.506   9.802
71667W        W72532  10.187  24.228  10.839
71668W        W72533   9.002  21.938   8.119
71669W        W72534   9.715  22.807   8.978
71670W        W72535   7.401  24.394   9.310
71671W        W72536   8.654  22.356   7.951
71672W        W72537   8.458  23.840  10.800
71673W        W72538   9.452  22.821   8.514
71674W        W72539   9.657  24.231   9.636
71675W        W72540   7.811  24.836  10.071
71676W        W72541   8.402  24.819  10.794
71677W        W72542   8.253  22.616   7.808
71678W        W72543   9.770  22.758   8.133
71679W        W72544   9.728  24.866  10.370
71680W        W72545   8.413  23.458   8.969
71681W        W72546   8.068  25.156   9.834
71682W        W72547  10.813  25.273   7.435
71683W        W72548   7.676  23.945  10.431
71684W        W72549   9.671  24.207   9.119
71685W        W72550   8.107  23.856   8.361
71686W        W72551   8.478  24.863   9.756
71687W        W72552   8.856  22.282   8.797
71688W        W72553   7.467  24.266   7.727
71689W        W72554   8.986  23.217   7.597
71690W        W72555   7.632  23.766   8.616
71691W        W72556   8.922  22.408  10.080
71692W        W72557  10.594  22.117   7.507
71693W        W72558  10.687  23.863  10.606
71694W        W72559   9.341  25.120  10.758
71695W        W72560  10.899  24.214  10.280
71696W        W72561  10.307  25.012  10.891
71697W        W72562   8.046  25.468   9.369
71698W        W72563  10.905  24.090   8.243
71699W        W72564   9.435  23.357   8.756
71700W        W72565   9.202  21.969   8.646
71701W        W72566   8.261  24.953   8.483
71702W        W72567   8.760  22.694   9.708
71703W        W72568   8.460  22.063   9.177
71704W        W72569   7.523  24.885   7.725
71705W        W72570   9.339  24.249   8.443
71706W        W72571   8.214  25.044  10.322
71707W        W72572   7.691  23.867   8.018
71708W        W72573   7.576  22.410   9.017
71709W        W72574   9.124  24.375   9.074
71710W        W72575   7.376  22.229   8.094
71711W        W72576  10.040  23.435  10.021
71712W        W72577   9.917  22.821   7.593
71713W        W72578  10.434  24.493   9.241
71714W        W72579   9.095  24.977   9.072
71715W        W72580   8.507  25.081   7.983
71716W        W72581   9.789  21.984   7.413
71717W        W72582   7.589  25.244   9.154
71718W        W72583   9.786  23.002  10.789
71719W        W72584   7.769  22.532  10.788
71720W        W72585   7.500  23.132   8.121
71721W        W72586   8.191  23.121   7.846
71722W        W72587   9.954  23.448  10.663
71723W        W72588   8.297  23.729   9.372
71724W        W72589   9.771  22.015   8.492
71725W        W72590   8.902  25.446   8.995
71726W        W72591  10.116  24.908   9.932
71727W        W72592   9.700  25.057   9.043
71728W        W72593   9.719  24.037   8.637
71729W        W72594   9.181  22.262   7.708
71730W        W72595  10.862  21.890   8.430
71731W        W72596   8.550  23.525   7.593
71732W        W72597  10.716  22.862   8.583
71733W        W72598   9.408  24.032   7.460
71734W        W72599  10.344  24.232  10.208
71735W        W72600   9.998  24.933   7.675
71736W        W72601   8.613  22.608  10.581
71737W        W72602   8.433  23.192   9.822
71738W        W72603  10.525  24.687  10.099
71739W        W72604   9.625  22.637  10.476
71740W        W72605   7.469  23.108  10.253
71741W        W72606   9.229  23.585   9.979
71742W        W72607   7.586  24.343   8.636
71743W        W72608   7.733  23.640   9.526
71744W        W72609  10.050  23.926   9.876
71745W        W72610   9.822  25.306  10.687
71746W        W72611   9.718  23.045  10.240
71747W        W72612   9.995  25.099   8.645
71748W        W72613   8.997  24.819   9.968
71749W        W72614   8.482  25.174   9.237
71750W        W72615  10.287  24.345   9.656
71751W        W72616   9.337  24.417  10.793
71752W        W72617   7.942  24.370   9.132
71753W        W72618  10.288  24.129   8.777
71754W        W72619   9.929  25.195   9.528
71755W        W72620   7.907  24.924   9.398
71756W        W72621   8.928  22.976  10.608
71757W        W72622   9.379  25.142   8.119
71758W        W72623   8.687  24.397  10.757
71759W        W72624   8.813  24.635   8.134
71760W        W72625   8.034  23.375   7.393
71761W        W72626   7.373  25.461  14.292
71762W        W72627   7.749  24.354  13.815
71763W        W72628  10.454  24.084  11.585
71764W        W72629  10.584  25.169  13.612
71765W        W72630   8.502  25.160  11.138
71766W        W72631   8.585  23.312  12.121
71767W        W72632   8.100  23.160  12.285
71768W        W72633   9.091  23.975  11.719
71769W        W72634   8.766  25.067  14.074
71770W        W72635   7.415  22.628  14.037
71771W        W72636   8.177  21.908  13.839
71772W        W72637   9.871  22.296  12.726
71773W        W72638   9.520  23.167  11.296
71774W        W72639  10.090  22.601  14.387
71775W        W72640   7.456  22.393  13.512
71776W        W72641   7.555  25.012  14.533
71777W        W72642   9.077  24.402  11.265
71778W        W72643   7.509  23.185  12.958
71779W        W72644   8.402  23.076  14.195
71780W        W72645  10.861  22.935  12.694
71781W        W72646  10.625  23.978  13.553
71782W        W72647   8.933  23.311  12.580
71783W        W72648   9.479  24.650  12.949
71784W        W72649   7.979  24.084  13.181
71785W        W72650   7.338  23.612  12.752
71786W        W72651   8.374  23.584  13.944
71787W        W72652  10.645  23.367  14.198
71788W        W72653   8.261  24.811  12.643
71789W        W72654   9.382  24.500  13.777
71790W        W72655   8.602  23.140  13.002
71791W        W72656   8.894  23.924  12.645
71792W        W72657   9.891  24.697  14.493
71793W        W72658   8.970  24.017  14.503
71794W        W72659   8.951  23.733  13.981
71795W        W72660   7.360  23.124  14.503
71796W        W72661  10.192  24.659  14.102
71797W        W72662   7.773  22.241  12.100
71798W        W72663   8.300  24.499  13.099
71799W        W72664  10.763  24.282  12.389
71800W        W72665  10.176  22.682  12.956
71801W        W72666  10.461  22.635  11.051
71802W        W72667  10.926  23.436  13.357
71803W        W72668   8.893  25.143  13.110
71804W        W72669  10.667  24.609  11.548
71805W        W72670   7.796  25.395  11.302
71806W        W72671   8.189  25.441  11.978
71807W        W72672   7.986  22.195  13.404
71808W        W72673  10.609  23.213  13.679
71809W        W72674  10.014  23.635  12.138
71810W        W72675   9.980  23.323  11.165
71811W        W72676   9.188  24.467  13.305
71812W        W72677   8.994  22.797  12.504
71813W        W72678   9.594  24.884  13.498
71814W        W72679  10.465  23.675  11.920
71815W        W72680   9.367  22.333  11.936
71816W        W72681   8.024  25.027  11.619
71817W        W72682   7.395  22.526  12.218
71818W        W72683  10.181  23.133  12.692
71819W        W72684   7.639  24.750  12.607
71820W        W72685   8.980  25.100  11.477
71821W        W72686  10.372  23.126  10.941
71822W        W72687   7.395  24.884  13.105
71823W        W72688   8.186  24.456  13.585
71824W        W72689   8.559  23.816  12.204
71825W        W72690   8.581  22.221  13.297
71826W        W72691  10.810  21.983  12.594
71827W        W72692   8.029  23.855  11.062
71828W        W72693   7.684  22.888  11.241
71829W        W72694   7.746  24.844  12.035
71830W        W72695   8.877  24.327  12.283
71831W        W72696  10.209  25.186  13.997
71832W        W72697   9.135  22.828  11.681
71833W        W72698  10.518  25.226  12.453
71834W        W72699  10.195  23.079  14.051
71835W        W72700  10.908  24.735  12.185
71836W        W72701   9.535  24.027  13.669
71837W        W72702   7.301  23.578  11.875
71838W        W72703   8.412  23.993  13.448
71839W        W72704   9.616  23.257  11.826
71840W        W72705   9.493  23.747  11.930
71841W        W72706   7.836  23.167  13.404
71842W        W72707   7.821  23.043  14.326
71843W        W72708   7.711  21.960  12.485
71844W        W72709   9.479  22.307  13.046
71845W        W72710   9.127  22.492  14.209
71846W        W72711   9.482  22.641  11.387
71847W        W72712  10.665  25.034  14.141
71848W        W72713   9.632  22.115  14.180
71849W        W72714  10.651  24.416  14.302
71850W        W72715  10.081  22.583  13.898
71851W        W72716   9.881  22.521  12.168
71852W        W72717  10.274  23.655  14.572
71853W        W72718   8.014  25.231  12.558
71854W        W72719   8.672  22.948  11.544
71855W        W72720   8.241  22.232  14.208
71856W        W72721  10.293  22.716  11.889
71857W        W72722  10.660  23.198  11.834
71858W        W72723   8.403  25.415  14.305
71859W        W72724   8.329  21.951  11.540
71860W        W72725  10.650  22.485  12.575
71861W        W72726  10.800  24.734  11.020
71862W        W72727   7.707  23.937  12.722
71863W        W72728   9.624  22.524  10.952
71864W        W72729  10.758  24.856  12.672
71865W        W72730  10.797  22.050  13.422
71866W        W72731   9.242  23.262  13.976
71867W        W72732   9.335  24.601  11.679
71868W        W72733   9.735  23.895  14.419
71869W        W72734   9.409  21.872  12.728
71870W        W72735   8.021  22.775  12.791
71871W        W72736   7.575  23.975  13.565
71872W        W72737   9.434  25.168  12.271
71873W        W72738  10.628  22.765  13.143
71874W        W72739   9.265  25.112  13.910
71875W        W72740  10.608  24.171  11.115
71876W        W72741   9.043  23.654  12.176
71877W        W72742  10.895  22.165  13.917
71878W        W72743   9.044  24.000  13.511
71879W        W72744   9.261  22.886  12.956
71880W        W72745  10.113  23.184  11.794
71881W        W72746  10.400  22.917  11.436
71882W        W72747  10.209  24.957  11.825
71883W        W72748  10.043  24.560  12.621
71884W        W72749   9.939  23.639  11.599
71885W        W72750   9.372  23.849  12.585
71886W        W72751  10.253  23.637  12.652
71887W        W72752   7.628  22.652  13.076
71888W        W72753  10.406  23.704  13.903
71889W        W72754  10.757  25.322  13.049
71890W        W72755   8.687  24.766  12.451
71891W        W72756   9.694  25.299  13.775
71892W        W72757   9.688  22.629  13.539
71893W        W72758   8.895  25.337  13.600
71894W        W72759  10.592  22.291  12.066
71895W        W72760  10.383  23.610  13.367
71896W        W72761   7.366  22.931  13.405
71897W        W72762  10.226  22.726  12.423
71898W        W72763  10.637  22.877  14.200
71899W        W72764   9.522  24.576  12.418
71900W        W72765   8.778  25.167  12.031
71901W        W72766   7.893  22.347  11.289
71902W        W72767   8.997  22.001  13.099
71903W        W72768   8.025  25.121  10.947
71904W        W72769   8.399  23.587  11.698
71905W        W72770   9.053  24.216  14.011
71906W        W72771   8.883  22.574  12.001
71907W        W72772  10.239  22.171  12.429
71908W        W72773   9.959  25.453  12.757
71909W        W72774   9.371  25.101  13.097
71910W        W72775   8.767  24.138  13.058
71911W        W72776  10.537  24.861  13.184
71912W        W72777   8.231  22.364  11.953
71913W        W72778   8.753  24.661  12.913
71914W        W72779   8.236  22.592  10.978
71915W        W72780   9.037  23.201  13.372
71916W        W72781   9.885  22.067  13.242
71917W        W72782   7.305  23.910  13.127
71918W        W72783   9.009  23.728  11.285
71919W        W72784   8.277  22.043  11.055
71920W        W72785   9.015  23.124  12.106
71921W        W72786   9.985  22.100  13.805
71922W        W72787   8.573  24.112  13.914
71923W        W72788   9.377  23.894  14.131
71924W        W72789   9.994  23.924  14.024
71925W        W72790   9.278  22.064  14.529
71926W        W72791   8.500  22.680  12.922
71927W        W72792   7.926  22.636  12.320
71928W        W72793   7.712  25.348  11.996
71929W        W72794   9.044  24.678  14.121
71930W        W72795   8.079  24.163  11.480
71931W        W72796   9.759  23.548  12.701
71932W        W72797  10.039  23.347  13.100
71933W        W72798   9.244  24.021  13.034
71934W        W72799   9.714  24.395  11.166
71935W        W72800   9.386  22.416  12.494
71936W        W72801  10.865  22.694  11.762
71937W        W72802   7.359  25.283  13.793
71938W        W72803   7.776  24.509  13.325
71939W        W72804   7.343  25.355  11.557
71940W        W72805   9.242  22.625  13.363
71941W        W72806   8.605  24.648  11.212
71942W        W72807  10.510  25.030  11.398
71943W        W72808   9.485  23.683  11.412
71944W        W72809   8.328  22.874  11.929
71945W        W72810   9.160  22.784  10.981
71946W        W72811   9.744  24.349  14.159
71947W        W72812  10.097  22.255  11.776
71948W        W72813   7.427  22.103  11.224
71949W        W72814   8.713  24.422  13.514
71950W        W72815   8.512  24.338  12.606
71951W        W72816   8.254  24.290  11.004
71952W        W72817   7.495  24.531  11.772
71953W        W72818   7.999  23.601  14.214
71954W        W72819   8.703  22.161  14.400
71955W        W72820   9.412  22.303  13.756
71956W        W72821   8.607  22.071  12.037
71957W        W72822   9.666  22.148  11.542
71958W        W72823   7.611  22.080  13.119
71959W        W72824   7.659  23.043  12.489
71960W        W72825  10.348  22.151  12.895
71961W        W72826   7.770  22.649  11.709
71962W        W72827  10.341  22.337  13.325
71963W        W72828  10.737  23.540  11.010
71964W        W72829   8.029  22.298  12.829
71965W        W72830   9.143  22.870  13.769
71966W        W72831   7.291  22.560  11.247
71967W        W72832   8.077  23.949  13.808
71968W        W72833   9.435  23.347  12.987
71969W        W72834   9.302  25.426  11.283
71970W        W72835   7.448  23.933  10.980
71971W        W72836   8.183  24.344  14.106
71972W        W72837   7.704  23.511  13.737
71973W        W72838   8.695  23.616  13.531
71974W        W72839  10.463  21.975  13.793
71975W        W72840  10.861  23.585  13.784
71976W        W72841  10.849  23.785  11.470
71977W        W72842   9.712  24.117  11.569
71978W        W72843  10.186  25.417  11.264
71979W        W72844   9.363  23.407  14.406
71980W        W72845   7.693  24.374  14.446
71981W        W72846  10.899  22.296  14.398
71982W        W72847  10.617  23.224  13.019
71983W        W72848   8.925  25.354  14.496
71984W        W72849   8.780  21.983  11.223
71985W        W72850  10.319  24.582  11.166
71986W        W72851   8.088  22.675  14.052
71987W        W72852   8.522  24.669  13.914
71988W        W72853  10.648  22.660  13.712
71989W        W72854   9.859  25.319  11.680
71990W        W72855  10.098  23.938  13.047
71991W        W72856   8.348  22.354  13.714
71992W        W72857   8.817  23.423  14.471
71993W        W72858   8.320  24.602  11.665
71994W        W72859  10.075  24.100  11.929
71995W        W72860   7.843  22.726  13.653
71996W        W72861   9.172  24.788  12.117
71997W        W72862  10.922  23.348  12.298
71998W        W72863   9.144  21.981  14.017
71999W        W72864   9.924  24.686  13.096
72000W        W72865  10.227  25.030  12.804
72001W        W72866   9.446  24.832  11.232
72002W        W72867   7.456  24.724  14.074
72003W        W72868   8.199  22.716  13.312
72004W        W72869   8.169  22.064  12.422
72005W        W72870   9.790  22.906  13.114
72006W        W72871   8.588  24.077  11.314
72007W        W72872  10.586  24.019  12.813
72008W        W72873   7.913  24.777  14.236
72009W        W72874  10.300  25.459  12.033
72010W        W72875   8.399  22.479  12.478
72011W        W72876   8.168  23.972  12.568
72012W        W72877   8.481  25.383  13.318
72013W        W72878  10.548  25.479  14.350
72014W        W72879   9.707  23.667  13.283
72015W        W72880   7.556  23.465  11.198
72016W        W72881  10.690  25.123  11.895
72017W        W72882  10.527  22.447  11.514
72018W        W72883   8.666  21.966  13.917
72019W        W72884  10.372  24.768  12.375
72020W        W72885  10.401  23.324  12.280
72021W        W72886   8.518  22.997  12.496
72022W        W72887   8.763  23.259  13.820
72023W        W72888   9.874  24.412  13.683
72024W        W72889   8.524  22.866  13.795
72025W        W72890   8.503  25.332  12.411
72026W        W72891   7.820  25.291  14.045
72027W        W72892   7.932  24.652  11.175
72028W        W72893  10.449  24.410  11.985
72029W        W72894   8.053  23.202  13.871
72030W        W72895  10.826  23.132  11.352
72031W        W72896   8.571  24.189  11.823
72032W        W72897   9.670  23.571  13.904
72033W        W72898   9.561  23.199  13.448
72034W        W72899   8.121  23.571  13.477
72035W        W72900  10.331  25.459  13.306
72036W        W72901  10.122  22.093  14.300
72037W        W72902   7.786  22.243  13.887
72038W        W72903   8.125  23.266  12.940
72039W        W72904   8.494  23.080  11.062
72040W        W72905   7.297  24.839  13.607
72041W        W72906   8.882  23.548  13.050
72042W        W72907   8.705  22.573  11.155
72043W        W72908   7.840  23.389  11.936
72044W        W72909   7.611  25.241  13.373
72045W        W72910  10.406  23.467  11.481
72046W        W72911  10.501  22.383  14.167
72047W        W72912   9.937  24.592  12.130
72048W        W72913   7.535  23.516  14.307
72049W        W72914  10.501  21.980  11.603
72050W        W72915  10.021  24.455  11.614
72051W        W72916   8.923  23.513  11.699
72052W        W72917  10.110  22.317  11.222
72053W        W72918  10.175  22.924  13.408
72054W        W72919   7.884  23.517  12.615
72055W        W72920   8.178  24.456  12.264
72056W        W72921   9.941  23.076  12.229
72057W        W72922   8.964  22.455  12.925
72058W        W72923  10.926  24.366  13.436
72059W        W72924  10.844  22.353  12.997
72060W        W72925   7.383  25.183  12.373
72061W        W72926   7.892  24.370  11.909
72062W        W72927   7.807  21.987  14.462
72063W        W72928   8.926  24.840  14.564
72064W        W72929  10.681  23.808  12.354
72065W        W72930  10.035  23.985  11.234
72066W        W72931   9.330  25.506  13.446
72067W        W72932  10.187  24.228  14.483
72068W        W72933   9.002  21.938  11.763
72069W        W72934   9.715  22.807  12.622
72070W        W72935   7.401  24.394  12.954
72071W        W72936   8.654  22.356  11.595
72072W        W72937   8.458  23.840  14.444
72073W        W72938   9.452  22.821  12.158
72074W        W72939   9.657  24.231  13.280
72075W        W72940   7.811  24.836  13.715
72076W        W72941   8.402  24.819  14.438
72077W        W72942   8.253  22.616  11.452
72078W        W72943   9.770  22.758  11.777
72079W        W72944   9.728  24.866  14.014
72080W        W72945   8.413  23.458  12.613
72081W        W72946   8.068  25.156  13.478
72082W        W72947  10.813  25.273  11.079
72083W        W72948   7.676  23.945  14.075
72084W        W72949   9.671  24.207  12.763
72085W        W72950   8.107  23.856  12.005
72086W        W72951   8.478  24.863  13.400
72087W        W72952   8.856  22.282  12.441
72088W        W72953   7.467  24.266  11.371
72089W        W72954   8.986  23.217  11.241
72090W        W72955   7.632  23.766  12.260
72091W        W72956   8.922  22.408  13.724
72092W        W72957  10.594  22.117  11.151
72093W        W72958  10.687  23.863  14.250
72094W        W72959   9.341  25.120  14.402
72095W        W72960  10.899  24.214  13.924
72096W        W72961  10.307  25.012  14.535
72097W        W72962   8.046  25.468  13.013
72098W        W72963  10.905  24.090  11.887
72099W        W72964   9.435  23.357  12.400
72100W        W72965   9.202  21.969  12.290
72101W        W72966   8.261  24.953  12.127
72102W        W72967   8.760  22.694  13.352
72103W        W72968   8.460  22.063  12.821
72104W        W72969   7.523  24.885  11.369
72105W        W72970   9.339  24.249  12.087
72106W        W72971   8.214  25.044  13.966
72107W        W72972   7.691  23.867  11.662
72108W        W72973   7.576  22.410  12.661
72109W        W72974   9.124  24.375  12.718
72110W        W72975   7.376  22.229  11.738
72111W        W72976  10.040  23.435  13.665
72112W        W72977   9.917  22.821  11.237
72113W        W72978  10.434  24.493  12.885
72114W        W72979   9.095  24.977  12.716
72115W        W72980   8.507  25.081  11.627
72116W        W72981   9.789  21.984  11.057
72117W        W72982   7.589  25.244  12.798
72118W        W72983   9.786  23.002  14.433
72119W        W72984   7.769  22.532  14.432
72120W        W72985   7.500  23.132  11.765
72121W        W72986   8.191  23.121  11.490
72122W        W72987   9.954  23.448  14.307
72123W        W72988   8.297  23.729  13.016
72124W        W72989   9.771  22.015  12.136
72125W        W72990   8.902  25.446  12.639
72126W        W72991  10.116  24.908  13.576
72127W        W72992   9.700  25.057  12.687
72128W        W72993   9.719  24.037  12.281
72129W        W72994   9.181  22.262  11.352
72130W        W72995  10.862  21.890  12.074
72131W        W72996   8.550  23.525  11.237
72132W        W72997  10.716  22.862  12.227
72133W        W72998   9.408  24.032  11.104
72134W        W72999  10.344  24.232  13.852
72135W        W73000   9.998  24.933  11.319
72136W        W73001   8.613  22.608  14.225
72137W        W73002   8.433  23.192  13.466
72138W        W73003  10.525  24.687  13.743
72139W        W73004   9.625  22.637  14.120
72140W        W73005   7.469  23.108  13.897
72141W        W73006   9.229  23.585  13.623
72142W        W73007   7.586  24.343  12.280
72143W        W73008   7.733  23.640  13.170
72144W        W73009  10.050  23.926  13.520
72145W        W73010   9.822  25.306  14.331
72146W        W73011   9.718  23.045  13.884
72147W        W73012   9.995  25.099  12.289
72148W        W73013   8.997  24.819  13.612
72149W        W73014   8.482  25.174  12.881
72150W        W73015  10.287  24.345  13.300
72151W        W73016   9.337  24.417  14.437
72152W        W73017   7.942  24.370  12.776
72153W        W73018  10.288  24.129  12.421
72154W        W73019   9.929  25.195  13.172
72155W        W73020   7.907  24.924  13.042
72156W        W73021   8.928  22.976  14.252
72157W        W73022   9.379  25.142  11.763
72158W        W73023   8.687  24.397  14.401
72159W        W73024   8.813  24.635  11.778
72160W        W73025   8.034  23.375  11.037
72161W        W73026   7.373  25.461  17.936
72162W        W73027   7.749  24.354  17.459
72163W        W73028  10.454  24.084  15.229
72164W        W73029  10.584  25.169  17.256
72165W        W73030   8.502  25.160  14.782
72166W        W73031   8.585  23.312  15.765
72167W        W73032   8.100  23.160  15.929
72168W        W73033   9.091  23.975  15.363
72169W        W73034   8.766  25.067  17.718
72170W        W73035   7.415  22.628  17.681
72171W        W73036   8.177  21.908  17.483
72172W        W73037   9.871  22.296  16.370
72173W        W73038   9.520  23.167  14.940
72174W        W73039  10.090  22.601  18.031
72175W        W73040   7.456  22.393  17.156
72176W        W73041   7.555  25.012  18.177
72177W        W73042   9.077  24.402  14.909
72178W        W73043   7.509  23.185  16.602
72179W        W73044   8.402  23.076  17.839
72180W        W73045  10.861  22.935  16.338
72181W        W73046  10.625  23.978  17.197
72182W        W73047   8.933  23.311  16.224
72183W        W73048   9.479  24.650  16.593
72184W        W73049   7.979  24.084  16.825
72185W        W73050   7.338  23.612  16.396
72186W        W73051   8.374  23.584  17.588
72187W        W73052  10.645  23.367  17.842
72188W        W73053   8.261  24.811  16.287
72189W        W73054   9.382  24.500  17.421
72190W        W73055   8.602  23.140  16.646
72191W        W73056   8.894  23.924  16.289
72192W        W73057   9.891  24.697  18.137
72193W        W73058   8.970  24.017  18.147
72194W        W73059   8.951  23.733  17.625
72195W        W73060   7.360  23.124  18.147
72196W        W73061  10.192  24.659  17.746
72197W        W73062   7.773  22.241  15.744
72198W        W73063   8.300  24.499  16.743
72199W        W73064  10.763  24.282  16.033
72200W        W73065  10.176  22.682  16.600
72201W        W73066  10.461  22.635  14.695
72202W        W73067  10.926  23.436  17.001
72203W        W73068   8.893  25.143  16.754
72204W        W73069  10.667  24.609  15.192
72205W        W73070   7.796  25.395  14.946
72206W        W73071   8.189  25.441  15.622
72207W        W73072   7.986  22.195  17.048
72208W        W73073  10.609  23.213  17.323
72209W        W73074  10.014  23.635  15.782
72210W        W73075   9.980  23.323  14.809
72211W        W73076   9.188  24.467  16.949
72212W        W73077   8.994  22.797  16.148
72213W        W73078   9.594  24.884  17.142
72214W        W73079  10.465  23.675  15.564
72215W        W73080   9.367  22.333  15.580
72216W        W73081   8.024  25.027  15.263
72217W        W73082   7.395  22.526  15.862
72218W        W73083  10.181  23.133  16.336
72219W        W73084   7.639  24.750  16.251
72220W        W73085   8.980  25.100  15.121
72221W        W73086  10.372  23.126  14.585
72222W        W73087   7.395  24.884  16.749
72223W        W73088   8.186  24.456  17.229
72224W        W73089   8.559  23.816  15.848
72225W        W73090   8.581  22.221  16.941
72226W        W73091  10.810  21.983  16.238
72227W        W73092   8.029  23.855  14.706
72228W        W73093   7.684  22.888  14.885
72229W        W73094   7.746  24.844  15.679
72230W        W73095   8.877  24.327  15.927
72231W        W73096  10.209  25.186  17.641
72232W        W73097   9.135  22.828  15.325
72233W        W73098  10.518  25.226  16.097
72234W        W73099  10.195  23.079  17.695
72235W        W73100  10.908  24.735  15.829
72236W        W73101   9.535  24.027  17.313
72237W        W73102   7.301  23.578  15.519
72238W        W73103   8.412  23.993  17.092
72239W        W73104   9.616  23.257  15.470
72240W        W73105   9.493  23.747  15.574
72241W        W73106   7.836  23.167  17.048
72242W        W73107   7.821  23.043  17.970
72243W        W73108   7.711  21.960  16.129
72244W        W73109   9.479  22.307  16.690
72245W        W73110   9.127  22.492  17.853
72246W        W73111   9.482  22.641  15.031
72247W        W73112  10.665  25.034  17.785
72248W        W73113   9.632  22.115  17.824
72249W        W73114  10.651  24.416  17.946
72250W        W73115  10.081  22.583  17.542
72251W        W73116   9.881  22.521  15.812
72252W        W73117  10.274  23.655  18.216
72253W        W73118   8.014  25.231  16.202
72254W        W73119   8.672  22.948  15.188
72255W        W73120   8.241  22.232  17.852
72256W        W73121  10.293  22.716  15.533
72257W        W73122  10.660  23.198  15.478
72258W        W73123   8.403  25.415  17.949
72259W        W73124   8.329  21.951  15.184
72260W        W73125  10.650  22.485  16.219
72261W        W73126  10.800  24.734  14.664
72262W        W73127   7.707  23.937  16.366
72263W        W73128   9.624  22.524  14.596
72264W        W73129  10.758  24.856  16.316
72265W        W73130  10.797  22.050  17.066
72266W        W73131   9.242  23.262  17.620
72267W        W73132   9.335  24.601  15.323
72268W        W73133   9.735  23.895  18.063
72269W        W73134   9.409  21.872  16.372
72270W        W73135   8.021  22.775  16.435
72271W        W73136   7.575  23.975  17.209
72272W        W73137   9.434  25.168  15.915
72273W        W73138  10.628  22.765  16.787
72274W        W73139   9.265  25.112  17.554
72275W        W73140  10.608  24.171  14.759
72276W        W73141   9.043  23.654  15.820
72277W        W73142  10.895  22.165  17.561
72278W        W73143   9.044  24.000  17.155
72279W        W73144   9.261  22.886  16.600
72280W        W73145  10.113  23.184  15.438
72281W        W73146  10.400  22.917  15.080
72282W        W73147  10.209  24.957  15.469
72283W        W73148  10.043  24.560  16.265
72284W        W73149   9.939  23.639  15.243
72285W        W73150   9.372  23.849  16.229
72286W        W73151  10.253  23.637  16.296
72287W        W73152   7.628  22.652  16.720
72288W        W73153  10.406  23.704  17.547
72289W        W73154   8.687  24.766  16.095
72290W        W73155   9.694  25.299  17.419
72291W        W73156   9.688  22.629  17.183
72292W        W73157   8.895  25.337  17.244
72293W        W73158  10.592  22.291  15.710
72294W        W73159  10.383  23.610  17.011
72295W        W73160   7.366  22.931  17.049
72296W        W73161  10.226  22.726  16.067
72297W        W73162  10.637  22.877  17.844
72298W        W73163   9.522  24.576  16.062
72299W        W73164   8.778  25.167  15.675
72300W        W73165   7.893  22.347  14.933
72301W        W73166   8.997  22.001  16.743
72302W        W73167   8.025  25.121  14.591
72303W        W73168   8.399  23.587  15.342
72304W        W73169   9.053  24.216  17.655
72305W        W73170   8.883  22.574  15.645
72306W        W73171  10.239  22.171  16.073
72307W        W73172   9.959  25.453  16.401
72308W        W73173   9.371  25.101  16.741
72309W        W73174   8.767  24.138  16.702
72310W        W73175  10.537  24.861  16.828
72311W        W73176   8.231  22.364  15.597
72312W        W73177   8.753  24.661  16.557
72313W        W73178   8.236  22.592  14.622
72314W        W73179   9.037  23.201  17.016
72315W        W73180   9.885  22.067  16.886
72316W        W73181   7.305  23.910  16.771
72317W        W73182   9.009  23.728  14.929
72318W        W73183   8.277  22.043  14.699
72319W        W73184   9.015  23.124  15.750
72320W        W73185   9.985  22.100  17.449
72321W        W73186   8.573  24.112  17.558
72322W        W73187   9.377  23.894  17.775
72323W        W73188   9.994  23.924  17.668
72324W        W73189   9.278  22.064  18.173
72325W        W73190   8.500  22.680  16.566
72326W        W73191   7.926  22.636  15.964
72327W        W73192   7.712  25.348  15.640
72328W        W73193   9.044  24.678  17.765
72329W        W73194   8.079  24.163  15.124
72330W        W73195   9.759  23.548  16.345
72331W        W73196  10.039  23.347  16.744
72332W        W73197   9.244  24.021  16.678
72333W        W73198   9.714  24.395  14.810
72334W        W73199   9.386  22.416  16.138
72335W        W73200  10.865  22.694  15.406
72336W        W73201   7.359  25.283  17.437
72337W        W73202   7.776  24.509  16.969
72338W        W73203   7.343  25.355  15.201
72339W        W73204   9.242  22.625  17.007
72340W        W73205   8.605  24.648  14.856
72341W        W73206  10.510  25.030  15.042
72342W        W73207   9.485  23.683  15.056
72343W        W73208   8.328  22.874  15.573
72344W        W73209   9.160  22.784  14.625
72345W        W73210   9.744  24.349  17.803
72346W        W73211  10.097  22.255  15.420
72347W        W73212   7.427  22.103  14.868
72348W        W73213   8.713  24.422  17.158
72349W        W73214   8.512  24.338  16.250
72350W        W73215   8.254  24.290  14.648
72351W        W73216   7.495  24.531  15.416
72352W        W73217   7.999  23.601  17.858
72353W        W73218   8.703  22.161  18.044
72354W        W73219   9.412  22.303  17.400
72355W        W73220   8.607  22.071  15.681
72356W        W73221   9.666  22.148  15.186
72357W        W73222   7.611  22.080  16.763
72358W        W73223   7.659  23.043  16.133
72359W        W73224  10.348  22.151  16.539
72360W        W73225   7.770  22.649  15.353
72361W        W73226  10.341  22.337  16.969
72362W        W73227  10.737  23.540  14.654
72363W        W73228   8.029  22.298  16.473
72364W        W73229   9.143  22.870  17.413
72365W        W73230   7.291  22.560  14.891
72366W        W73231   8.077  23.949  17.452
72367W        W73232   9.435  23.347  16.631
72368W        W73233   9.302  25.426  14.927
72369W        W73234   7.448  23.933  14.624
72370W        W73235   8.183  24.344  17.750
72371W        W73236   7.704  23.511  17.381
72372W        W73237   8.695  23.616  17.175
72373W        W73238  10.463  21.975  17.437
72374W        W73239  10.861  23.585  17.428
72375W        W73240  10.849  23.785  15.114
72376W        W73241   9.712  24.117  15.213
72377W        W73242  10.186  25.417  14.908
72378W        W73243   9.363  23.407  18.050
72379W        W73244   7.693  24.374  18.090
72380W        W73245  10.899  22.296  18.042
72381W        W73246  10.617  23.224  16.663
72382W        W73247   8.925  25.354  18.140
72383W        W73248   8.780  21.983  14.867
72384W        W73249  10.319  24.582  14.810
72385W        W73250   8.088  22.675  17.696
72386W        W73251   8.522  24.669  17.558
72387W        W73252  10.648  22.660  17.356
72388W        W73253   9.859  25.319  15.324
72389W        W73254  10.098  23.938  16.691
72390W        W73255   8.348  22.354  17.358
72391W        W73256   8.817  23.423  18.115
72392W        W73257   8.320  24.602  15.309
72393W        W73258  10.075  24.100  15.573
72394W        W73259   7.843  22.726  17.297
72395W        W73260   9.172  24.788  15.761
72396W        W73261  10.922  23.348  15.942
72397W        W73262   9.144  21.981  17.661
72398W        W73263   9.924  24.686  16.740
72399W        W73264  10.227  25.030  16.448
72400W        W73265   9.446  24.832  14.876
72401W        W73266   7.456  24.724  17.718
72402W        W73267   8.199  22.716  16.956
72403W        W73268   8.169  22.064  16.066
72404W        W73269   9.790  22.906  16.758
72405W        W73270   8.588  24.077  14.958
72406W        W73271  10.586  24.019  16.457
72407W        W73272   7.913  24.777  17.880
72408W        W73273  10.300  25.459  15.677
72409W        W73274   8.399  22.479  16.122
72410W        W73275   8.168  23.972  16.212
72411W        W73276   8.481  25.383  16.962
72412W        W73277  10.548  25.479  17.994
72413W        W73278   9.707  23.667  16.927
72414W        W73279   7.556  23.465  14.842
72415W        W73280  10.690  25.123  15.539
72416W        W73281  10.527  22.447  15.158
72417W        W73282   8.666  21.966  17.561
72418W        W73283  10.372  24.768  16.019
72419W        W73284  10.401  23.324  15.924
72420W        W73285   8.518  22.997  16.140
72421W        W73286   8.763  23.259  17.464
72422W        W73287   9.874  24.412  17.327
72423W        W73288   8.524  22.866  17.439
72424W        W73289   8.503  25.332  16.055
72425W        W73290   7.820  25.291  17.689
72426W        W73291   7.932  24.652  14.819
72427W        W73292  10.449  24.410  15.629
72428W        W73293   8.053  23.202  17.515
72429W        W73294  10.826  23.132  14.996
72430W        W73295   8.571  24.189  15.467
72431W        W73296   9.670  23.571  17.548
72432W        W73297   9.561  23.199  17.092
72433W        W73298   8.121  23.571  17.121
72434W        W73299  10.331  25.459  16.950
72435W        W73300  10.122  22.093  17.944
72436W        W73301   7.786  22.243  17.531
72437W        W73302   8.125  23.266  16.584
72438W        W73303   8.494  23.080  14.706
72439W        W73304   7.297  24.839  17.251
72440W        W73305   8.882  23.548  16.694
72441W        W73306   8.705  22.573  14.799
72442W        W73307   7.840  23.389  15.580
72443W        W73308   7.611  25.241  17.017
72444W        W73309  10.406  23.467  15.125
72445W        W73310  10.501  22.383  17.811
72446W        W73311   9.937  24.592  15.774
72447W        W73312   7.535  23.516  17.951
72448W        W73313  10.501  21.980  15.247
72449W        W73314  10.021  24.455  15.258
72450W        W73315   8.923  23.513  15.343
72451W        W73316  10.110  22.317  14.866
72452W        W73317  10.175  22.924  17.052
72453W        W73318   7.884  23.517  16.259
72454W        W73319   8.178  24.456  15.908
72455W        W73320   9.941  23.076  15.873
72456W        W73321   8.964  22.455  16.569
72457W        W73322  10.926  24.366  17.080
72458W        W73323  10.844  22.353  16.641
72459W        W73324   7.383  25.183  16.017
72460W        W73325   7.892  24.370  15.553
72461W        W73326   7.807  21.987  18.106
72462W        W73327   8.926  24.840  18.208
72463W        W73328  10.681  23.808  15.998
72464W        W73329  10.035  23.985  14.878
72465W        W73330   9.330  25.506  17.090
72466W        W73331  10.187  24.228  18.127
72467W        W73332   9.002  21.938  15.407
72468W        W73333   9.715  22.807  16.266
72469W        W73334   7.401  24.394  16.598
72470W        W73335   8.654  22.356  15.239
72471W        W73336   8.458  23.840  18.088
72472W        W73337   9.452  22.821  15.802
72473W        W73338   9.657  24.231  16.924
72474W        W73339   7.811  24.836  17.359
72475W        W73340   8.402  24.819  18.082
72476W        W73341   8.253  22.616  15.096
72477W        W73342   9.770  22.758  15.421
72478W        W73343   9.728  24.866  17.658
72479W        W73344   8.413  23.458  16.257
72480W        W73345   8.068  25.156  17.122
72481W        W73346  10.813  25.273  14.723
72482W        W73347   7.676  23.945  17.719
72483W        W73348   9.671  24.207  16.407
72484W        W73349   8.107  23.856  15.649
72485W        W73350   8.478  24.863  17.044
72486W        W73351   8.856  22.282  16.085
72487W        W73352   7.467  24.266  15.015
72488W        W73353   8.986  23.217  14.885
72489W        W73354   7.632  23.766  15.904
72490W        W73355   8.922  22.408  17.368
72491W        W73356  10.594  22.117  14.795
72492W        W73357  10.687  23.863  17.894
72493W        W73358   9.341  25.120  18.046
72494W        W73359  10.899  24.214  17.568
72495W        W73360  10.307  25.012  18.179
72496W        W73361   8.046  25.468  16.657
72497W        W73362  10.905  24.090  15.531
72498W        W73363   9.435  23.357  16.044
72499W        W73364   9.202  21.969  15.934
72500W        W73365   8.261  24.953  15.771
72501W        W73366   8.760  22.694  16.996
72502W        W73367   8.460  22.063  16.465
72503W        W73368   7.523  24.885  15.013
72504W        W73369   9.339  24.249  15.731
72505W        W73370   8.214  25.044  17.610
72506W        W73371   7.691  23.867  15.306
72507W        W73372   7.576  22.410  16.305
72508W        W73373   9.124  24.375  16.362
72509W        W73374   7.376  22.229  15.382
72510W        W73375  10.040  23.435  17.309
72511W        W73376   9.917  22.821  14.881
72512W        W73377  10.434  24.493  16.529
72513W        W73378   9.095  24.977  16.360
72514W        W73379   8.507  25.081  15.271
72515W        W73380   9.789  21.984  14.701
72516W        W73381   7.589  25.244  16.442
72517W        W73382   9.786  23.002  18.077
72518W        W73383   7.769  22.532  18.076
72519W        W73384   7.500  23.132  15.409
72520W        W73385   8.191  23.121  15.134
72521W        W73386   9.954  23.448  17.951
72522W        W73387   8.297  23.729  16.660
72523W        W73388   9.771  22.015  15.780
72524W        W73389   8.902  25.446  16.283
72525W        W73390  10.116  24.908  17.220
72526W        W73391   9.700  25.057  16.331
72527W        W73392   9.719  24.037  15.925
72528W        W73393   9.181  22.262  14.996
72529W        W73394  10.862  21.890  15.718
72530W        W73395   8.550  23.525  14.881
72531W        W73396  10.716  22.862  15.871
72532W        W73397   9.408  24.032  14.748
72533W        W73398  10.344  24.232  17.496
72534W        W73399   9.998  24.933  14.963
72535W        W73400   8.613  22.608  17.869
72536W        W73401   8.433  23.192  17.110
72537W        W73402  10.525  24.687  17.387
72538W        W73403   9.625  22.637  17.764
72539W        W73404   7.469  23.108  17.541
72540W        W73405   9.229  23.585  17.267
72541W        W73406   7.586  24.343  15.924
72542W        W73407   7.733  23.640  16.814
72543W        W73408  10.050  23.926  17.164
72544W        W73409   9.822  25.306  17.975
72545W        W73410   9.718  23.045  17.528
72546W        W73411   9.995  25.099  15.933
72547W        W73412   8.997  24.819  17.256
72548W        W73413   8.482  25.174  16.525
72549W        W73414  10.287  24.345  16.944
72550W        W73415   9.337  24.417  18.081
72551W        W73416   7.942  24.370  16.420
72552W        W73417  10.288  24.129  16.065
72553W        W73418   9.929  25.195  16.816
72554W        W73419   7.907  24.924  16.686
72555W        W73420   8.928  22.976  17.896
72556W        W73421   9.379  25.142  15.407
72557W        W73422   8.687  24.397  18.045
72558W        W73423   8.813  24.635  15.422
72559W        W73424   8.034  23.375  14.681
72560W        W73425   7.373  25.461  21.580
72561W        W73426   7.749  24.354  21.103
72562W        W73427  10.454  24.084  18.873
72563W        W73428  10.584  25.169  20.900
72564W        W73429   8.502  25.160  18.426
72565W        W73430   8.585  23.312  19.409
72566W        W73431   8.100  23.160  19.573
72567W        W73432   9.091  23.975  19.007
72568W        W73433   8.766  25.067  21.362
72569W        W73434   7.415  22.628  21.325
72570W        W73435   8.177  21.908  21.127
72571W        W73436   9.871  22.296  20.014
72572W        W73437   9.520  23.167  18.584
72573W        W73438  10.090  22.601  21.675
72574W        W73439   7.456  22.393  20.800
72575W        W73440   7.555  25.012  21.821
72576W        W73441   9.077  24.402  18.553
72577W        W73442   7.509  23.185  20.246
72578W        W73443   8.402  23.076  21.483
72579W        W73444  10.861  22.935  19.982
72580W        W73445  10.625  23.978  20.841
72581W        W73446   8.933  23.311  19.868
72582W        W73447   9.479  24.650  20.237
72583W        W73448   7.979  24.084  20.469
72584W        W73449   7.338  23.612  20.040
72585W        W73450   8.374  23.584  21.232
72586W        W73451  10.645  23.367  21.486
72587W        W73452   8.261  24.811  19.931
72588W        W73453   9.382  24.500  21.065
72589W        W73454   8.602  23.140  20.290
72590W        W73455   8.894  23.924  19.933
72591W        W73456   9.891  24.697  21.781
72592W        W73457   8.970  24.017  21.791
72593W        W73458   8.951  23.733  21.269
72594W        W73459   7.360  23.124  21.791
72595W        W73460  10.192  24.659  21.390
72596W        W73461   7.773  22.241  19.388
72597W        W73462   8.300  24.499  20.387
72598W        W73463  10.763  24.282  19.677
72599W        W73464  10.176  22.682  20.244
72600W        W73465  10.461  22.635  18.339
72601W        W73466  10.926  23.436  20.645
72602W        W73467   8.893  25.143  20.398
72603W        W73468  10.667  24.609  18.836
72604W        W73469   7.796  25.395  18.590
72605W        W73470   8.189  25.441  19.266
72606W        W73471   7.986  22.195  20.692
72607W        W73472  10.609  23.213  20.967
72608W        W73473  10.014  23.635  19.426
72609W        W73474   9.980  23.323  18.453
72610W        W73475   9.188  24.467  20.593
72611W        W73476   8.994  22.797  19.792
72612W        W73477   9.594  24.884  20.786
72613W        W73478  10.465  23.675  19.208
72614W        W73479   9.367  22.333  19.224
72615W        W73480   8.024  25.027  18.907
72616W        W73481   7.395  22.526  19.506
72617W        W73482  10.181  23.133  19.980
72618W        W73483   7.639  24.750  19.895
72619W        W73484   8.980  25.100  18.765
72620W        W73485  10.372  23.126  18.229
72621W        W73486   7.395  24.884  20.393
72622W        W73487   8.186  24.456  20.873
72623W        W73488   8.559  23.816  19.492
72624W        W73489   8.581  22.221  20.585
72625W        W73490  10.810  21.983  19.882
72626W        W73491   8.029  23.855  18.350
72627W        W73492   7.684  22.888  18.529
72628W        W73493   7.746  24.844  19.323
72629W        W73494   8.877  24.327  19.571
72630W        W73495  10.209  25.186  21.285
72631W        W73496   9.135  22.828  18.969
72632W        W73497  10.518  25.226  19.741
72633W        W73498  10.195  23.079  21.339
72634W        W73499  10.908  24.735  19.473
72635W        W73500   9.535  24.027  20.957
72636W        W73501   7.301  23.578  19.163
72637W        W73502   8.412  23.993  20.736
72638W        W73503   9.616  23.257  19.114
72639W        W73504   9.493  23.747  19.218
72640W        W73505   7.836  23.167  20.692
72641W        W73506   7.821  23.043  21.614
72642W        W73507   7.711  21.960  19.773
72643W        W73508   9.479  22.307  20.334
72644W        W73509   9.127  22.492  21.497
72645W        W73510   9.482  22.641  18.675
72646W        W73511  10.665  25.034  21.429
72647W        W73512   9.632  22.115  21.468
72648W        W73513  10.651  24.416  21.590
72649W        W73514  10.081  22.583  21.186
72650W        W73515   9.881  22.521  19.456
72651W        W73516  10.274  23.655  21.860
72652W        W73517   8.014  25.231  19.846
72653W        W73518   8.672  22.948  18.832
72654W        W73519   8.241  22.232  21.496
72655W        W73520  10.293  22.716  19.177
72656W        W73521  10.660  23.198  19.122
72657W        W73522   8.403  25.415  21.593
72658W        W73523   8.329  21.951  18.828
72659W        W73524  10.650  22.485  19.863
72660W        W73525  10.800  24.734  18.308
72661W        W73526   7.707  23.937  20.010
72662W        W73527   9.624  22.524  18.240
72663W        W73528  10.758  24.856  19.960
72664W        W73529  10.797  22.050  20.710
72665W        W73530   9.335  24.601  18.967
72666W        W73531   9.735  23.895  21.707
72667W        W73532   9.409  21.872  20.016
72668W        W73533   8.021  22.775  20.079
72669W        W73534   7.575  23.975  20.853
72670W        W73535   9.434  25.168  19.559
72671W        W73536  10.628  22.765  20.431
72672W        W73537   9.265  25.112  21.198
72673W        W73538  10.608  24.171  18.403
72674W        W73539   9.043  23.654  19.464
72675W        W73540  10.895  22.165  21.205
72676W        W73541   9.044  24.000  20.799
72677W        W73542   9.261  22.886  20.244
72678W        W73543  10.113  23.184  19.082
72679W        W73544  10.400  22.917  18.724
72680W        W73545  10.209  24.957  19.113
72681W        W73546  10.043  24.560  19.909
72682W        W73547   9.939  23.639  18.887
72683W        W73548   9.372  23.849  19.873
72684W        W73549  10.253  23.637  19.940
72685W        W73550   7.628  22.652  20.364
72686W        W73551  10.406  23.704  21.191
72687W        W73552  10.757  25.322  20.337
72688W        W73553   8.687  24.766  19.739
72689W        W73554   9.694  25.299  21.063
72690W        W73555   9.688  22.629  20.827
72691W        W73556   8.895  25.337  20.888
72692W        W73557  10.592  22.291  19.354
72693W        W73558  10.383  23.610  20.655
72694W        W73559   7.366  22.931  20.693
72695W        W73560  10.226  22.726  19.711
72696W        W73561  10.637  22.877  21.488
72697W        W73562   9.522  24.576  19.706
72698W        W73563   8.778  25.167  19.319
72699W        W73564   7.893  22.347  18.577
72700W        W73565   8.997  22.001  20.387
72701W        W73566   8.025  25.121  18.235
72702W        W73567   8.399  23.587  18.986
72703W        W73568   9.053  24.216  21.299
72704W        W73569   8.883  22.574  19.289
72705W        W73570  10.239  22.171  19.717
72706W        W73571   9.959  25.453  20.045
72707W        W73572   9.371  25.101  20.385
72708W        W73573   8.767  24.138  20.346
72709W        W73574  10.537  24.861  20.472
72710W        W73575   8.231  22.364  19.241
72711W        W73576   8.753  24.661  20.201
72712W        W73577   8.236  22.592  18.266
72713W        W73578   9.037  23.201  20.660
72714W        W73579   9.885  22.067  20.530
72715W        W73580   7.305  23.910  20.415
72716W        W73581   9.009  23.728  18.573
72717W        W73582   8.277  22.043  18.343
72718W        W73583   9.015  23.124  19.394
72719W        W73584   9.985  22.100  21.093
72720W        W73585   8.573  24.112  21.202
72721W        W73586   9.377  23.894  21.419
72722W        W73587   9.994  23.924  21.312
72723W        W73588   9.278  22.064  21.817
72724W        W73589   8.500  22.680  20.210
72725W        W73590   7.926  22.636  19.608
72726W        W73591   7.712  25.348  19.284
72727W        W73592   9.044  24.678  21.409
72728W        W73593   8.079  24.163  18.768
72729W        W73594   9.759  23.548  19.989
72730W        W73595  10.039  23.347  20.388
72731W        W73596   9.244  24.021  20.322
72732W        W73597   9.714  24.395  18.454
72733W        W73598   9.386  22.416  19.782
72734W        W73599  10.865  22.694  19.050
72735W        W73600   7.359  25.283  21.081
72736W        W73601   7.776  24.509  20.613
72737W        W73602   7.343  25.355  18.845
72738W        W73603   9.242  22.625  20.651
72739W        W73604   8.605  24.648  18.500
72740W        W73605  10.510  25.030  18.686
72741W        W73606   9.485  23.683  18.700
72742W        W73607   8.328  22.874  19.217
72743W        W73608   9.160  22.784  18.269
72744W        W73609   9.744  24.349  21.447
72745W        W73610  10.097  22.255  19.064
72746W        W73611   7.427  22.103  18.512
72747W        W73612   8.713  24.422  20.802
72748W        W73613   8.512  24.338  19.894
72749W        W73614   8.254  24.290  18.292
72750W        W73615   7.495  24.531  19.060
72751W        W73616   7.999  23.601  21.502
72752W        W73617   8.703  22.161  21.688
72753W        W73618   9.412  22.303  21.044
72754W        W73619   8.607  22.071  19.325
72755W        W73620   9.666  22.148  18.830
72756W        W73621   7.611  22.080  20.407
72757W        W73622   7.659  23.043  19.777
72758W        W73623  10.348  22.151  20.183
72759W        W73624   7.770  22.649  18.997
72760W        W73625  10.341  22.337  20.613
72761W        W73626  10.737  23.540  18.298
72762W        W73627   8.029  22.298  20.117
72763W        W73628   9.143  22.870  21.057
72764W        W73629   7.291  22.560  18.535
72765W        W73630   8.077  23.949  21.096
72766W        W73631   9.435  23.347  20.275
72767W        W73632   9.302  25.426  18.571
72768W        W73633   7.448  23.933  18.268
72769W        W73634   8.183  24.344  21.394
72770W        W73635   7.704  23.511  21.025
72771W        W73636   8.695  23.616  20.819
72772W        W73637  10.463  21.975  21.081
72773W        W73638  10.861  23.585  21.072
72774W        W73639  10.849  23.785  18.758
72775W        W73640   9.712  24.117  18.857
72776W        W73641  10.186  25.417  18.552
72777W        W73642   9.363  23.407  21.694
72778W        W73643   7.693  24.374  21.734
72779W        W73644  10.899  22.296  21.686
72780W        W73645  10.617  23.224  20.307
72781W        W73646   8.925  25.354  21.784
72782W        W73647   8.780  21.983  18.511
72783W        W73648  10.319  24.582  18.454
72784W        W73649   8.088  22.675  21.340
72785W        W73650   8.522  24.669  21.202
72786W        W73651  10.648  22.660  21.000
72787W        W73652   9.859  25.319  18.968
72788W        W73653  10.098  23.938  20.335
72789W        W73654   8.348  22.354  21.002
72790W        W73655   8.817  23.423  21.759
72791W        W73656   8.320  24.602  18.953
72792W        W73657  10.075  24.100  19.217
72793W        W73658   7.843  22.726  20.941
72794W        W73659   9.172  24.788  19.405
72795W        W73660  10.922  23.348  19.586
72796W        W73661   9.144  21.981  21.305
72797W        W73662   9.924  24.686  20.384
72798W        W73663  10.227  25.030  20.092
72799W        W73664   9.446  24.832  18.520
72800W        W73665   7.456  24.724  21.362
72801W        W73666   8.199  22.716  20.600
72802W        W73667   8.169  22.064  19.710
72803W        W73668   9.790  22.906  20.402
72804W        W73669   8.588  24.077  18.602
72805W        W73670  10.586  24.019  20.101
72806W        W73671   7.913  24.777  21.524
72807W        W73672  10.300  25.459  19.321
72808W        W73673   8.399  22.479  19.766
72809W        W73674   8.168  23.972  19.856
72810W        W73675   8.481  25.383  20.606
72811W        W73676  10.548  25.479  21.638
72812W        W73677   9.707  23.667  20.571
72813W        W73678   7.556  23.465  18.486
72814W        W73679  10.690  25.123  19.183
72815W        W73680  10.527  22.447  18.802
72816W        W73681   8.666  21.966  21.205
72817W        W73682  10.372  24.768  19.663
72818W        W73683  10.401  23.324  19.568
72819W        W73684   8.518  22.997  19.784
72820W        W73685   8.763  23.259  21.108
72821W        W73686   9.874  24.412  20.971
72822W        W73687   8.524  22.866  21.083
72823W        W73688   8.503  25.332  19.699
72824W        W73689   7.820  25.291  21.333
72825W        W73690   7.932  24.652  18.463
72826W        W73691  10.449  24.410  19.273
72827W        W73692   8.053  23.202  21.159
72828W        W73693  10.826  23.132  18.640
72829W        W73694   8.571  24.189  19.111
72830W        W73695   9.670  23.571  21.192
72831W        W73696   9.561  23.199  20.736
72832W        W73697   8.121  23.571  20.765
72833W        W73698  10.331  25.459  20.594
72834W        W73699  10.122  22.093  21.588
72835W        W73700   7.786  22.243  21.175
72836W        W73701   8.125  23.266  20.228
72837W        W73702   8.494  23.080  18.350
72838W        W73703   7.297  24.839  20.895
72839W        W73704   8.882  23.548  20.338
72840W        W73705   8.705  22.573  18.443
72841W        W73706   7.840  23.389  19.224
72842W        W73707   7.611  25.241  20.661
72843W        W73708  10.406  23.467  18.769
72844W        W73709  10.501  22.383  21.455
72845W        W73710   9.937  24.592  19.418
72846W        W73711   7.535  23.516  21.595
72847W        W73712  10.501  21.980  18.891
72848W        W73713  10.021  24.455  18.902
72849W        W73714   8.923  23.513  18.987
72850W        W73715  10.110  22.317  18.510
72851W        W73716  10.175  22.924  20.696
72852W        W73717   7.884  23.517  19.903
72853W        W73718   8.178  24.456  19.552
72854W        W73719   9.941  23.076  19.517
72855W        W73720   8.964  22.455  20.213
72856W        W73721  10.926  24.366  20.724
72857W        W73722  10.844  22.353  20.285
72858W        W73723   7.383  25.183  19.661
72859W        W73724   7.892  24.370  19.197
72860W        W73725   7.807  21.987  21.750
72861W        W73726   8.926  24.840  21.852
72862W        W73727  10.681  23.808  19.642
72863W        W73728  10.035  23.985  18.522
72864W        W73729   9.330  25.506  20.734
72865W        W73730  10.187  24.228  21.771
72866W        W73731   9.002  21.938  19.051
72867W        W73732   9.715  22.807  19.910
72868W        W73733   7.401  24.394  20.242
72869W        W73734   8.654  22.356  18.883
72870W        W73735   8.458  23.840  21.732
72871W        W73736   9.452  22.821  19.446
72872W        W73737   9.657  24.231  20.568
72873W        W73738   7.811  24.836  21.003
72874W        W73739   8.402  24.819  21.726
72875W        W73740   8.253  22.616  18.740
72876W        W73741   9.770  22.758  19.065
72877W        W73742   9.728  24.866  21.302
72878W        W73743   8.413  23.458  19.901
72879W        W73744   8.068  25.156  20.766
72880W        W73745  10.813  25.273  18.367
72881W        W73746   7.676  23.945  21.363
72882W        W73747   9.671  24.207  20.051
72883W        W73748   8.107  23.856  19.293
72884W        W73749   8.478  24.863  20.688
72885W        W73750   8.856  22.282  19.729
72886W        W73751   7.467  24.266  18.659
72887W        W73752   8.986  23.217  18.529
72888W        W73753   7.632  23.766  19.548
72889W        W73754   8.922  22.408  21.012
72890W        W73755  10.594  22.117  18.439
72891W        W73756  10.687  23.863  21.538
72892W        W73757   9.341  25.120  21.690
72893W        W73758  10.899  24.214  21.212
72894W        W73759  10.307  25.012  21.823
72895W        W73760   8.046  25.468  20.301
72896W        W73761  10.905  24.090  19.175
72897W        W73762   9.435  23.357  19.688
72898W        W73763   9.202  21.969  19.578
72899W        W73764   8.261  24.953  19.415
72900W        W73765   8.760  22.694  20.640
72901W        W73766   8.460  22.063  20.109
72902W        W73767   7.523  24.885  18.657
72903W        W73768   9.339  24.249  19.375
72904W        W73769   8.214  25.044  21.254
72905W        W73770   7.691  23.867  18.950
72906W        W73771   7.576  22.410  19.949
72907W        W73772   9.124  24.375  20.006
72908W        W73773   7.376  22.229  19.026
72909W        W73774  10.040  23.435  20.953
72910W        W73775   9.917  22.821  18.525
72911W        W73776  10.434  24.493  20.173
72912W        W73777   9.095  24.977  20.004
72913W        W73778   8.507  25.081  18.915
72914W        W73779   9.789  21.984  18.345
72915W        W73780   7.589  25.244  20.086
72916W        W73781   9.786  23.002  21.721
72917W        W73782   7.769  22.532  21.720
72918W        W73783   7.500  23.132  19.053
72919W        W73784   8.191  23.121  18.778
72920W        W73785   9.954  23.448  21.595
72921W        W73786   8.297  23.729  20.304
72922W        W73787   9.771  22.015  19.424
72923W        W73788   8.902  25.446  19.927
72924W        W73789  10.116  24.908  20.864
72925W        W73790   9.700  25.057  19.975
72926W        W73791   9.719  24.037  19.569
72927W        W73792   9.181  22.262  18.640
72928W        W73793  10.862  21.890  19.362
72929W        W73794   8.550  23.525  18.525
72930W        W73795  10.716  22.862  19.515
72931W        W73796   9.408  24.032  18.392
72932W        W73797  10.344  24.232  21.140
72933W        W73798   9.998  24.933  18.607
72934W        W73799   8.613  22.608  21.513
72935W        W73800   8.433  23.192  20.754
72936W        W73801  10.525  24.687  21.031
72937W        W73802   9.625  22.637  21.408
72938W        W73803   7.469  23.108  21.185
72939W        W73804   9.229  23.585  20.911
72940W        W73805   7.586  24.343  19.568
72941W        W73806   7.733  23.640  20.458
72942W        W73807  10.050  23.926  20.808
72943W        W73808   9.822  25.306  21.619
72944W        W73809   9.718  23.045  21.172
72945W        W73810   9.995  25.099  19.577
72946W        W73811   8.997  24.819  20.900
72947W        W73812   8.482  25.174  20.169
72948W        W73813  10.287  24.345  20.588
72949W        W73814   9.337  24.417  21.725
72950W        W73815   7.942  24.370  20.064
72951W        W73816  10.288  24.129  19.709
72952W        W73817   9.929  25.195  20.460
72953W        W73818   7.907  24.924  20.330
72954W        W73819   8.928  22.976  21.540
72955W        W73820   9.379  25.142  19.051
72956W        W73821   8.687  24.397  21.689
72957W        W73822   8.813  24.635  19.066
72958W        W73823   8.034  23.375  18.325
72959W        W73824   7.373  25.461  25.225
72960W        W73825   7.749  24.354  24.748
72961W        W73826  10.454  24.084  22.518
72962W        W73827  10.584  25.169  24.545
72963W        W73828   8.502  25.160  22.071
72964W        W73829   8.585  23.312  23.054
72965W        W73830   8.100  23.160  23.218
72966W        W73831   9.091  23.975  22.652
72967W        W73832   8.766  25.067  25.007
72968W        W73833   7.415  22.628  24.970
72969W        W73834   8.177  21.908  24.772
72970W        W73835   9.871  22.296  23.659
72971W        W73836   9.520  23.167  22.229
72972W        W73837  10.090  22.601  25.320
72973W        W73838   7.456  22.393  24.445
72974W        W73839   7.555  25.012  25.466
72975W        W73840   9.077  24.402  22.198
72976W        W73841   7.509  23.185  23.891
72977W        W73842   8.402  23.076  25.128
72978W        W73843  10.861  22.935  23.627
72979W        W73844  10.625  23.978  24.486
72980W        W73845   8.933  23.311  23.513
72981W        W73846   9.479  24.650  23.882
72982W        W73847   7.979  24.084  24.114
72983W        W73848   7.338  23.612  23.685
72984W        W73849   8.374  23.584  24.877
72985W        W73850  10.645  23.367  25.131
72986W        W73851   8.261  24.811  23.576
72987W        W73852   9.382  24.500  24.710
72988W        W73853   8.602  23.140  23.935
72989W        W73854   8.894  23.924  23.578
72990W        W73855   9.891  24.697  25.426
72991W        W73856   8.970  24.017  25.436
72992W        W73857   8.951  23.733  24.914
72993W        W73858   7.360  23.124  25.436
72994W        W73859  10.192  24.659  25.035
72995W        W73860   7.773  22.241  23.033
72996W        W73861   8.300  24.499  24.032
72997W        W73862  10.763  24.282  23.322
72998W        W73863  10.176  22.682  23.889
72999W        W73864  10.461  22.635  21.984
73000W        W73865  10.926  23.436  24.290
73001W        W73866   8.893  25.143  24.043
73002W        W73867  10.667  24.609  22.481
73003W        W73868   7.796  25.395  22.235
73004W        W73869   8.189  25.441  22.911
73005W        W73870   7.986  22.195  24.337
73006W        W73871  10.609  23.213  24.612
73007W        W73872  10.014  23.635  23.071
73008W        W73873   9.980  23.323  22.098
73009W        W73874   9.188  24.467  24.238
73010W        W73875   8.994  22.797  23.437
73011W        W73876   9.594  24.884  24.431
73012W        W73877  10.465  23.675  22.853
73013W        W73878   9.367  22.333  22.869
73014W        W73879   8.024  25.027  22.552
73015W        W73880   7.395  22.526  23.151
73016W        W73881  10.181  23.133  23.625
73017W        W73882   7.639  24.750  23.540
73018W        W73883   8.980  25.100  22.410
73019W        W73884  10.372  23.126  21.874
73020W        W73885   7.395  24.884  24.038
73021W        W73886   8.186  24.456  24.518
73022W        W73887   8.559  23.816  23.137
73023W        W73888   8.581  22.221  24.230
73024W        W73889  10.810  21.983  23.527
73025W        W73890   8.029  23.855  21.995
73026W        W73891   7.684  22.888  22.174
73027W        W73892   7.746  24.844  22.968
73028W        W73893   8.877  24.327  23.216
73029W        W73894  10.209  25.186  24.930
73030W        W73895   9.135  22.828  22.614
73031W        W73896  10.518  25.226  23.386
73032W        W73897  10.195  23.079  24.984
73033W        W73898  10.908  24.735  23.118
73034W        W73899   9.535  24.027  24.602
73035W        W73900   7.301  23.578  22.808
73036W        W73901   8.412  23.993  24.381
73037W        W73902   9.616  23.257  22.759
73038W        W73903   9.493  23.747  22.863
73039W        W73904   7.836  23.167  24.337
73040W        W73905   7.821  23.043  25.259
73041W        W73906   7.711  21.960  23.418
73042W        W73907   9.479  22.307  23.979
73043W        W73908   9.127  22.492  25.142
73044W        W73909   9.482  22.641  22.320
73045W        W73910  10.665  25.034  25.074
73046W        W73911   9.632  22.115  25.113
73047W        W73912  10.651  24.416  25.235
73048W        W73913  10.081  22.583  24.831
73049W        W73914   9.881  22.521  23.101
73050W        W73915  10.274  23.655  25.505
73051W        W73916   8.014  25.231  23.491
73052W        W73917   8.672  22.948  22.477
73053W        W73918   8.241  22.232  25.141
73054W        W73919  10.293  22.716  22.822
73055W        W73920  10.660  23.198  22.767
73056W        W73921   8.403  25.415  25.238
73057W        W73922   8.329  21.951  22.473
73058W        W73923  10.650  22.485  23.508
73059W        W73924  10.800  24.734  21.953
73060W        W73925   7.707  23.937  23.655
73061W        W73926   9.624  22.524  21.885
73062W        W73927  10.758  24.856  23.605
73063W        W73928  10.797  22.050  24.355
73064W        W73929   9.242  23.262  24.909
73065W        W73930   9.335  24.601  22.612
73066W        W73931   9.735  23.895  25.352
73067W        W73932   9.409  21.872  23.661
73068W        W73933   8.021  22.775  23.724
73069W        W73934   7.575  23.975  24.498
73070W        W73935   9.434  25.168  23.204
73071W        W73936  10.628  22.765  24.076
73072W        W73937   9.265  25.112  24.843
73073W        W73938  10.608  24.171  22.048
73074W        W73939   9.043  23.654  23.109
73075W        W73940  10.895  22.165  24.850
73076W        W73941   9.044  24.000  24.444
73077W        W73942   9.261  22.886  23.889
73078W        W73943  10.113  23.184  22.727
73079W        W73944  10.400  22.917  22.369
73080W        W73945  10.209  24.957  22.758
73081W        W73946  10.043  24.560  23.554
73082W        W73947   9.939  23.639  22.532
73083W        W73948   9.372  23.849  23.518
73084W        W73949  10.253  23.637  23.585
73085W        W73950   7.628  22.652  24.009
73086W        W73951  10.406  23.704  24.836
73087W        W73952  10.757  25.322  23.982
73088W        W73953   8.687  24.766  23.384
73089W        W73954   9.688  22.629  24.472
73090W        W73955   8.895  25.337  24.533
73091W        W73956  10.592  22.291  22.999
73092W        W73957  10.383  23.610  24.300
73093W        W73958   7.366  22.931  24.338
73094W        W73959  10.226  22.726  23.356
73095W        W73960  10.637  22.877  25.133
73096W        W73961   9.522  24.576  23.351
73097W        W73962   8.778  25.167  22.964
73098W        W73963   7.893  22.347  22.222
73099W        W73964   8.997  22.001  24.032
73100W        W73965   8.025  25.121  21.880
73101W        W73966   8.399  23.587  22.631
73102W        W73967   9.053  24.216  24.944
73103W        W73968   8.883  22.574  22.934
73104W        W73969  10.239  22.171  23.362
73105W        W73970   9.959  25.453  23.690
73106W        W73971   9.371  25.101  24.030
73107W        W73972   8.767  24.138  23.991
73108W        W73973  10.537  24.861  24.117
73109W        W73974   8.231  22.364  22.886
73110W        W73975   8.753  24.661  23.846
73111W        W73976   8.236  22.592  21.911
73112W        W73977   9.037  23.201  24.305
73113W        W73978   9.885  22.067  24.175
73114W        W73979   7.305  23.910  24.060
73115W        W73980   9.009  23.728  22.218
73116W        W73981   8.277  22.043  21.988
73117W        W73982   9.015  23.124  23.039
73118W        W73983   9.985  22.100  24.738
73119W        W73984   8.573  24.112  24.847
73120W        W73985   9.377  23.894  25.064
73121W        W73986   9.994  23.924  24.957
73122W        W73987   9.278  22.064  25.462
73123W        W73988   8.500  22.680  23.855
73124W        W73989   7.926  22.636  23.253
73125W        W73990   7.712  25.348  22.929
73126W        W73991   9.044  24.678  25.054
73127W        W73992   8.079  24.163  22.413
73128W        W73993   9.759  23.548  23.634
73129W        W73994  10.039  23.347  24.033
73130W        W73995   9.244  24.021  23.967
73131W        W73996   9.714  24.395  22.099
73132W        W73997   9.386  22.416  23.427
73133W        W73998  10.865  22.694  22.695
73134W        W73999   7.359  25.283  24.726
73135W        W74000   7.776  24.509  24.258
73136W        W74001   7.343  25.355  22.490
73137W        W74002   9.242  22.625  24.296
73138W        W74003   8.605  24.648  22.145
73139W        W74004  10.510  25.030  22.331
73140W        W74005   9.485  23.683  22.345
73141W        W74006   8.328  22.874  22.862
73142W        W74007   9.160  22.784  21.914
73143W        W74008   9.744  24.349  25.092
73144W        W74009  10.097  22.255  22.709
73145W        W74010   7.427  22.103  22.157
73146W        W74011   8.713  24.422  24.447
73147W        W74012   8.512  24.338  23.539
73148W        W74013   8.254  24.290  21.937
73149W        W74014   7.495  24.531  22.705
73150W        W74015   7.999  23.601  25.147
73151W        W74016   8.703  22.161  25.333
73152W        W74017   9.412  22.303  24.689
73153W        W74018   8.607  22.071  22.970
73154W        W74019   9.666  22.148  22.475
73155W        W74020   7.611  22.080  24.052
73156W        W74021   7.659  23.043  23.422
73157W        W74022  10.348  22.151  23.828
73158W        W74023   7.770  22.649  22.642
73159W        W74024  10.341  22.337  24.258
73160W        W74025  10.737  23.540  21.943
73161W        W74026   8.029  22.298  23.762
73162W        W74027   9.143  22.870  24.702
73163W        W74028   7.291  22.560  22.180
73164W        W74029   8.077  23.949  24.741
73165W        W74030   9.435  23.347  23.920
73166W        W74031   9.302  25.426  22.216
73167W        W74032   7.448  23.933  21.913
73168W        W74033   8.183  24.344  25.039
73169W        W74034   7.704  23.511  24.670
73170W        W74035   8.695  23.616  24.464
73171W        W74036  10.463  21.975  24.726
73172W        W74037  10.861  23.585  24.717
73173W        W74038  10.849  23.785  22.403
73174W        W74039   9.712  24.117  22.502
73175W        W74040  10.186  25.417  22.197
73176W        W74041   9.363  23.407  25.339
73177W        W74042   7.693  24.374  25.379
73178W        W74043  10.899  22.296  25.331
73179W        W74044  10.617  23.224  23.952
73180W        W74045   8.925  25.354  25.429
73181W        W74046   8.780  21.983  22.156
73182W        W74047  10.319  24.582  22.099
73183W        W74048   8.088  22.675  24.985
73184W        W74049   8.522  24.669  24.847
73185W        W74050  10.648  22.660  24.645
73186W        W74051   9.859  25.319  22.613
73187W        W74052  10.098  23.938  23.980
73188W        W74053   8.348  22.354  24.647
73189W        W74054   8.817  23.423  25.404
73190W        W74055   8.320  24.602  22.598
73191W        W74056  10.075  24.100  22.862
73192W        W74057   7.843  22.726  24.586
73193W        W74058   9.172  24.788  23.050
73194W        W74059  10.922  23.348  23.231
73195W        W74060   9.144  21.981  24.950
73196W        W74061   9.924  24.686  24.029
73197W        W74062  10.227  25.030  23.737
73198W        W74063   9.446  24.832  22.165
73199W        W74064   7.456  24.724  25.007
73200W        W74065   8.199  22.716  24.245
73201W        W74066   8.169  22.064  23.355
73202W        W74067   9.790  22.906  24.047
73203W        W74068   8.588  24.077  22.247
73204W        W74069  10.586  24.019  23.746
73205W        W74070   7.913  24.777  25.169
73206W        W74071  10.300  25.459  22.966
73207W        W74072   8.399  22.479  23.411
73208W        W74073   8.168  23.972  23.501
73209W        W74074   8.481  25.383  24.251
73210W        W74075  10.548  25.479  25.283
73211W        W74076   9.707  23.667  24.216
73212W        W74077   7.556  23.465  22.131
73213W        W74078  10.690  25.123  22.828
73214W        W74079  10.527  22.447  22.447
73215W        W74080   8.666  21.966  24.850
73216W        W74081  10.372  24.768  23.308
73217W        W74082  10.401  23.324  23.213
73218W        W74083   8.518  22.997  23.429
73219W        W74084   8.763  23.259  24.753
73220W        W74085   9.874  24.412  24.616
73221W        W74086   8.524  22.866  24.728
73222W        W74087   8.503  25.332  23.344
73223W        W74088   7.820  25.291  24.978
73224W        W74089   7.932  24.652  22.108
73225W        W74090  10.449  24.410  22.918
73226W        W74091   8.053  23.202  24.804
73227W        W74092  10.826  23.132  22.285
73228W        W74093   8.571  24.189  22.756
73229W        W74094   9.670  23.571  24.837
73230W        W74095   9.561  23.199  24.381
73231W        W74096   8.121  23.571  24.410
73232W        W74097  10.331  25.459  24.239
73233W        W74098  10.122  22.093  25.233
73234W        W74099   7.786  22.243  24.820
73235W        W74100   8.125  23.266  23.873
73236W        W74101   8.494  23.080  21.995
73237W        W74102   7.297  24.839  24.540
73238W        W74103   8.882  23.548  23.983
73239W        W74104   8.705  22.573  22.088
73240W        W74105   7.840  23.389  22.869
73241W        W74106   7.611  25.241  24.306
73242W        W74107  10.406  23.467  22.414
73243W        W74108  10.501  22.383  25.100
73244W        W74109   9.937  24.592  23.063
73245W        W74110   7.535  23.516  25.240
73246W        W74111  10.501  21.980  22.536
73247W        W74112  10.021  24.455  22.547
73248W        W74113   8.923  23.513  22.632
73249W        W74114  10.110  22.317  22.155
73250W        W74115  10.175  22.924  24.341
73251W        W74116   7.884  23.517  23.548
73252W        W74117   8.178  24.456  23.197
73253W        W74118   9.941  23.076  23.162
73254W        W74119   8.964  22.455  23.858
73255W        W74120  10.926  24.366  24.369
73256W        W74121  10.844  22.353  23.930
73257W        W74122   7.383  25.183  23.306
73258W        W74123   7.892  24.370  22.842
73259W        W74124   7.807  21.987  25.395
73260W        W74125   8.926  24.840  25.497
73261W        W74126  10.681  23.808  23.287
73262W        W74127  10.035  23.985  22.167
73263W        W74128   9.330  25.506  24.379
73264W        W74129  10.187  24.228  25.416
73265W        W74130   9.002  21.938  22.696
73266W        W74131   9.715  22.807  23.555
73267W        W74132   7.401  24.394  23.887
73268W        W74133   8.654  22.356  22.528
73269W        W74134   8.458  23.840  25.377
73270W        W74135   9.452  22.821  23.091
73271W        W74136   9.657  24.231  24.213
73272W        W74137   7.811  24.836  24.648
73273W        W74138   8.402  24.819  25.371
73274W        W74139   8.253  22.616  22.385
73275W        W74140   9.770  22.758  22.710
73276W        W74141   9.728  24.866  24.947
73277W        W74142   8.413  23.458  23.546
73278W        W74143   8.068  25.156  24.411
73279W        W74144  10.813  25.273  22.012
73280W        W74145   7.676  23.945  25.008
73281W        W74146   9.671  24.207  23.696
73282W        W74147   8.107  23.856  22.938
73283W        W74148   8.478  24.863  24.333
73284W        W74149   8.856  22.282  23.374
73285W        W74150   7.467  24.266  22.304
73286W        W74151   8.986  23.217  22.174
73287W        W74152   7.632  23.766  23.193
73288W        W74153   8.922  22.408  24.657
73289W        W74154  10.594  22.117  22.084
73290W        W74155  10.687  23.863  25.183
73291W        W74156   9.341  25.120  25.335
73292W        W74157  10.899  24.214  24.857
73293W        W74158  10.307  25.012  25.468
73294W        W74159   8.046  25.468  23.946
73295W        W74160  10.905  24.090  22.820
73296W        W74161   9.435  23.357  23.333
73297W        W74162   9.202  21.969  23.223
73298W        W74163   8.261  24.953  23.060
73299W        W74164   8.760  22.694  24.285
73300W        W74165   8.460  22.063  23.754
73301W        W74166   7.523  24.885  22.302
73302W        W74167   9.339  24.249  23.020
73303W        W74168   8.214  25.044  24.899
73304W        W74169   7.691  23.867  22.595
73305W        W74170   7.576  22.410  23.594
73306W        W74171   9.124  24.375  23.651
73307W        W74172   7.376  22.229  22.671
73308W        W74173  10.040  23.435  24.598
73309W        W74174   9.917  22.821  22.170
73310W        W74175  10.434  24.493  23.818
73311W        W74176   9.095  24.977  23.649
73312W        W74177   8.507  25.081  22.560
73313W        W74178   9.789  21.984  21.990
73314W        W74179   7.589  25.244  23.731
73315W        W74180   9.786  23.002  25.366
73316W        W74181   7.769  22.532  25.365
73317W        W74182   7.500  23.132  22.698
73318W        W74183   8.191  23.121  22.423
73319W        W74184   9.954  23.448  25.240
73320W        W74185   8.297  23.729  23.949
73321W        W74186   9.771  22.015  23.069
73322W        W74187   8.902  25.446  23.572
73323W        W74188  10.116  24.908  24.509
73324W        W74189   9.700  25.057  23.620
73325W        W74190   9.719  24.037  23.214
73326W        W74191   9.181  22.262  22.285
73327W        W74192  10.862  21.890  23.007
73328W        W74193   8.550  23.525  22.170
73329W        W74194  10.716  22.862  23.160
73330W        W74195   9.408  24.032  22.037
73331W        W74196  10.344  24.232  24.785
73332W        W74197   9.998  24.933  22.252
73333W        W74198   8.613  22.608  25.158
73334W        W74199   8.433  23.192  24.399
73335W        W74200  10.525  24.687  24.676
73336W        W74201   9.625  22.637  25.053
73337W        W74202   7.469  23.108  24.830
73338W        W74203   9.229  23.585  24.556
73339W        W74204   7.586  24.343  23.213
73340W        W74205   7.733  23.640  24.103
73341W        W74206  10.050  23.926  24.453
73342W        W74207   9.822  25.306  25.264
73343W        W74208   9.718  23.045  24.817
73344W        W74209   9.995  25.099  23.222
73345W        W74210   8.997  24.819  24.545
73346W        W74211   8.482  25.174  23.814
73347W        W74212  10.287  24.345  24.233
73348W        W74213   9.337  24.417  25.370
73349W        W74214   7.942  24.370  23.709
73350W        W74215  10.288  24.129  23.354
73351W        W74216   9.929  25.195  24.105
73352W        W74217   7.907  24.924  23.975
73353W        W74218   8.928  22.976  25.185
73354W        W74219   9.379  25.142  22.696
73355W        W74220   8.687  24.397  25.334
73356W        W74221   8.813  24.635  22.711
73357W        W74222   8.034  23.375  21.970
73358W        W74223   7.373  25.461  28.869
73359W        W74224   7.749  24.354  28.392
73360W        W74225  10.454  24.084  26.162
73361W        W74226  10.584  25.169  28.189
73362W        W74227   8.502  25.160  25.715
73363W        W74228   8.585  23.312  26.698
73364W        W74229   8.100  23.160  26.862
73365W        W74230   9.091  23.975  26.296
73366W        W74231   8.766  25.067  28.651
73367W        W74232   7.415  22.628  28.614
73368W        W74233   8.177  21.908  28.416
73369W        W74234   9.871  22.296  27.303
73370W        W74235   9.520  23.167  25.873
73371W        W74236  10.090  22.601  28.964
73372W        W74237   7.456  22.393  28.089
73373W        W74238   7.555  25.012  29.110
73374W        W74239   9.077  24.402  25.842
73375W        W74240   7.509  23.185  27.535
73376W        W74241   8.402  23.076  28.772
73377W        W74242  10.861  22.935  27.271
73378W        W74243  10.625  23.978  28.130
73379W        W74244   8.933  23.311  27.157
73380W        W74245   9.479  24.650  27.526
73381W        W74246   7.979  24.084  27.758
73382W        W74247   7.338  23.612  27.329
73383W        W74248   8.374  23.584  28.521
73384W        W74249  10.645  23.367  28.775
73385W        W74250   8.261  24.811  27.220
73386W        W74251   9.382  24.500  28.354
73387W        W74252   8.602  23.140  27.579
73388W        W74253   8.894  23.924  27.222
73389W        W74254   9.891  24.697  29.070
73390W        W74255   8.970  24.017  29.080
73391W        W74256   8.951  23.733  28.558
73392W        W74257   7.360  23.124  29.080
73393W        W74258  10.192  24.659  28.679
73394W        W74259   7.773  22.241  26.677
73395W        W74260   8.300  24.499  27.676
73396W        W74261  10.763  24.282  26.966
73397W        W74262  10.176  22.682  27.533
73398W        W74263  10.461  22.635  25.628
73399W        W74264  10.926  23.436  27.934
73400W        W74265   8.893  25.143  27.687
73401W        W74266  10.667  24.609  26.125
73402W        W74267   7.796  25.395  25.879
73403W        W74268   8.189  25.441  26.555
73404W        W74269   7.986  22.195  27.981
73405W        W74270  10.609  23.213  28.256
73406W        W74271  10.014  23.635  26.715
73407W        W74272   9.980  23.323  25.742
73408W        W74273   9.188  24.467  27.882
73409W        W74274   8.994  22.797  27.081
73410W        W74275   9.594  24.884  28.075
73411W        W74276  10.465  23.675  26.497
73412W        W74277   9.367  22.333  26.513
73413W        W74278   8.024  25.027  26.196
73414W        W74279   7.395  22.526  26.795
73415W        W74280  10.181  23.133  27.269
73416W        W74281   7.639  24.750  27.184
73417W        W74282   8.980  25.100  26.054
73418W        W74283  10.372  23.126  25.518
73419W        W74284   7.395  24.884  27.682
73420W        W74285   8.186  24.456  28.162
73421W        W74286   8.559  23.816  26.781
73422W        W74287   8.581  22.221  27.874
73423W        W74288  10.810  21.983  27.171
73424W        W74289   8.029  23.855  25.639
73425W        W74290   7.684  22.888  25.818
73426W        W74291   7.746  24.844  26.612
73427W        W74292   8.877  24.327  26.860
73428W        W74293  10.209  25.186  28.574
73429W        W74294   9.135  22.828  26.258
73430W        W74295  10.518  25.226  27.030
73431W        W74296  10.195  23.079  28.628
73432W        W74297  10.908  24.735  26.762
73433W        W74298   9.535  24.027  28.246
73434W        W74299   7.301  23.578  26.452
73435W        W74300   8.412  23.993  28.025
73436W        W74301   9.616  23.257  26.403
73437W        W74302   9.493  23.747  26.507
73438W        W74303   7.836  23.167  27.981
73439W        W74304   7.821  23.043  28.903
73440W        W74305   7.711  21.960  27.062
73441W        W74306   9.479  22.307  27.623
73442W        W74307   9.127  22.492  28.786
73443W        W74308   9.482  22.641  25.964
73444W        W74309  10.665  25.034  28.718
73445W        W74310   9.632  22.115  28.757
73446W        W74311  10.651  24.416  28.879
73447W        W74312  10.081  22.583  28.475
73448W        W74313   9.881  22.521  26.745
73449W        W74314  10.274  23.655  29.149
73450W        W74315   8.014  25.231  27.135
73451W        W74316   8.672  22.948  26.121
73452W        W74317   8.241  22.232  28.785
73453W        W74318  10.293  22.716  26.466
73454W        W74319  10.660  23.198  26.411
73455W        W74320   8.403  25.415  28.882
73456W        W74321   8.329  21.951  26.117
73457W        W74322  10.650  22.485  27.152
73458W        W74323  10.800  24.734  25.597
73459W        W74324   7.707  23.937  27.299
73460W        W74325   9.624  22.524  25.529
73461W        W74326  10.758  24.856  27.249
73462W        W74327  10.797  22.050  27.999
73463W        W74328   9.242  23.262  28.553
73464W        W74329   9.335  24.601  26.256
73465W        W74330   9.735  23.895  28.996
73466W        W74331   9.409  21.872  27.305
73467W        W74332   8.021  22.775  27.368
73468W        W74333   7.575  23.975  28.142
73469W        W74334   9.434  25.168  26.848
73470W        W74335  10.628  22.765  27.720
73471W        W74336   9.265  25.112  28.487
73472W        W74337  10.608  24.171  25.692
73473W        W74338   9.043  23.654  26.753
73474W        W74339  10.895  22.165  28.494
73475W        W74340   9.044  24.000  28.088
73476W        W74341   9.261  22.886  27.533
73477W        W74342  10.113  23.184  26.371
73478W        W74343  10.400  22.917  26.013
73479W        W74344  10.209  24.957  26.402
73480W        W74345  10.043  24.560  27.198
73481W        W74346   9.939  23.639  26.176
73482W        W74347   9.372  23.849  27.162
73483W        W74348  10.253  23.637  27.229
73484W        W74349   7.628  22.652  27.653
73485W        W74350  10.406  23.704  28.480
73486W        W74351  10.757  25.322  27.626
73487W        W74352   8.687  24.766  27.028
73488W        W74353   9.694  25.299  28.352
73489W        W74354   9.688  22.629  28.116
73490W        W74355   8.895  25.337  28.177
73491W        W74356  10.592  22.291  26.643
73492W        W74357  10.383  23.610  27.944
73493W        W74358   7.366  22.931  27.982
73494W        W74359  10.226  22.726  27.000
73495W        W74360  10.637  22.877  28.777
73496W        W74361   9.522  24.576  26.995
73497W        W74362   8.778  25.167  26.608
73498W        W74363   7.893  22.347  25.866
73499W        W74364   8.997  22.001  27.676
73500W        W74365   8.025  25.121  25.524
73501W        W74366   8.399  23.587  26.275
73502W        W74367   9.053  24.216  28.588
73503W        W74368   8.883  22.574  26.578
73504W        W74369  10.239  22.171  27.006
73505W        W74370   9.959  25.453  27.334
73506W        W74371   9.371  25.101  27.674
73507W        W74372   8.767  24.138  27.635
73508W        W74373  10.537  24.861  27.761
73509W        W74374   8.231  22.364  26.530
73510W        W74375   8.753  24.661  27.490
73511W        W74376   8.236  22.592  25.555
73512W        W74377   9.037  23.201  27.949
73513W        W74378   9.885  22.067  27.819
73514W        W74379   7.305  23.910  27.704
73515W        W74380   9.009  23.728  25.862
73516W        W74381   8.277  22.043  25.632
73517W        W74382   9.015  23.124  26.683
73518W        W74383   9.985  22.100  28.382
73519W        W74384   8.573  24.112  28.491
73520W        W74385   9.377  23.894  28.708
73521W        W74386   9.994  23.924  28.601
73522W        W74387   9.278  22.064  29.106
73523W        W74388   8.500  22.680  27.499
73524W        W74389   7.926  22.636  26.897
73525W        W74390   7.712  25.348  26.573
73526W        W74391   9.044  24.678  28.698
73527W        W74392   8.079  24.163  26.057
73528W        W74393   9.759  23.548  27.278
73529W        W74394  10.039  23.347  27.677
73530W        W74395   9.244  24.021  27.611
73531W        W74396   9.714  24.395  25.743
73532W        W74397   9.386  22.416  27.071
73533W        W74398  10.865  22.694  26.339
73534W        W74399   7.359  25.283  28.370
73535W        W74400   7.776  24.509  27.902
73536W        W74401   7.343  25.355  26.134
73537W        W74402   9.242  22.625  27.940
73538W        W74403   8.605  24.648  25.789
73539W        W74404  10.510  25.030  25.975
73540W        W74405   9.485  23.683  25.989
73541W        W74406   8.328  22.874  26.506
73542W        W74407   9.160  22.784  25.558
73543W        W74408   9.744  24.349  28.736
73544W        W74409  10.097  22.255  26.353
73545W        W74410   7.427  22.103  25.801
73546W        W74411   8.713  24.422  28.091
73547W        W74412   8.512  24.338  27.183
73548W        W74413   8.254  24.290  25.581
73549W        W74414   7.495  24.531  26.349
73550W        W74415   7.999  23.601  28.791
73551W        W74416   8.703  22.161  28.977
73552W        W74417   9.412  22.303  28.333
73553W        W74418   8.607  22.071  26.614
73554W        W74419   9.666  22.148  26.119
73555W        W74420   7.611  22.080  27.696
73556W        W74421   7.659  23.043  27.066
73557W        W74422  10.348  22.151  27.472
73558W        W74423   7.770  22.649  26.286
73559W        W74424  10.341  22.337  27.902
73560W        W74425  10.737  23.540  25.587
73561W        W74426   8.029  22.298  27.406
73562W        W74427   9.143  22.870  28.346
73563W        W74428   7.291  22.560  25.824
73564W        W74429   8.077  23.949  28.385
73565W        W74430   9.435  23.347  27.564
73566W        W74431   9.302  25.426  25.860
73567W        W74432   7.448  23.933  25.557
73568W        W74433   8.183  24.344  28.683
73569W        W74434   7.704  23.511  28.314
73570W        W74435   8.695  23.616  28.108
73571W        W74436  10.463  21.975  28.370
73572W        W74437  10.861  23.585  28.361
73573W        W74438  10.849  23.785  26.047
73574W        W74439   9.712  24.117  26.146
73575W        W74440  10.186  25.417  25.841
73576W        W74441   9.363  23.407  28.983
73577W        W74442   7.693  24.374  29.023
73578W        W74443  10.899  22.296  28.975
73579W        W74444  10.617  23.224  27.596
73580W        W74445   8.925  25.354  29.073
73581W        W74446   8.780  21.983  25.800
73582W        W74447  10.319  24.582  25.743
73583W        W74448   8.088  22.675  28.629
73584W        W74449   8.522  24.669  28.491
73585W        W74450  10.648  22.660  28.289
73586W        W74451   9.859  25.319  26.257
73587W        W74452  10.098  23.938  27.624
73588W        W74453   8.348  22.354  28.291
73589W        W74454   8.817  23.423  29.048
73590W        W74455   8.320  24.602  26.242
73591W        W74456  10.075  24.100  26.506
73592W        W74457   7.843  22.726  28.230
73593W        W74458   9.172  24.788  26.694
73594W        W74459  10.922  23.348  26.875
73595W        W74460   9.144  21.981  28.594
73596W        W74461   9.924  24.686  27.673
73597W        W74462  10.227  25.030  27.381
73598W        W74463   9.446  24.832  25.809
73599W        W74464   7.456  24.724  28.651
73600W        W74465   8.199  22.716  27.889
73601W        W74466   8.169  22.064  26.999
73602W        W74467   9.790  22.906  27.691
73603W        W74468   8.588  24.077  25.891
73604W        W74469  10.586  24.019  27.390
73605W        W74470   7.913  24.777  28.813
73606W        W74471  10.300  25.459  26.610
73607W        W74472   8.399  22.479  27.055
73608W        W74473   8.168  23.972  27.145
73609W        W74474   8.481  25.383  27.895
73610W        W74475  10.548  25.479  28.927
73611W        W74476   9.707  23.667  27.860
73612W        W74477   7.556  23.465  25.775
73613W        W74478  10.690  25.123  26.472
73614W        W74479  10.527  22.447  26.091
73615W        W74480   8.666  21.966  28.494
73616W        W74481  10.372  24.768  26.952
73617W        W74482  10.401  23.324  26.857
73618W        W74483   8.518  22.997  27.073
73619W        W74484   8.763  23.259  28.397
73620W        W74485   9.874  24.412  28.260
73621W        W74486   8.524  22.866  28.372
73622W        W74487   8.503  25.332  26.988
73623W        W74488   7.820  25.291  28.622
73624W        W74489   7.932  24.652  25.752
73625W        W74490  10.449  24.410  26.562
73626W        W74491   8.053  23.202  28.448
73627W        W74492  10.826  23.132  25.929
73628W        W74493   8.571  24.189  26.400
73629W        W74494   9.670  23.571  28.481
73630W        W74495   9.561  23.199  28.025
73631W        W74496   8.121  23.571  28.054
73632W        W74497  10.331  25.459  27.883
73633W        W74498  10.122  22.093  28.877
73634W        W74499   7.786  22.243  28.464
73635W        W74500   8.125  23.266  27.517
73636W        W74501   8.494  23.080  25.639
73637W        W74502   7.297  24.839  28.184
73638W        W74503   8.882  23.548  27.627
73639W        W74504   8.705  22.573  25.732
73640W        W74505   7.840  23.389  26.513
73641W        W74506   7.611  25.241  27.950
73642W        W74507  10.406  23.467  26.058
73643W        W74508  10.501  22.383  28.744
73644W        W74509   9.937  24.592  26.707
73645W        W74510   7.535  23.516  28.884
73646W        W74511  10.501  21.980  26.180
73647W        W74512  10.021  24.455  26.191
73648W        W74513   8.923  23.513  26.276
73649W        W74514  10.110  22.317  25.799
73650W        W74515  10.175  22.924  27.985
73651W        W74516   7.884  23.517  27.192
73652W        W74517   8.178  24.456  26.841
73653W        W74518   9.941  23.076  26.806
73654W        W74519   8.964  22.455  27.502
73655W        W74520  10.926  24.366  28.013
73656W        W74521  10.844  22.353  27.574
73657W        W74522   7.383  25.183  26.950
73658W        W74523   7.892  24.370  26.486
73659W        W74524   7.807  21.987  29.039
73660W        W74525   8.926  24.840  29.141
73661W        W74526  10.681  23.808  26.931
73662W        W74527  10.035  23.985  25.811
73663W        W74528   9.330  25.506  28.023
73664W        W74529  10.187  24.228  29.060
73665W        W74530   9.002  21.938  26.340
73666W        W74531   9.715  22.807  27.199
73667W        W74532   7.401  24.394  27.531
73668W        W74533   8.654  22.356  26.172
73669W        W74534   8.458  23.840  29.021
73670W        W74535   9.452  22.821  26.735
73671W        W74536   9.657  24.231  27.857
73672W        W74537   7.811  24.836  28.292
73673W        W74538   8.402  24.819  29.015
73674W        W74539   8.253  22.616  26.029
73675W        W74540   9.770  22.758  26.354
73676W        W74541   9.728  24.866  28.591
73677W        W74542   8.413  23.458  27.190
73678W        W74543   8.068  25.156  28.055
73679W        W74544  10.813  25.273  25.656
73680W        W74545   7.676  23.945  28.652
73681W        W74546   9.671  24.207  27.340
73682W        W74547   8.107  23.856  26.582
73683W        W74548   8.478  24.863  27.977
73684W        W74549   8.856  22.282  27.018
73685W        W74550   7.467  24.266  25.948
73686W        W74551   8.986  23.217  25.818
73687W        W74552   7.632  23.766  26.837
73688W        W74553   8.922  22.408  28.301
73689W        W74554  10.594  22.117  25.728
73690W        W74555  10.687  23.863  28.827
73691W        W74556   9.341  25.120  28.979
73692W        W74557  10.899  24.214  28.501
73693W        W74558  10.307  25.012  29.112
73694W        W74559   8.046  25.468  27.590
73695W        W74560  10.905  24.090  26.464
73696W        W74561   9.435  23.357  26.977
73697W        W74562   9.202  21.969  26.867
73698W        W74563   8.261  24.953  26.704
73699W        W74564   8.760  22.694  27.929
73700W        W74565   8.460  22.063  27.398
73701W        W74566   7.523  24.885  25.946
73702W        W74567   9.339  24.249  26.664
73703W        W74568   8.214  25.044  28.543
73704W        W74569   7.691  23.867  26.239
73705W        W74570   7.576  22.410  27.238
73706W        W74571   9.124  24.375  27.295
73707W        W74572   7.376  22.229  26.315
73708W        W74573  10.040  23.435  28.242
73709W        W74574   9.917  22.821  25.814
73710W        W74575  10.434  24.493  27.462
73711W        W74576   9.095  24.977  27.293
73712W        W74577   8.507  25.081  26.204
73713W        W74578   9.789  21.984  25.634
73714W        W74579   7.589  25.244  27.375
73715W        W74580   9.786  23.002  29.010
73716W        W74581   7.769  22.532  29.009
73717W        W74582   7.500  23.132  26.342
73718W        W74583   8.191  23.121  26.067
73719W        W74584   9.954  23.448  28.884
73720W        W74585   8.297  23.729  27.593
73721W        W74586   9.771  22.015  26.713
73722W        W74587   8.902  25.446  27.216
73723W        W74588  10.116  24.908  28.153
73724W        W74589   9.700  25.057  27.264
73725W        W74590   9.719  24.037  26.858
73726W        W74591   9.181  22.262  25.929
73727W        W74592  10.862  21.890  26.651
73728W        W74593   8.550  23.525  25.814
73729W        W74594  10.716  22.862  26.804
73730W        W74595   9.408  24.032  25.681
73731W        W74596  10.344  24.232  28.429
73732W        W74597   9.998  24.933  25.896
73733W        W74598   8.613  22.608  28.802
73734W        W74599   8.433  23.192  28.043
73735W        W74600  10.525  24.687  28.320
73736W        W74601   9.625  22.637  28.697
73737W        W74602   7.469  23.108  28.474
73738W        W74603   9.229  23.585  28.200
73739W        W74604   7.586  24.343  26.857
73740W        W74605   7.733  23.640  27.747
73741W        W74606  10.050  23.926  28.097
73742W        W74607   9.822  25.306  28.908
73743W        W74608   9.718  23.045  28.461
73744W        W74609   9.995  25.099  26.866
73745W        W74610   8.997  24.819  28.189
73746W        W74611   8.482  25.174  27.458
73747W        W74612  10.287  24.345  27.877
73748W        W74613   9.337  24.417  29.014
73749W        W74614   7.942  24.370  27.353
73750W        W74615  10.288  24.129  26.998
73751W        W74616   9.929  25.195  27.749
73752W        W74617   7.907  24.924  27.619
73753W        W74618   8.928  22.976  28.829
73754W        W74619   9.379  25.142  26.340
73755W        W74620   8.687  24.397  28.978
73756W        W74621   8.813  24.635  26.355
73757W        W74622   8.034  23.375  25.614
73758W        W74623   7.373  29.105   3.359
73759W        W74624   7.749  27.998   2.882
73760W        W74625  10.454  27.728   0.652
73761W        W74626  10.584  28.813   2.679
73762W        W74627   8.502  28.804   0.205
73763W        W74628   8.585  26.956   1.188
73764W        W74629   8.100  26.804   1.352
73765W        W74630   9.091  27.619   0.786
73766W        W74631   8.766  28.711   3.141
73767W        W74632   7.415  26.272   3.104
73768W        W74633   8.177  25.552   2.906
73769W        W74634   9.871  25.940   1.793
73770W        W74635   9.520  26.811   0.363
73771W        W74636  10.090  26.245   3.454
73772W        W74637   7.456  26.037   2.579
73773W        W74638   7.555  28.656   3.600
73774W        W74639   9.077  28.046   0.332
73775W        W74640   7.509  26.829   2.025
73776W        W74641   8.402  26.720   3.262
73777W        W74642  10.861  26.579   1.761
73778W        W74643  10.625  27.622   2.620
73779W        W74644   8.933  26.955   1.647
73780W        W74645   9.479  28.294   2.016
73781W        W74646   7.979  27.728   2.248
73782W        W74647   7.338  27.256   1.819
73783W        W74648   8.374  27.228   3.011
73784W        W74649  10.645  27.011   3.265
73785W        W74650   8.261  28.455   1.710
73786W        W74651   9.382  28.144   2.844
73787W        W74652   8.602  26.784   2.069
73788W        W74653   8.894  27.568   1.712
73789W        W74654   9.891  28.341   3.560
73790W        W74655   8.970  27.661   3.570
73791W        W74656   8.951  27.377   3.048
73792W        W74657   7.360  26.768   3.570
73793W        W74658  10.192  28.303   3.169
73794W        W74659   7.773  25.885   1.167
73795W        W74660   8.300  28.143   2.166
73796W        W74661  10.763  27.926   1.456
73797W        W74662  10.176  26.326   2.023
73798W        W74663  10.461  26.279   0.118
73799W        W74664  10.926  27.080   2.424
73800W        W74665   8.893  28.787   2.177
73801W        W74666  10.667  28.253   0.615
73802W        W74667   7.796  29.039   0.369
73803W        W74668   8.189  29.085   1.045
73804W        W74669   7.986  25.839   2.471
73805W        W74670  10.609  26.857   2.746
73806W        W74671  10.014  27.279   1.205
73807W        W74672   9.980  26.967   0.232
73808W        W74673   9.188  28.111   2.372
73809W        W74674   8.994  26.441   1.571
73810W        W74675   9.594  28.528   2.565
73811W        W74676  10.465  27.319   0.987
73812W        W74677   9.367  25.977   1.003
73813W        W74678   8.024  28.671   0.686
73814W        W74679   7.395  26.170   1.285
73815W        W74680  10.181  26.777   1.759
73816W        W74681   7.639  28.394   1.674
73817W        W74682   8.980  28.744   0.544
73818W        W74683  10.372  26.770   0.008
73819W        W74684   7.395  28.528   2.172
73820W        W74685   8.186  28.100   2.652
73821W        W74686   8.559  27.460   1.271
73822W        W74687   8.581  25.865   2.364
73823W        W74688  10.810  25.627   1.661
73824W        W74689   8.029  27.499   0.129
73825W        W74690   7.684  26.532   0.308
73826W        W74691   7.746  28.488   1.102
73827W        W74692   8.877  27.971   1.350
73828W        W74693  10.209  28.830   3.064
73829W        W74694   9.135  26.472   0.748
73830W        W74695  10.518  28.870   1.520
73831W        W74696  10.195  26.723   3.118
73832W        W74697  10.908  28.379   1.252
73833W        W74698   9.535  27.671   2.736
73834W        W74699   7.301  27.222   0.942
73835W        W74700   8.412  27.637   2.515
73836W        W74701   9.616  26.901   0.893
73837W        W74702   9.493  27.391   0.997
73838W        W74703   7.836  26.811   2.471
73839W        W74704   7.821  26.687   3.393
73840W        W74705   7.711  25.604   1.552
73841W        W74706   9.479  25.951   2.113
73842W        W74707   9.127  26.136   3.276
73843W        W74708   9.482  26.285   0.454
73844W        W74709  10.665  28.678   3.208
73845W        W74710   9.632  25.759   3.247
73846W        W74711  10.651  28.060   3.369
73847W        W74712  10.081  26.227   2.965
73848W        W74713   9.881  26.165   1.235
73849W        W74714  10.274  27.299   3.639
73850W        W74715   8.014  28.875   1.625
73851W        W74716   8.672  26.592   0.611
73852W        W74717   8.241  25.876   3.275
73853W        W74718  10.293  26.360   0.956
73854W        W74719  10.660  26.842   0.901
73855W        W74720   8.403  29.059   3.372
73856W        W74721   8.329  25.595   0.607
73857W        W74722  10.650  26.129   1.642
73858W        W74723  10.800  28.378   0.087
73859W        W74724   7.707  27.581   1.789
73860W        W74725   9.624  26.168   0.019
73861W        W74726  10.758  28.500   1.739
73862W        W74727  10.797  25.694   2.489
73863W        W74728   9.242  26.906   3.043
73864W        W74729   9.335  28.245   0.746
73865W        W74730   9.735  27.539   3.486
73866W        W74731   9.409  25.516   1.795
73867W        W74732   8.021  26.419   1.858
73868W        W74733   7.575  27.619   2.632
73869W        W74734   9.434  28.812   1.338
73870W        W74735  10.628  26.409   2.210
73871W        W74736   9.265  28.756   2.977
73872W        W74737  10.608  27.815   0.182
73873W        W74738   9.043  27.298   1.243
73874W        W74739  10.895  25.809   2.984
73875W        W74740   9.044  27.644   2.578
73876W        W74741   9.261  26.530   2.023
73877W        W74742  10.113  26.828   0.861
73878W        W74743  10.400  26.561   0.503
73879W        W74744  10.209  28.601   0.892
73880W        W74745  10.043  28.204   1.688
73881W        W74746   9.939  27.283   0.666
73882W        W74747   9.372  27.493   1.652
73883W        W74748  10.253  27.281   1.719
73884W        W74749   7.628  26.296   2.143
73885W        W74750  10.406  27.348   2.970
73886W        W74751  10.757  28.966   2.116
73887W        W74752   8.687  28.410   1.518
73888W        W74753   9.694  28.943   2.842
73889W        W74754   9.688  26.273   2.606
73890W        W74755   8.895  28.981   2.667
73891W        W74756  10.592  25.935   1.133
73892W        W74757  10.383  27.254   2.434
73893W        W74758   7.366  26.575   2.472
73894W        W74759  10.226  26.370   1.490
73895W        W74760  10.637  26.521   3.267
73896W        W74761   9.522  28.220   1.485
73897W        W74762   8.778  28.811   1.098
73898W        W74763   7.893  25.991   0.356
73899W        W74764   8.997  25.645   2.166
73900W        W74765   8.025  28.765   0.014
73901W        W74766   8.399  27.231   0.765
73902W        W74767   9.053  27.860   3.078
73903W        W74768   8.883  26.218   1.068
73904W        W74769  10.239  25.815   1.496
73905W        W74770   9.959  29.097   1.824
73906W        W74771   9.371  28.745   2.164
73907W        W74772   8.767  27.782   2.125
73908W        W74773  10.537  28.505   2.251
73909W        W74774   8.231  26.008   1.020
73910W        W74775   8.753  28.305   1.980
73911W        W74776   8.236  26.236   0.045
73912W        W74777   9.037  26.845   2.439
73913W        W74778   9.885  25.711   2.309
73914W        W74779   7.305  27.554   2.194
73915W        W74780   9.009  27.372   0.352
73916W        W74781   8.277  25.687   0.122
73917W        W74782   9.015  26.768   1.173
73918W        W74783   9.985  25.744   2.872
73919W        W74784   8.573  27.756   2.981
73920W        W74785   9.377  27.538   3.198
73921W        W74786   9.994  27.568   3.091
73922W        W74787   9.278  25.708   3.596
73923W        W74788   8.500  26.324   1.989
73924W        W74789   7.926  26.280   1.387
73925W        W74790   7.712  28.992   1.063
73926W        W74791   9.044  28.322   3.188
73927W        W74792   8.079  27.807   0.547
73928W        W74793   9.759  27.192   1.768
73929W        W74794  10.039  26.991   2.167
73930W        W74795   9.244  27.665   2.101
73931W        W74796   9.714  28.039   0.233
73932W        W74797   9.386  26.060   1.561
73933W        W74798  10.865  26.338   0.829
73934W        W74799   7.359  28.927   2.860
73935W        W74800   7.776  28.153   2.392
73936W        W74801   7.343  28.999   0.624
73937W        W74802   9.242  26.269   2.430
73938W        W74803   8.605  28.292   0.279
73939W        W74804  10.510  28.674   0.465
73940W        W74805   9.485  27.327   0.479
73941W        W74806   8.328  26.518   0.996
73942W        W74807   9.160  26.428   0.048
73943W        W74808   9.744  27.993   3.226
73944W        W74809  10.097  25.899   0.843
73945W        W74810   7.427  25.747   0.291
73946W        W74811   8.713  28.066   2.581
73947W        W74812   8.512  27.982   1.673
73948W        W74813   8.254  27.934   0.071
73949W        W74814   7.495  28.175   0.839
73950W        W74815   7.999  27.245   3.281
73951W        W74816   8.703  25.805   3.467
73952W        W74817   9.412  25.947   2.823
73953W        W74818   8.607  25.715   1.104
73954W        W74819   9.666  25.792   0.609
73955W        W74820   7.611  25.724   2.186
73956W        W74821   7.659  26.687   1.556
73957W        W74822  10.348  25.795   1.962
73958W        W74823   7.770  26.293   0.776
73959W        W74824  10.341  25.981   2.392
73960W        W74825  10.737  27.184   0.077
73961W        W74826   8.029  25.942   1.896
73962W        W74827   9.143  26.514   2.836
73963W        W74828   7.291  26.204   0.314
73964W        W74829   8.077  27.593   2.875
73965W        W74830   9.435  26.991   2.054
73966W        W74831   9.302  29.070   0.350
73967W        W74832   7.448  27.577   0.047
73968W        W74833   8.183  27.988   3.173
73969W        W74834   7.704  27.155   2.804
73970W        W74835   8.695  27.260   2.598
73971W        W74836  10.463  25.619   2.860
73972W        W74837  10.861  27.229   2.851
73973W        W74838  10.849  27.429   0.537
73974W        W74839   9.712  27.761   0.636
73975W        W74840  10.186  29.061   0.331
73976W        W74841   9.363  27.051   3.473
73977W        W74842   7.693  28.018   3.513
73978W        W74843  10.899  25.940   3.465
73979W        W74844  10.617  26.868   2.086
73980W        W74845   8.925  28.998   3.563
73981W        W74846   8.780  25.627   0.290
73982W        W74847  10.319  28.226   0.233
73983W        W74848   8.088  26.319   3.119
73984W        W74849   8.522  28.313   2.981
73985W        W74850  10.648  26.304   2.779
73986W        W74851   9.859  28.963   0.747
73987W        W74852  10.098  27.582   2.114
73988W        W74853   8.348  25.998   2.781
73989W        W74854   8.817  27.067   3.538
73990W        W74855   8.320  28.246   0.732
73991W        W74856  10.075  27.744   0.996
73992W        W74857   7.843  26.370   2.720
73993W        W74858   9.172  28.432   1.184
73994W        W74859  10.922  26.992   1.365
73995W        W74860   9.144  25.625   3.084
73996W        W74861   9.924  28.330   2.163
73997W        W74862  10.227  28.674   1.871
73998W        W74863   9.446  28.476   0.299
73999W        W74864   7.456  28.368   3.141
74000W        W74865   8.199  26.360   2.379
74001W        W74866   8.169  25.708   1.489
74002W        W74867   9.790  26.550   2.181
74003W        W74868   8.588  27.721   0.381
74004W        W74869  10.586  27.663   1.880
74005W        W74870   7.913  28.421   3.303
74006W        W74871  10.300  29.103   1.100
74007W        W74872   8.399  26.123   1.545
74008W        W74873   8.168  27.616   1.635
74009W        W74874   8.481  29.027   2.385
74010W        W74875  10.548  29.123   3.417
74011W        W74876   9.707  27.311   2.350
74012W        W74877   7.556  27.109   0.265
74013W        W74878  10.690  28.767   0.962
74014W        W74879  10.527  26.091   0.581
74015W        W74880   8.666  25.610   2.984
74016W        W74881  10.372  28.412   1.442
74017W        W74882  10.401  26.968   1.347
74018W        W74883   8.518  26.641   1.563
74019W        W74884   8.763  26.903   2.887
74020W        W74885   9.874  28.056   2.750
74021W        W74886   8.524  26.510   2.862
74022W        W74887   8.503  28.976   1.478
74023W        W74888   7.820  28.935   3.112
74024W        W74889   7.932  28.296   0.242
74025W        W74890  10.449  28.054   1.052
74026W        W74891   8.053  26.846   2.938
74027W        W74892  10.826  26.776   0.419
74028W        W74893   8.571  27.833   0.890
74029W        W74894   9.670  27.215   2.971
74030W        W74895   9.561  26.843   2.515
74031W        W74896   8.121  27.215   2.544
74032W        W74897  10.331  29.103   2.373
74033W        W74898  10.122  25.737   3.367
74034W        W74899   7.786  25.887   2.954
74035W        W74900   8.125  26.910   2.007
74036W        W74901   8.494  26.724   0.129
74037W        W74902   7.297  28.483   2.674
74038W        W74903   8.882  27.192   2.117
74039W        W74904   8.705  26.217   0.222
74040W        W74905   7.840  27.033   1.003
74041W        W74906   7.611  28.885   2.440
74042W        W74907  10.406  27.111   0.548
74043W        W74908  10.501  26.027   3.234
74044W        W74909   9.937  28.236   1.197
74045W        W74910   7.535  27.160   3.374
74046W        W74911  10.501  25.624   0.670
74047W        W74912  10.021  28.099   0.681
74048W        W74913   8.923  27.157   0.766
74049W        W74914  10.110  25.961   0.289
74050W        W74915  10.175  26.568   2.475
74051W        W74916   7.884  27.161   1.682
74052W        W74917   8.178  28.100   1.331
74053W        W74918   9.941  26.720   1.296
74054W        W74919   8.964  26.099   1.992
74055W        W74920  10.926  28.010   2.503
74056W        W74921  10.844  25.997   2.064
74057W        W74922   7.383  28.827   1.440
74058W        W74923   7.892  28.014   0.976
74059W        W74924   7.807  25.631   3.529
74060W        W74925   8.926  28.484   3.631
74061W        W74926  10.681  27.452   1.421
74062W        W74927  10.035  27.629   0.301
74063W        W74928   9.330  29.150   2.513
74064W        W74929  10.187  27.872   3.550
74065W        W74930   9.002  25.582   0.830
74066W        W74931   9.715  26.451   1.689
74067W        W74932   7.401  28.038   2.021
74068W        W74933   8.654  26.000   0.662
74069W        W74934   8.458  27.484   3.511
74070W        W74935   9.452  26.465   1.225
74071W        W74936   9.657  27.875   2.347
74072W        W74937   7.811  28.480   2.782
74073W        W74938   8.402  28.463   3.505
74074W        W74939   8.253  26.260   0.519
74075W        W74940   9.770  26.402   0.844
74076W        W74941   9.728  28.510   3.081
74077W        W74942   8.413  27.102   1.680
74078W        W74943   8.068  28.800   2.545
74079W        W74944  10.813  28.917   0.146
74080W        W74945   7.676  27.589   3.142
74081W        W74946   9.671  27.851   1.830
74082W        W74947   8.107  27.500   1.072
74083W        W74948   8.478  28.507   2.467
74084W        W74949   8.856  25.926   1.508
74085W        W74950   7.467  27.910   0.438
74086W        W74951   8.986  26.861   0.308
74087W        W74952   7.632  27.410   1.327
74088W        W74953   8.922  26.052   2.791
74089W        W74954  10.594  25.761   0.218
74090W        W74955  10.687  27.507   3.317
74091W        W74956   9.341  28.764   3.469
74092W        W74957  10.899  27.858   2.991
74093W        W74958  10.307  28.656   3.602
74094W        W74959   8.046  29.112   2.080
74095W        W74960  10.905  27.734   0.954
74096W        W74961   9.435  27.001   1.467
74097W        W74962   9.202  25.613   1.357
74098W        W74963   8.261  28.597   1.194
74099W        W74964   8.760  26.338   2.419
74100W        W74965   8.460  25.707   1.888
74101W        W74966   7.523  28.529   0.436
74102W        W74967   9.339  27.893   1.154
74103W        W74968   8.214  28.688   3.033
74104W        W74969   7.691  27.511   0.729
74105W        W74970   7.576  26.054   1.728
74106W        W74971   9.124  28.019   1.785
74107W        W74972   7.376  25.873   0.805
74108W        W74973  10.040  27.079   2.732
74109W        W74974   9.917  26.465   0.304
74110W        W74975  10.434  28.137   1.952
74111W        W74976   9.095  28.621   1.783
74112W        W74977   8.507  28.725   0.694
74113W        W74978   9.789  25.628   0.124
74114W        W74979   7.589  28.888   1.865
74115W        W74980   9.786  26.646   3.500
74116W        W74981   7.769  26.176   3.499
74117W        W74982   7.500  26.776   0.832
74118W        W74983   8.191  26.765   0.557
74119W        W74984   9.954  27.092   3.374
74120W        W74985   8.297  27.373   2.083
74121W        W74986   9.771  25.659   1.203
74122W        W74987   8.902  29.090   1.706
74123W        W74988  10.116  28.552   2.643
74124W        W74989   9.700  28.701   1.754
74125W        W74990   9.719  27.681   1.348
74126W        W74991   9.181  25.906   0.419
74127W        W74992  10.862  25.534   1.141
74128W        W74993   8.550  27.169   0.304
74129W        W74994  10.716  26.506   1.294
74130W        W74995   9.408  27.676   0.171
74131W        W74996  10.344  27.876   2.919
74132W        W74997   9.998  28.577   0.386
74133W        W74998   8.613  26.252   3.292
74134W        W74999   8.433  26.836   2.533
74135W        W75000  10.525  28.331   2.810
74136W        W75001   9.625  26.281   3.187
74137W        W75002   7.469  26.752   2.964
74138W        W75003   9.229  27.229   2.690
74139W        W75004   7.586  27.987   1.347
74140W        W75005   7.733  27.284   2.237
74141W        W75006  10.050  27.570   2.587
74142W        W75007   9.822  28.950   3.398
74143W        W75008   9.718  26.689   2.951
74144W        W75009   9.995  28.743   1.356
74145W        W75010   8.997  28.463   2.679
74146W        W75011   8.482  28.818   1.948
74147W        W75012  10.287  27.989   2.367
74148W        W75013   9.337  28.061   3.504
74149W        W75014   7.942  28.014   1.843
74150W        W75015  10.288  27.773   1.488
74151W        W75016   9.929  28.839   2.239
74152W        W75017   7.907  28.568   2.109
74153W        W75018   8.928  26.620   3.319
74154W        W75019   9.379  28.786   0.830
74155W        W75020   8.687  28.041   3.468
74156W        W75021   8.813  28.279   0.845
74157W        W75022   8.034  27.019   0.104
74158W        W75023   7.373  29.105   7.003
74159W        W75024   7.749  27.998   6.526
74160W        W75025  10.454  27.728   4.296
74161W        W75026  10.584  28.813   6.323
74162W        W75027   8.502  28.804   3.849
74163W        W75028   8.585  26.956   4.832
74164W        W75029   8.100  26.804   4.996
74165W        W75030   9.091  27.619   4.430
74166W        W75031   8.766  28.711   6.785
74167W        W75032   7.415  26.272   6.748
74168W        W75033   8.177  25.552   6.550
74169W        W75034   9.871  25.940   5.437
74170W        W75035   9.520  26.811   4.007
74171W        W75036  10.090  26.245   7.098
74172W        W75037   7.456  26.037   6.223
74173W        W75038   7.555  28.656   7.244
74174W        W75039   9.077  28.046   3.976
74175W        W75040   7.509  26.829   5.669
74176W        W75041   8.402  26.720   6.906
74177W        W75042  10.861  26.579   5.405
74178W        W75043  10.625  27.622   6.264
74179W        W75044   8.933  26.955   5.291
74180W        W75045   9.479  28.294   5.660
74181W        W75046   7.979  27.728   5.892
74182W        W75047   7.338  27.256   5.463
74183W        W75048   8.374  27.228   6.655
74184W        W75049  10.645  27.011   6.909
74185W        W75050   8.261  28.455   5.354
74186W        W75051   9.382  28.144   6.488
74187W        W75052   8.602  26.784   5.713
74188W        W75053   8.894  27.568   5.356
74189W        W75054   9.891  28.341   7.204
74190W        W75055   8.970  27.661   7.214
74191W        W75056   8.951  27.377   6.692
74192W        W75057   7.360  26.768   7.214
74193W        W75058  10.192  28.303   6.813
74194W        W75059   7.773  25.885   4.811
74195W        W75060   8.300  28.143   5.810
74196W        W75061  10.763  27.926   5.100
74197W        W75062  10.176  26.326   5.667
74198W        W75063  10.461  26.279   3.762
74199W        W75064  10.926  27.080   6.068
74200W        W75065   8.893  28.787   5.821
74201W        W75066  10.667  28.253   4.259
74202W        W75067   7.796  29.039   4.013
74203W        W75068   8.189  29.085   4.689
74204W        W75069   7.986  25.839   6.115
74205W        W75070  10.609  26.857   6.390
74206W        W75071  10.014  27.279   4.849
74207W        W75072   9.980  26.967   3.876
74208W        W75073   9.188  28.111   6.016
74209W        W75074   8.994  26.441   5.215
74210W        W75075   9.594  28.528   6.209
74211W        W75076  10.465  27.319   4.631
74212W        W75077   9.367  25.977   4.647
74213W        W75078   8.024  28.671   4.330
74214W        W75079   7.395  26.170   4.929
74215W        W75080  10.181  26.777   5.403
74216W        W75081   7.639  28.394   5.318
74217W        W75082   8.980  28.744   4.188
74218W        W75083  10.372  26.770   3.652
74219W        W75084   7.395  28.528   5.816
74220W        W75085   8.186  28.100   6.296
74221W        W75086   8.559  27.460   4.915
74222W        W75087   8.581  25.865   6.008
74223W        W75088  10.810  25.627   5.305
74224W        W75089   8.029  27.499   3.773
74225W        W75090   7.684  26.532   3.952
74226W        W75091   7.746  28.488   4.746
74227W        W75092   8.877  27.971   4.994
74228W        W75093  10.209  28.830   6.708
74229W        W75094   9.135  26.472   4.392
74230W        W75095  10.518  28.870   5.164
74231W        W75096  10.195  26.723   6.762
74232W        W75097  10.908  28.379   4.896
74233W        W75098   9.535  27.671   6.380
74234W        W75099   7.301  27.222   4.586
74235W        W75100   8.412  27.637   6.159
74236W        W75101   9.616  26.901   4.537
74237W        W75102   9.493  27.391   4.641
74238W        W75103   7.836  26.811   6.115
74239W        W75104   7.821  26.687   7.037
74240W        W75105   7.711  25.604   5.196
74241W        W75106   9.479  25.951   5.757
74242W        W75107   9.127  26.136   6.920
74243W        W75108   9.482  26.285   4.098
74244W        W75109  10.665  28.678   6.852
74245W        W75110   9.632  25.759   6.891
74246W        W75111  10.651  28.060   7.013
74247W        W75112  10.081  26.227   6.609
74248W        W75113   9.881  26.165   4.879
74249W        W75114  10.274  27.299   7.283
74250W        W75115   8.014  28.875   5.269
74251W        W75116   8.672  26.592   4.255
74252W        W75117   8.241  25.876   6.919
74253W        W75118  10.293  26.360   4.600
74254W        W75119  10.660  26.842   4.545
74255W        W75120   8.403  29.059   7.016
74256W        W75121   8.329  25.595   4.251
74257W        W75122  10.650  26.129   5.286
74258W        W75123  10.800  28.378   3.731
74259W        W75124   7.707  27.581   5.433
74260W        W75125   9.624  26.168   3.663
74261W        W75126  10.758  28.500   5.383
74262W        W75127  10.797  25.694   6.133
74263W        W75128   9.242  26.906   6.687
74264W        W75129   9.335  28.245   4.390
74265W        W75130   9.735  27.539   7.130
74266W        W75131   9.409  25.516   5.439
74267W        W75132   8.021  26.419   5.502
74268W        W75133   7.575  27.619   6.276
74269W        W75134   9.434  28.812   4.982
74270W        W75135  10.628  26.409   5.854
74271W        W75136   9.265  28.756   6.621
74272W        W75137  10.608  27.815   3.826
74273W        W75138   9.043  27.298   4.887
74274W        W75139  10.895  25.809   6.628
74275W        W75140   9.044  27.644   6.222
74276W        W75141   9.261  26.530   5.667
74277W        W75142  10.113  26.828   4.505
74278W        W75143  10.400  26.561   4.147
74279W        W75144  10.209  28.601   4.536
74280W        W75145  10.043  28.204   5.332
74281W        W75146   9.939  27.283   4.310
74282W        W75147   9.372  27.493   5.296
74283W        W75148  10.253  27.281   5.363
74284W        W75149   7.628  26.296   5.787
74285W        W75150  10.406  27.348   6.614
74286W        W75151  10.757  28.966   5.760
74287W        W75152   8.687  28.410   5.162
74288W        W75153   9.694  28.943   6.486
74289W        W75154   9.688  26.273   6.250
74290W        W75155   8.895  28.981   6.311
74291W        W75156  10.592  25.935   4.777
74292W        W75157  10.383  27.254   6.078
74293W        W75158   7.366  26.575   6.116
74294W        W75159  10.226  26.370   5.134
74295W        W75160  10.637  26.521   6.911
74296W        W75161   9.522  28.220   5.129
74297W        W75162   8.778  28.811   4.742
74298W        W75163   7.893  25.991   4.000
74299W        W75164   8.997  25.645   5.810
74300W        W75165   8.025  28.765   3.658
74301W        W75166   8.399  27.231   4.409
74302W        W75167   9.053  27.860   6.722
74303W        W75168   8.883  26.218   4.712
74304W        W75169  10.239  25.815   5.140
74305W        W75170   9.959  29.097   5.468
74306W        W75171   9.371  28.745   5.808
74307W        W75172   8.767  27.782   5.769
74308W        W75173  10.537  28.505   5.895
74309W        W75174   8.231  26.008   4.664
74310W        W75175   8.753  28.305   5.624
74311W        W75176   8.236  26.236   3.689
74312W        W75177   9.037  26.845   6.083
74313W        W75178   9.885  25.711   5.953
74314W        W75179   7.305  27.554   5.838
74315W        W75180   9.009  27.372   3.996
74316W        W75181   8.277  25.687   3.766
74317W        W75182   9.015  26.768   4.817
74318W        W75183   9.985  25.744   6.516
74319W        W75184   8.573  27.756   6.625
74320W        W75185   9.377  27.538   6.842
74321W        W75186   9.994  27.568   6.735
74322W        W75187   9.278  25.708   7.240
74323W        W75188   8.500  26.324   5.633
74324W        W75189   7.926  26.280   5.031
74325W        W75190   7.712  28.992   4.707
74326W        W75191   9.044  28.322   6.832
74327W        W75192   8.079  27.807   4.191
74328W        W75193   9.759  27.192   5.412
74329W        W75194  10.039  26.991   5.811
74330W        W75195   9.244  27.665   5.745
74331W        W75196   9.714  28.039   3.877
74332W        W75197   9.386  26.060   5.205
74333W        W75198  10.865  26.338   4.473
74334W        W75199   7.359  28.927   6.504
74335W        W75200   7.776  28.153   6.036
74336W        W75201   7.343  28.999   4.268
74337W        W75202   9.242  26.269   6.074
74338W        W75203   8.605  28.292   3.923
74339W        W75204  10.510  28.674   4.109
74340W        W75205   9.485  27.327   4.123
74341W        W75206   8.328  26.518   4.640
74342W        W75207   9.160  26.428   3.692
74343W        W75208   9.744  27.993   6.870
74344W        W75209  10.097  25.899   4.487
74345W        W75210   7.427  25.747   3.935
74346W        W75211   8.713  28.066   6.225
74347W        W75212   8.512  27.982   5.317
74348W        W75213   8.254  27.934   3.715
74349W        W75214   7.495  28.175   4.483
74350W        W75215   7.999  27.245   6.925
74351W        W75216   8.703  25.805   7.111
74352W        W75217   9.412  25.947   6.467
74353W        W75218   8.607  25.715   4.748
74354W        W75219   9.666  25.792   4.253
74355W        W75220   7.611  25.724   5.830
74356W        W75221   7.659  26.687   5.200
74357W        W75222  10.348  25.795   5.606
74358W        W75223   7.770  26.293   4.420
74359W        W75224  10.341  25.981   6.036
74360W        W75225  10.737  27.184   3.721
74361W        W75226   8.029  25.942   5.540
74362W        W75227   9.143  26.514   6.480
74363W        W75228   7.291  26.204   3.958
74364W        W75229   8.077  27.593   6.519
74365W        W75230   9.435  26.991   5.698
74366W        W75231   9.302  29.070   3.994
74367W        W75232   7.448  27.577   3.691
74368W        W75233   8.183  27.988   6.817
74369W        W75234   7.704  27.155   6.448
74370W        W75235   8.695  27.260   6.242
74371W        W75236  10.463  25.619   6.504
74372W        W75237  10.861  27.229   6.495
74373W        W75238  10.849  27.429   4.181
74374W        W75239   9.712  27.761   4.280
74375W        W75240  10.186  29.061   3.975
74376W        W75241   9.363  27.051   7.117
74377W        W75242   7.693  28.018   7.157
74378W        W75243  10.899  25.940   7.109
74379W        W75244  10.617  26.868   5.730
74380W        W75245   8.925  28.998   7.207
74381W        W75246   8.780  25.627   3.934
74382W        W75247  10.319  28.226   3.877
74383W        W75248   8.088  26.319   6.763
74384W        W75249   8.522  28.313   6.625
74385W        W75250  10.648  26.304   6.423
74386W        W75251   9.859  28.963   4.391
74387W        W75252  10.098  27.582   5.758
74388W        W75253   8.348  25.998   6.425
74389W        W75254   8.817  27.067   7.182
74390W        W75255   8.320  28.246   4.376
74391W        W75256  10.075  27.744   4.640
74392W        W75257   7.843  26.370   6.364
74393W        W75258   9.172  28.432   4.828
74394W        W75259  10.922  26.992   5.009
74395W        W75260   9.144  25.625   6.728
74396W        W75261   9.924  28.330   5.807
74397W        W75262  10.227  28.674   5.515
74398W        W75263   9.446  28.476   3.943
74399W        W75264   7.456  28.368   6.785
74400W        W75265   8.199  26.360   6.023
74401W        W75266   8.169  25.708   5.133
74402W        W75267   9.790  26.550   5.825
74403W        W75268   8.588  27.721   4.025
74404W        W75269  10.586  27.663   5.524
74405W        W75270   7.913  28.421   6.947
74406W        W75271  10.300  29.103   4.744
74407W        W75272   8.399  26.123   5.189
74408W        W75273   8.168  27.616   5.279
74409W        W75274   8.481  29.027   6.029
74410W        W75275  10.548  29.123   7.061
74411W        W75276   9.707  27.311   5.994
74412W        W75277   7.556  27.109   3.909
74413W        W75278  10.690  28.767   4.606
74414W        W75279  10.527  26.091   4.225
74415W        W75280   8.666  25.610   6.628
74416W        W75281  10.372  28.412   5.086
74417W        W75282  10.401  26.968   4.991
74418W        W75283   8.518  26.641   5.207
74419W        W75284   8.763  26.903   6.531
74420W        W75285   9.874  28.056   6.394
74421W        W75286   8.524  26.510   6.506
74422W        W75287   8.503  28.976   5.122
74423W        W75288   7.820  28.935   6.756
74424W        W75289   7.932  28.296   3.886
74425W        W75290  10.449  28.054   4.696
74426W        W75291   8.053  26.846   6.582
74427W        W75292  10.826  26.776   4.063
74428W        W75293   8.571  27.833   4.534
74429W        W75294   9.670  27.215   6.615
74430W        W75295   9.561  26.843   6.159
74431W        W75296   8.121  27.215   6.188
74432W        W75297  10.331  29.103   6.017
74433W        W75298  10.122  25.737   7.011
74434W        W75299   7.786  25.887   6.598
74435W        W75300   8.125  26.910   5.651
74436W        W75301   8.494  26.724   3.773
74437W        W75302   7.297  28.483   6.318
74438W        W75303   8.882  27.192   5.761
74439W        W75304   8.705  26.217   3.866
74440W        W75305   7.840  27.033   4.647
74441W        W75306   7.611  28.885   6.084
74442W        W75307  10.406  27.111   4.192
74443W        W75308  10.501  26.027   6.878
74444W        W75309   9.937  28.236   4.841
74445W        W75310   7.535  27.160   7.018
74446W        W75311  10.501  25.624   4.314
74447W        W75312  10.021  28.099   4.325
74448W        W75313   8.923  27.157   4.410
74449W        W75314  10.110  25.961   3.933
74450W        W75315  10.175  26.568   6.119
74451W        W75316   7.884  27.161   5.326
74452W        W75317   8.178  28.100   4.975
74453W        W75318   9.941  26.720   4.940
74454W        W75319   8.964  26.099   5.636
74455W        W75320  10.926  28.010   6.147
74456W        W75321  10.844  25.997   5.708
74457W        W75322   7.383  28.827   5.084
74458W        W75323   7.892  28.014   4.620
74459W        W75324   7.807  25.631   7.173
74460W        W75325   8.926  28.484   7.275
74461W        W75326  10.681  27.452   5.065
74462W        W75327  10.035  27.629   3.945
74463W        W75328   9.330  29.150   6.157
74464W        W75329  10.187  27.872   7.194
74465W        W75330   9.002  25.582   4.474
74466W        W75331   9.715  26.451   5.333
74467W        W75332   7.401  28.038   5.665
74468W        W75333   8.654  26.000   4.306
74469W        W75334   8.458  27.484   7.155
74470W        W75335   9.452  26.465   4.869
74471W        W75336   9.657  27.875   5.991
74472W        W75337   7.811  28.480   6.426
74473W        W75338   8.402  28.463   7.149
74474W        W75339   8.253  26.260   4.163
74475W        W75340   9.770  26.402   4.488
74476W        W75341   9.728  28.510   6.725
74477W        W75342   8.413  27.102   5.324
74478W        W75343   8.068  28.800   6.189
74479W        W75344  10.813  28.917   3.790
74480W        W75345   7.676  27.589   6.786
74481W        W75346   9.671  27.851   5.474
74482W        W75347   8.107  27.500   4.716
74483W        W75348   8.478  28.507   6.111
74484W        W75349   8.856  25.926   5.152
74485W        W75350   7.467  27.910   4.082
74486W        W75351   8.986  26.861   3.952
74487W        W75352   7.632  27.410   4.971
74488W        W75353   8.922  26.052   6.435
74489W        W75354  10.594  25.761   3.862
74490W        W75355  10.687  27.507   6.961
74491W        W75356   9.341  28.764   7.113
74492W        W75357  10.899  27.858   6.635
74493W        W75358  10.307  28.656   7.246
74494W        W75359   8.046  29.112   5.724
74495W        W75360  10.905  27.734   4.598
74496W        W75361   9.435  27.001   5.111
74497W        W75362   9.202  25.613   5.001
74498W        W75363   8.261  28.597   4.838
74499W        W75364   8.760  26.338   6.063
74500W        W75365   8.460  25.707   5.532
74501W        W75366   7.523  28.529   4.080
74502W        W75367   9.339  27.893   4.798
74503W        W75368   8.214  28.688   6.677
74504W        W75369   7.691  27.511   4.373
74505W        W75370   7.576  26.054   5.372
74506W        W75371   9.124  28.019   5.429
74507W        W75372   7.376  25.873   4.449
74508W        W75373  10.040  27.079   6.376
74509W        W75374   9.917  26.465   3.948
74510W        W75375  10.434  28.137   5.596
74511W        W75376   9.095  28.621   5.427
74512W        W75377   8.507  28.725   4.338
74513W        W75378   9.789  25.628   3.768
74514W        W75379   7.589  28.888   5.509
74515W        W75380   9.786  26.646   7.144
74516W        W75381   7.769  26.176   7.143
74517W        W75382   7.500  26.776   4.476
74518W        W75383   8.191  26.765   4.201
74519W        W75384   9.954  27.092   7.018
74520W        W75385   8.297  27.373   5.727
74521W        W75386   9.771  25.659   4.847
74522W        W75387   8.902  29.090   5.350
74523W        W75388  10.116  28.552   6.287
74524W        W75389   9.700  28.701   5.398
74525W        W75390   9.719  27.681   4.992
74526W        W75391   9.181  25.906   4.063
74527W        W75392  10.862  25.534   4.785
74528W        W75393   8.550  27.169   3.948
74529W        W75394  10.716  26.506   4.938
74530W        W75395   9.408  27.676   3.815
74531W        W75396  10.344  27.876   6.563
74532W        W75397   9.998  28.577   4.030
74533W        W75398   8.613  26.252   6.936
74534W        W75399   8.433  26.836   6.177
74535W        W75400  10.525  28.331   6.454
74536W        W75401   9.625  26.281   6.831
74537W        W75402   7.469  26.752   6.608
74538W        W75403   9.229  27.229   6.334
74539W        W75404   7.586  27.987   4.991
74540W        W75405   7.733  27.284   5.881
74541W        W75406  10.050  27.570   6.231
74542W        W75407   9.822  28.950   7.042
74543W        W75408   9.718  26.689   6.595
74544W        W75409   9.995  28.743   5.000
74545W        W75410   8.997  28.463   6.323
74546W        W75411   8.482  28.818   5.592
74547W        W75412  10.287  27.989   6.011
74548W        W75413   9.337  28.061   7.148
74549W        W75414   7.942  28.014   5.487
74550W        W75415  10.288  27.773   5.132
74551W        W75416   9.929  28.839   5.883
74552W        W75417   7.907  28.568   5.753
74553W        W75418   8.928  26.620   6.963
74554W        W75419   9.379  28.786   4.474
74555W        W75420   8.687  28.041   7.112
74556W        W75421   8.813  28.279   4.489
74557W        W75422   8.034  27.019   3.748
74558W        W75423   7.373  29.105  10.648
74559W        W75424   7.749  27.998  10.171
74560W        W75425  10.454  27.728   7.941
74561W        W75426  10.584  28.813   9.968
74562W        W75427   8.502  28.804   7.494
74563W        W75428   8.585  26.956   8.477
74564W        W75429   8.100  26.804   8.641
74565W        W75430   9.091  27.619   8.075
74566W        W75431   8.766  28.711  10.430
74567W        W75432   7.415  26.272  10.393
74568W        W75433   8.177  25.552  10.195
74569W        W75434   9.871  25.940   9.082
74570W        W75435   9.520  26.811   7.652
74571W        W75436  10.090  26.245  10.743
74572W        W75437   7.456  26.037   9.868
74573W        W75438   7.555  28.656  10.889
74574W        W75439   9.077  28.046   7.621
74575W        W75440   7.509  26.829   9.314
74576W        W75441   8.402  26.720  10.551
74577W        W75442  10.861  26.579   9.050
74578W        W75443  10.625  27.622   9.909
74579W        W75444   8.933  26.955   8.936
74580W        W75445   9.479  28.294   9.305
74581W        W75446   7.979  27.728   9.537
74582W        W75447   7.338  27.256   9.108
74583W        W75448   8.374  27.228  10.300
74584W        W75449  10.645  27.011  10.554
74585W        W75450   8.261  28.455   8.999
74586W        W75451   9.382  28.144  10.133
74587W        W75452   8.602  26.784   9.358
74588W        W75453   8.894  27.568   9.001
74589W        W75454   9.891  28.341  10.849
74590W        W75455   8.970  27.661  10.859
74591W        W75456   8.951  27.377  10.337
74592W        W75457   7.360  26.768  10.859
74593W        W75458  10.192  28.303  10.458
74594W        W75459   7.773  25.885   8.456
74595W        W75460   8.300  28.143   9.455
74596W        W75461  10.763  27.926   8.745
74597W        W75462  10.176  26.326   9.312
74598W        W75463  10.461  26.279   7.407
74599W        W75464  10.926  27.080   9.713
74600W        W75465   8.893  28.787   9.466
74601W        W75466  10.667  28.253   7.904
74602W        W75467   7.796  29.039   7.658
74603W        W75468   8.189  29.085   8.334
74604W        W75469   7.986  25.839   9.760
74605W        W75470  10.609  26.857  10.035
74606W        W75471  10.014  27.279   8.494
74607W        W75472   9.980  26.967   7.521
74608W        W75473   9.188  28.111   9.661
74609W        W75474   8.994  26.441   8.860
74610W        W75475   9.594  28.528   9.854
74611W        W75476  10.465  27.319   8.276
74612W        W75477   9.367  25.977   8.292
74613W        W75478   8.024  28.671   7.975
74614W        W75479   7.395  26.170   8.574
74615W        W75480  10.181  26.777   9.048
74616W        W75481   7.639  28.394   8.963
74617W        W75482   8.980  28.744   7.833
74618W        W75483  10.372  26.770   7.297
74619W        W75484   7.395  28.528   9.461
74620W        W75485   8.186  28.100   9.941
74621W        W75486   8.559  27.460   8.560
74622W        W75487   8.581  25.865   9.653
74623W        W75488  10.810  25.627   8.950
74624W        W75489   8.029  27.499   7.418
74625W        W75490   7.684  26.532   7.597
74626W        W75491   7.746  28.488   8.391
74627W        W75492   8.877  27.971   8.639
74628W        W75493  10.209  28.830  10.353
74629W        W75494   9.135  26.472   8.037
74630W        W75495  10.518  28.870   8.809
74631W        W75496  10.195  26.723  10.407
74632W        W75497  10.908  28.379   8.541
74633W        W75498   9.535  27.671  10.025
74634W        W75499   7.301  27.222   8.231
74635W        W75500   8.412  27.637   9.804
74636W        W75501   9.616  26.901   8.182
74637W        W75502   9.493  27.391   8.286
74638W        W75503   7.836  26.811   9.760
74639W        W75504   7.821  26.687  10.682
74640W        W75505   7.711  25.604   8.841
74641W        W75506   9.479  25.951   9.402
74642W        W75507   9.127  26.136  10.565
74643W        W75508   9.482  26.285   7.743
74644W        W75509  10.665  28.678  10.497
74645W        W75510   9.632  25.759  10.536
74646W        W75511  10.651  28.060  10.658
74647W        W75512  10.081  26.227  10.254
74648W        W75513   9.881  26.165   8.524
74649W        W75514  10.274  27.299  10.928
74650W        W75515   8.014  28.875   8.914
74651W        W75516   8.672  26.592   7.900
74652W        W75517   8.241  25.876  10.564
74653W        W75518  10.293  26.360   8.245
74654W        W75519  10.660  26.842   8.190
74655W        W75520   8.403  29.059  10.661
74656W        W75521   8.329  25.595   7.896
74657W        W75522  10.650  26.129   8.931
74658W        W75523  10.800  28.378   7.376
74659W        W75524   7.707  27.581   9.078
74660W        W75525   9.624  26.168   7.308
74661W        W75526  10.758  28.500   9.028
74662W        W75527  10.797  25.694   9.778
74663W        W75528   9.242  26.906  10.332
74664W        W75529   9.335  28.245   8.035
74665W        W75530   9.735  27.539  10.775
74666W        W75531   9.409  25.516   9.084
74667W        W75532   8.021  26.419   9.147
74668W        W75533   7.575  27.619   9.921
74669W        W75534   9.434  28.812   8.627
74670W        W75535  10.628  26.409   9.499
74671W        W75536   9.265  28.756  10.266
74672W        W75537  10.608  27.815   7.471
74673W        W75538   9.043  27.298   8.532
74674W        W75539  10.895  25.809  10.273
74675W        W75540   9.044  27.644   9.867
74676W        W75541   9.261  26.530   9.312
74677W        W75542  10.113  26.828   8.150
74678W        W75543  10.400  26.561   7.792
74679W        W75544  10.209  28.601   8.181
74680W        W75545  10.043  28.204   8.977
74681W        W75546   9.939  27.283   7.955
74682W        W75547   9.372  27.493   8.941
74683W        W75548  10.253  27.281   9.008
74684W        W75549   7.628  26.296   9.432
74685W        W75550  10.406  27.348  10.259
74686W        W75551  10.757  28.966   9.405
74687W        W75552   8.687  28.410   8.807
74688W        W75553   9.694  28.943  10.131
74689W        W75554   9.688  26.273   9.895
74690W        W75555   8.895  28.981   9.956
74691W        W75556  10.592  25.935   8.422
74692W        W75557  10.383  27.254   9.723
74693W        W75558   7.366  26.575   9.761
74694W        W75559  10.226  26.370   8.779
74695W        W75560  10.637  26.521  10.556
74696W        W75561   9.522  28.220   8.774
74697W        W75562   8.778  28.811   8.387
74698W        W75563   7.893  25.991   7.645
74699W        W75564   8.997  25.645   9.455
74700W        W75565   8.025  28.765   7.303
74701W        W75566   8.399  27.231   8.054
74702W        W75567   9.053  27.860  10.367
74703W        W75568   8.883  26.218   8.357
74704W        W75569  10.239  25.815   8.785
74705W        W75570   9.959  29.097   9.113
74706W        W75571   9.371  28.745   9.453
74707W        W75572   8.767  27.782   9.414
74708W        W75573  10.537  28.505   9.540
74709W        W75574   8.231  26.008   8.309
74710W        W75575   8.753  28.305   9.269
74711W        W75576   8.236  26.236   7.334
74712W        W75577   9.037  26.845   9.728
74713W        W75578   9.885  25.711   9.598
74714W        W75579   7.305  27.554   9.483
74715W        W75580   9.009  27.372   7.641
74716W        W75581   8.277  25.687   7.411
74717W        W75582   9.015  26.768   8.462
74718W        W75583   9.985  25.744  10.161
74719W        W75584   8.573  27.756  10.270
74720W        W75585   9.377  27.538  10.487
74721W        W75586   9.994  27.568  10.380
74722W        W75587   9.278  25.708  10.885
74723W        W75588   8.500  26.324   9.278
74724W        W75589   7.926  26.280   8.676
74725W        W75590   7.712  28.992   8.352
74726W        W75591   9.044  28.322  10.477
74727W        W75592   8.079  27.807   7.836
74728W        W75593   9.759  27.192   9.057
74729W        W75594  10.039  26.991   9.456
74730W        W75595   9.244  27.665   9.390
74731W        W75596   9.714  28.039   7.522
74732W        W75597   9.386  26.060   8.850
74733W        W75598  10.865  26.338   8.118
74734W        W75599   7.359  28.927  10.149
74735W        W75600   7.776  28.153   9.681
74736W        W75601   7.343  28.999   7.913
74737W        W75602   9.242  26.269   9.719
74738W        W75603   8.605  28.292   7.568
74739W        W75604  10.510  28.674   7.754
74740W        W75605   9.485  27.327   7.768
74741W        W75606   8.328  26.518   8.285
74742W        W75607   9.160  26.428   7.337
74743W        W75608   9.744  27.993  10.515
74744W        W75609  10.097  25.899   8.132
74745W        W75610   7.427  25.747   7.580
74746W        W75611   8.713  28.066   9.870
74747W        W75612   8.512  27.982   8.962
74748W        W75613   8.254  27.934   7.360
74749W        W75614   7.495  28.175   8.128
74750W        W75615   7.999  27.245  10.570
74751W        W75616   8.703  25.805  10.756
74752W        W75617   9.412  25.947  10.112
74753W        W75618   8.607  25.715   8.393
74754W        W75619   9.666  25.792   7.898
74755W        W75620   7.611  25.724   9.475
74756W        W75621   7.659  26.687   8.845
74757W        W75622  10.348  25.795   9.251
74758W        W75623   7.770  26.293   8.065
74759W        W75624  10.341  25.981   9.681
74760W        W75625  10.737  27.184   7.366
74761W        W75626   8.029  25.942   9.185
74762W        W75627   9.143  26.514  10.125
74763W        W75628   7.291  26.204   7.603
74764W        W75629   8.077  27.593  10.164
74765W        W75630   9.435  26.991   9.343
74766W        W75631   9.302  29.070   7.639
74767W        W75632   7.448  27.577   7.336
74768W        W75633   8.183  27.988  10.462
74769W        W75634   7.704  27.155  10.093
74770W        W75635   8.695  27.260   9.887
74771W        W75636  10.463  25.619  10.149
74772W        W75637  10.861  27.229  10.140
74773W        W75638  10.849  27.429   7.826
74774W        W75639   9.712  27.761   7.925
74775W        W75640  10.186  29.061   7.620
74776W        W75641   9.363  27.051  10.762
74777W        W75642   7.693  28.018  10.802
74778W        W75643  10.899  25.940  10.754
74779W        W75644  10.617  26.868   9.375
74780W        W75645   8.925  28.998  10.852
74781W        W75646   8.780  25.627   7.579
74782W        W75647  10.319  28.226   7.522
74783W        W75648   8.088  26.319  10.408
74784W        W75649   8.522  28.313  10.270
74785W        W75650  10.648  26.304  10.068
74786W        W75651   9.859  28.963   8.036
74787W        W75652  10.098  27.582   9.403
74788W        W75653   8.348  25.998  10.070
74789W        W75654   8.817  27.067  10.827
74790W        W75655   8.320  28.246   8.021
74791W        W75656  10.075  27.744   8.285
74792W        W75657   7.843  26.370  10.009
74793W        W75658   9.172  28.432   8.473
74794W        W75659  10.922  26.992   8.654
74795W        W75660   9.144  25.625  10.373
74796W        W75661   9.924  28.330   9.452
74797W        W75662  10.227  28.674   9.160
74798W        W75663   9.446  28.476   7.588
74799W        W75664   7.456  28.368  10.430
74800W        W75665   8.199  26.360   9.668
74801W        W75666   8.169  25.708   8.778
74802W        W75667   9.790  26.550   9.470
74803W        W75668   8.588  27.721   7.670
74804W        W75669  10.586  27.663   9.169
74805W        W75670   7.913  28.421  10.592
74806W        W75671  10.300  29.103   8.389
74807W        W75672   8.399  26.123   8.834
74808W        W75673   8.168  27.616   8.924
74809W        W75674   8.481  29.027   9.674
74810W        W75675  10.548  29.123  10.706
74811W        W75676   9.707  27.311   9.639
74812W        W75677   7.556  27.109   7.554
74813W        W75678  10.690  28.767   8.251
74814W        W75679  10.527  26.091   7.870
74815W        W75680   8.666  25.610  10.273
74816W        W75681  10.372  28.412   8.731
74817W        W75682  10.401  26.968   8.636
74818W        W75683   8.518  26.641   8.852
74819W        W75684   8.763  26.903  10.176
74820W        W75685   9.874  28.056  10.039
74821W        W75686   8.524  26.510  10.151
74822W        W75687   8.503  28.976   8.767
74823W        W75688   7.820  28.935  10.401
74824W        W75689   7.932  28.296   7.531
74825W        W75690  10.449  28.054   8.341
74826W        W75691   8.053  26.846  10.227
74827W        W75692  10.826  26.776   7.708
74828W        W75693   8.571  27.833   8.179
74829W        W75694   9.670  27.215  10.260
74830W        W75695   9.561  26.843   9.804
74831W        W75696   8.121  27.215   9.833
74832W        W75697  10.331  29.103   9.662
74833W        W75698  10.122  25.737  10.656
74834W        W75699   7.786  25.887  10.243
74835W        W75700   8.125  26.910   9.296
74836W        W75701   8.494  26.724   7.418
74837W        W75702   7.297  28.483   9.963
74838W        W75703   8.882  27.192   9.406
74839W        W75704   8.705  26.217   7.511
74840W        W75705   7.840  27.033   8.292
74841W        W75706   7.611  28.885   9.729
74842W        W75707  10.406  27.111   7.837
74843W        W75708  10.501  26.027  10.523
74844W        W75709   9.937  28.236   8.486
74845W        W75710   7.535  27.160  10.663
74846W        W75711  10.501  25.624   7.959
74847W        W75712  10.021  28.099   7.970
74848W        W75713   8.923  27.157   8.055
74849W        W75714  10.110  25.961   7.578
74850W        W75715  10.175  26.568   9.764
74851W        W75716   7.884  27.161   8.971
74852W        W75717   8.178  28.100   8.620
74853W        W75718   9.941  26.720   8.585
74854W        W75719   8.964  26.099   9.281
74855W        W75720  10.926  28.010   9.792
74856W        W75721  10.844  25.997   9.353
74857W        W75722   7.383  28.827   8.729
74858W        W75723   7.892  28.014   8.265
74859W        W75724   7.807  25.631  10.818
74860W        W75725   8.926  28.484  10.920
74861W        W75726  10.681  27.452   8.710
74862W        W75727  10.035  27.629   7.590
74863W        W75728   9.330  29.150   9.802
74864W        W75729  10.187  27.872  10.839
74865W        W75730   9.002  25.582   8.119
74866W        W75731   9.715  26.451   8.978
74867W        W75732   7.401  28.038   9.310
74868W        W75733   8.654  26.000   7.951
74869W        W75734   8.458  27.484  10.800
74870W        W75735   9.452  26.465   8.514
74871W        W75736   9.657  27.875   9.636
74872W        W75737   7.811  28.480  10.071
74873W        W75738   8.402  28.463  10.794
74874W        W75739   8.253  26.260   7.808
74875W        W75740   9.770  26.402   8.133
74876W        W75741   9.728  28.510  10.370
74877W        W75742   8.413  27.102   8.969
74878W        W75743   8.068  28.800   9.834
74879W        W75744  10.813  28.917   7.435
74880W        W75745   7.676  27.589  10.431
74881W        W75746   9.671  27.851   9.119
74882W        W75747   8.107  27.500   8.361
74883W        W75748   8.478  28.507   9.756
74884W        W75749   8.856  25.926   8.797
74885W        W75750   7.467  27.910   7.727
74886W        W75751   8.986  26.861   7.597
74887W        W75752   7.632  27.410   8.616
74888W        W75753   8.922  26.052  10.080
74889W        W75754  10.594  25.761   7.507
74890W        W75755  10.687  27.507  10.606
74891W        W75756   9.341  28.764  10.758
74892W        W75757  10.899  27.858  10.280
74893W        W75758  10.307  28.656  10.891
74894W        W75759   8.046  29.112   9.369
74895W        W75760  10.905  27.734   8.243
74896W        W75761   9.435  27.001   8.756
74897W        W75762   9.202  25.613   8.646
74898W        W75763   8.261  28.597   8.483
74899W        W75764   8.760  26.338   9.708
74900W        W75765   8.460  25.707   9.177
74901W        W75766   7.523  28.529   7.725
74902W        W75767   9.339  27.893   8.443
74903W        W75768   8.214  28.688  10.322
74904W        W75769   7.691  27.511   8.018
74905W        W75770   7.576  26.054   9.017
74906W        W75771   9.124  28.019   9.074
74907W        W75772   7.376  25.873   8.094
74908W        W75773  10.040  27.079  10.021
74909W        W75774   9.917  26.465   7.593
74910W        W75775  10.434  28.137   9.241
74911W        W75776   9.095  28.621   9.072
74912W        W75777   8.507  28.725   7.983
74913W        W75778   9.789  25.628   7.413
74914W        W75779   7.589  28.888   9.154
74915W        W75780   9.786  26.646  10.789
74916W        W75781   7.769  26.176  10.788
74917W        W75782   7.500  26.776   8.121
74918W        W75783   8.191  26.765   7.846
74919W        W75784   9.954  27.092  10.663
74920W        W75785   8.297  27.373   9.372
74921W        W75786   9.771  25.659   8.492
74922W        W75787   8.902  29.090   8.995
74923W        W75788  10.116  28.552   9.932
74924W        W75789   9.700  28.701   9.043
74925W        W75790   9.719  27.681   8.637
74926W        W75791   9.181  25.906   7.708
74927W        W75792  10.862  25.534   8.430
74928W        W75793   8.550  27.169   7.593
74929W        W75794  10.716  26.506   8.583
74930W        W75795   9.408  27.676   7.460
74931W        W75796  10.344  27.876  10.208
74932W        W75797   9.998  28.577   7.675
74933W        W75798   8.613  26.252  10.581
74934W        W75799   8.433  26.836   9.822
74935W        W75800  10.525  28.331  10.099
74936W        W75801   9.625  26.281  10.476
74937W        W75802   7.469  26.752  10.253
74938W        W75803   9.229  27.229   9.979
74939W        W75804   7.586  27.987   8.636
74940W        W75805   7.733  27.284   9.526
74941W        W75806  10.050  27.570   9.876
74942W        W75807   9.822  28.950  10.687
74943W        W75808   9.718  26.689  10.240
74944W        W75809   9.995  28.743   8.645
74945W        W75810   8.997  28.463   9.968
74946W        W75811   8.482  28.818   9.237
74947W        W75812  10.287  27.989   9.656
74948W        W75813   9.337  28.061  10.793
74949W        W75814   7.942  28.014   9.132
74950W        W75815  10.288  27.773   8.777
74951W        W75816   9.929  28.839   9.528
74952W        W75817   7.907  28.568   9.398
74953W        W75818   8.928  26.620  10.608
74954W        W75819   9.379  28.786   8.119
74955W        W75820   8.687  28.041  10.757
74956W        W75821   8.813  28.279   8.134
74957W        W75822   8.034  27.019   7.393
74958W        W75823   7.373  29.105  14.292
74959W        W75824   7.749  27.998  13.815
74960W        W75825  10.454  27.728  11.585
74961W        W75826  10.584  28.813  13.612
74962W        W75827   8.502  28.804  11.138
74963W        W75828   8.585  26.956  12.121
74964W        W75829   8.100  26.804  12.285
74965W        W75830   9.091  27.619  11.719
74966W        W75831   8.766  28.711  14.074
74967W        W75832   7.415  26.272  14.037
74968W        W75833   8.177  25.552  13.839
74969W        W75834   9.871  25.940  12.726
74970W        W75835   9.520  26.811  11.296
74971W        W75836  10.090  26.245  14.387
74972W        W75837   7.456  26.037  13.512
74973W        W75838   7.555  28.656  14.533
74974W        W75839   9.077  28.046  11.265
74975W        W75840   7.509  26.829  12.958
74976W        W75841   8.402  26.720  14.195
74977W        W75842  10.861  26.579  12.694
74978W        W75843  10.625  27.622  13.553
74979W        W75844   8.933  26.955  12.580
74980W        W75845   9.479  28.294  12.949
74981W        W75846   7.979  27.728  13.181
74982W        W75847   7.338  27.256  12.752
74983W        W75848   8.374  27.228  13.944
74984W        W75849  10.645  27.011  14.198
74985W        W75850   8.261  28.455  12.643
74986W        W75851   9.382  28.144  13.777
74987W        W75852   8.602  26.784  13.002
74988W        W75853   8.894  27.568  12.645
74989W        W75854   9.891  28.341  14.493
74990W        W75855   8.970  27.661  14.503
74991W        W75856   8.951  27.377  13.981
74992W        W75857   7.360  26.768  14.503
74993W        W75858  10.192  28.303  14.102
74994W        W75859   7.773  25.885  12.100
74995W        W75860   8.300  28.143  13.099
74996W        W75861  10.763  27.926  12.389
74997W        W75862  10.176  26.326  12.956
74998W        W75863  10.461  26.279  11.051
74999W        W75864  10.926  27.080  13.357
75000W        W75865   8.893  28.787  13.110
75001W        W75866  10.667  28.253  11.548
75002W        W75867   7.796  29.039  11.302
75003W        W75868   8.189  29.085  11.978
75004W        W75869   7.986  25.839  13.404
75005W        W75870  10.609  26.857  13.679
75006W        W75871  10.014  27.279  12.138
75007W        W75872   9.980  26.967  11.165
75008W        W75873   9.188  28.111  13.305
75009W        W75874   8.994  26.441  12.504
75010W        W75875   9.594  28.528  13.498
75011W        W75876  10.465  27.319  11.920
75012W        W75877   9.367  25.977  11.936
75013W        W75878   8.024  28.671  11.619
75014W        W75879   7.395  26.170  12.218
75015W        W75880  10.181  26.777  12.692
75016W        W75881   7.639  28.394  12.607
75017W        W75882   8.980  28.744  11.477
75018W        W75883  10.372  26.770  10.941
75019W        W75884   7.395  28.528  13.105
75020W        W75885   8.186  28.100  13.585
75021W        W75886   8.559  27.460  12.204
75022W        W75887   8.581  25.865  13.297
75023W        W75888  10.810  25.627  12.594
75024W        W75889   8.029  27.499  11.062
75025W        W75890   7.684  26.532  11.241
75026W        W75891   7.746  28.488  12.035
75027W        W75892   8.877  27.971  12.283
75028W        W75893  10.209  28.830  13.997
75029W        W75894   9.135  26.472  11.681
75030W        W75895  10.518  28.870  12.453
75031W        W75896  10.195  26.723  14.051
75032W        W75897  10.908  28.379  12.185
75033W        W75898   9.535  27.671  13.669
75034W        W75899   7.301  27.222  11.875
75035W        W75900   8.412  27.637  13.448
75036W        W75901   9.616  26.901  11.826
75037W        W75902   9.493  27.391  11.930
75038W        W75903   7.836  26.811  13.404
75039W        W75904   7.821  26.687  14.326
75040W        W75905   7.711  25.604  12.485
75041W        W75906   9.479  25.951  13.046
75042W        W75907   9.127  26.136  14.209
75043W        W75908   9.482  26.285  11.387
75044W        W75909  10.665  28.678  14.141
75045W        W75910   9.632  25.759  14.180
75046W        W75911  10.651  28.060  14.302
75047W        W75912  10.081  26.227  13.898
75048W        W75913   9.881  26.165  12.168
75049W        W75914  10.274  27.299  14.572
75050W        W75915   8.014  28.875  12.558
75051W        W75916   8.672  26.592  11.544
75052W        W75917   8.241  25.876  14.208
75053W        W75918  10.293  26.360  11.889
75054W        W75919  10.660  26.842  11.834
75055W        W75920   8.403  29.059  14.305
75056W        W75921   8.329  25.595  11.540
75057W        W75922  10.650  26.129  12.575
75058W        W75923  10.800  28.378  11.020
75059W        W75924   7.707  27.581  12.722
75060W        W75925   9.624  26.168  10.952
75061W        W75926  10.758  28.500  12.672
75062W        W75927  10.797  25.694  13.422
75063W        W75928   9.242  26.906  13.976
75064W        W75929   9.335  28.245  11.679
75065W        W75930   9.735  27.539  14.419
75066W        W75931   9.409  25.516  12.728
75067W        W75932   8.021  26.419  12.791
75068W        W75933   7.575  27.619  13.565
75069W        W75934   9.434  28.812  12.271
75070W        W75935  10.628  26.409  13.143
75071W        W75936   9.265  28.756  13.910
75072W        W75937  10.608  27.815  11.115
75073W        W75938   9.043  27.298  12.176
75074W        W75939  10.895  25.809  13.917
75075W        W75940   9.044  27.644  13.511
75076W        W75941   9.261  26.530  12.956
75077W        W75942  10.113  26.828  11.794
75078W        W75943  10.400  26.561  11.436
75079W        W75944  10.209  28.601  11.825
75080W        W75945  10.043  28.204  12.621
75081W        W75946   9.939  27.283  11.599
75082W        W75947   9.372  27.493  12.585
75083W        W75948  10.253  27.281  12.652
75084W        W75949   7.628  26.296  13.076
75085W        W75950  10.406  27.348  13.903
75086W        W75951  10.757  28.966  13.049
75087W        W75952   8.687  28.410  12.451
75088W        W75953   9.694  28.943  13.775
75089W        W75954   9.688  26.273  13.539
75090W        W75955   8.895  28.981  13.600
75091W        W75956  10.592  25.935  12.066
75092W        W75957  10.383  27.254  13.367
75093W        W75958   7.366  26.575  13.405
75094W        W75959  10.226  26.370  12.423
75095W        W75960  10.637  26.521  14.200
75096W        W75961   9.522  28.220  12.418
75097W        W75962   8.778  28.811  12.031
75098W        W75963   7.893  25.991  11.289
75099W        W75964   8.997  25.645  13.099
75100W        W75965   8.025  28.765  10.947
75101W        W75966   8.399  27.231  11.698
75102W        W75967   9.053  27.860  14.011
75103W        W75968   8.883  26.218  12.001
75104W        W75969  10.239  25.815  12.429
75105W        W75970   9.959  29.097  12.757
75106W        W75971   9.371  28.745  13.097
75107W        W75972   8.767  27.782  13.058
75108W        W75973  10.537  28.505  13.184
75109W        W75974   8.231  26.008  11.953
75110W        W75975   8.753  28.305  12.913
75111W        W75976   8.236  26.236  10.978
75112W        W75977   9.037  26.845  13.372
75113W        W75978   9.885  25.711  13.242
75114W        W75979   7.305  27.554  13.127
75115W        W75980   9.009  27.372  11.285
75116W        W75981   8.277  25.687  11.055
75117W        W75982   9.015  26.768  12.106
75118W        W75983   9.985  25.744  13.805
75119W        W75984   8.573  27.756  13.914
75120W        W75985   9.377  27.538  14.131
75121W        W75986   9.994  27.568  14.024
75122W        W75987   9.278  25.708  14.529
75123W        W75988   8.500  26.324  12.922
75124W        W75989   7.926  26.280  12.320
75125W        W75990   7.712  28.992  11.996
75126W        W75991   9.044  28.322  14.121
75127W        W75992   8.079  27.807  11.480
75128W        W75993   9.759  27.192  12.701
75129W        W75994  10.039  26.991  13.100
75130W        W75995   9.244  27.665  13.034
75131W        W75996   9.714  28.039  11.166
75132W        W75997   9.386  26.060  12.494
75133W        W75998  10.865  26.338  11.762
75134W        W75999   7.359  28.927  13.793
75135W        W76000   7.776  28.153  13.325
75136W        W76001   7.343  28.999  11.557
75137W        W76002   9.242  26.269  13.363
75138W        W76003   8.605  28.292  11.212
75139W        W76004  10.510  28.674  11.398
75140W        W76005   9.485  27.327  11.412
75141W        W76006   8.328  26.518  11.929
75142W        W76007   9.160  26.428  10.981
75143W        W76008   9.744  27.993  14.159
75144W        W76009  10.097  25.899  11.776
75145W        W76010   7.427  25.747  11.224
75146W        W76011   8.713  28.066  13.514
75147W        W76012   8.512  27.982  12.606
75148W        W76013   8.254  27.934  11.004
75149W        W76014   7.495  28.175  11.772
75150W        W76015   7.999  27.245  14.214
75151W        W76016   8.703  25.805  14.400
75152W        W76017   9.412  25.947  13.756
75153W        W76018   8.607  25.715  12.037
75154W        W76019   9.666  25.792  11.542
75155W        W76020   7.611  25.724  13.119
75156W        W76021   7.659  26.687  12.489
75157W        W76022  10.348  25.795  12.895
75158W        W76023   7.770  26.293  11.709
75159W        W76024  10.341  25.981  13.325
75160W        W76025  10.737  27.184  11.010
75161W        W76026   8.029  25.942  12.829
75162W        W76027   9.143  26.514  13.769
75163W        W76028   7.291  26.204  11.247
75164W        W76029   8.077  27.593  13.808
75165W        W76030   9.435  26.991  12.987
75166W        W76031   9.302  29.070  11.283
75167W        W76032   7.448  27.577  10.980
75168W        W76033   8.183  27.988  14.106
75169W        W76034   7.704  27.155  13.737
75170W        W76035   8.695  27.260  13.531
75171W        W76036  10.463  25.619  13.793
75172W        W76037  10.861  27.229  13.784
75173W        W76038  10.849  27.429  11.470
75174W        W76039   9.712  27.761  11.569
75175W        W76040  10.186  29.061  11.264
75176W        W76041   9.363  27.051  14.406
75177W        W76042   7.693  28.018  14.446
75178W        W76043  10.899  25.940  14.398
75179W        W76044  10.617  26.868  13.019
75180W        W76045   8.925  28.998  14.496
75181W        W76046   8.780  25.627  11.223
75182W        W76047  10.319  28.226  11.166
75183W        W76048   8.088  26.319  14.052
75184W        W76049   8.522  28.313  13.914
75185W        W76050  10.648  26.304  13.712
75186W        W76051   9.859  28.963  11.680
75187W        W76052  10.098  27.582  13.047
75188W        W76053   8.348  25.998  13.714
75189W        W76054   8.817  27.067  14.471
75190W        W76055   8.320  28.246  11.665
75191W        W76056  10.075  27.744  11.929
75192W        W76057   7.843  26.370  13.653
75193W        W76058   9.172  28.432  12.117
75194W        W76059  10.922  26.992  12.298
75195W        W76060   9.144  25.625  14.017
75196W        W76061   9.924  28.330  13.096
75197W        W76062  10.227  28.674  12.804
75198W        W76063   9.446  28.476  11.232
75199W        W76064   7.456  28.368  14.074
75200W        W76065   8.199  26.360  13.312
75201W        W76066   8.169  25.708  12.422
75202W        W76067   9.790  26.550  13.114
75203W        W76068   8.588  27.721  11.314
75204W        W76069  10.586  27.663  12.813
75205W        W76070   7.913  28.421  14.236
75206W        W76071  10.300  29.103  12.033
75207W        W76072   8.399  26.123  12.478
75208W        W76073   8.168  27.616  12.568
75209W        W76074   8.481  29.027  13.318
75210W        W76075  10.548  29.123  14.350
75211W        W76076   9.707  27.311  13.283
75212W        W76077   7.556  27.109  11.198
75213W        W76078  10.690  28.767  11.895
75214W        W76079  10.527  26.091  11.514
75215W        W76080   8.666  25.610  13.917
75216W        W76081  10.372  28.412  12.375
75217W        W76082  10.401  26.968  12.280
75218W        W76083   8.518  26.641  12.496
75219W        W76084   8.763  26.903  13.820
75220W        W76085   9.874  28.056  13.683
75221W        W76086   8.524  26.510  13.795
75222W        W76087   8.503  28.976  12.411
75223W        W76088   7.820  28.935  14.045
75224W        W76089   7.932  28.296  11.175
75225W        W76090  10.449  28.054  11.985
75226W        W76091   8.053  26.846  13.871
75227W        W76092  10.826  26.776  11.352
75228W        W76093   8.571  27.833  11.823
75229W        W76094   9.670  27.215  13.904
75230W        W76095   9.561  26.843  13.448
75231W        W76096   8.121  27.215  13.477
75232W        W76097  10.331  29.103  13.306
75233W        W76098  10.122  25.737  14.300
75234W        W76099   7.786  25.887  13.887
75235W        W76100   8.125  26.910  12.940
75236W        W76101   8.494  26.724  11.062
75237W        W76102   7.297  28.483  13.607
75238W        W76103   8.882  27.192  13.050
75239W        W76104   8.705  26.217  11.155
75240W        W76105   7.840  27.033  11.936
75241W        W76106   7.611  28.885  13.373
75242W        W76107  10.406  27.111  11.481
75243W        W76108  10.501  26.027  14.167
75244W        W76109   9.937  28.236  12.130
75245W        W76110   7.535  27.160  14.307
75246W        W76111  10.501  25.624  11.603
75247W        W76112  10.021  28.099  11.614
75248W        W76113   8.923  27.157  11.699
75249W        W76114  10.110  25.961  11.222
75250W        W76115  10.175  26.568  13.408
75251W        W76116   7.884  27.161  12.615
75252W        W76117   8.178  28.100  12.264
75253W        W76118   9.941  26.720  12.229
75254W        W76119   8.964  26.099  12.925
75255W        W76120  10.926  28.010  13.436
75256W        W76121  10.844  25.997  12.997
75257W        W76122   7.383  28.827  12.373
75258W        W76123   7.892  28.014  11.909
75259W        W76124   7.807  25.631  14.462
75260W        W76125   8.926  28.484  14.564
75261W        W76126  10.681  27.452  12.354
75262W        W76127  10.035  27.629  11.234
75263W        W76128   9.330  29.150  13.446
75264W        W76129  10.187  27.872  14.483
75265W        W76130   9.002  25.582  11.763
75266W        W76131   9.715  26.451  12.622
75267W        W76132   7.401  28.038  12.954
75268W        W76133   8.654  26.000  11.595
75269W        W76134   8.458  27.484  14.444
75270W        W76135   9.452  26.465  12.158
75271W        W76136   9.657  27.875  13.280
75272W        W76137   7.811  28.480  13.715
75273W        W76138   8.402  28.463  14.438
75274W        W76139   8.253  26.260  11.452
75275W        W76140   9.770  26.402  11.777
75276W        W76141   9.728  28.510  14.014
75277W        W76142   8.413  27.102  12.613
75278W        W76143   8.068  28.800  13.478
75279W        W76144  10.813  28.917  11.079
75280W        W76145   7.676  27.589  14.075
75281W        W76146   9.671  27.851  12.763
75282W        W76147   8.107  27.500  12.005
75283W        W76148   8.478  28.507  13.400
75284W        W76149   8.856  25.926  12.441
75285W        W76150   7.467  27.910  11.371
75286W        W76151   8.986  26.861  11.241
75287W        W76152   7.632  27.410  12.260
75288W        W76153   8.922  26.052  13.724
75289W        W76154  10.594  25.761  11.151
75290W        W76155  10.687  27.507  14.250
75291W        W76156   9.341  28.764  14.402
75292W        W76157  10.899  27.858  13.924
75293W        W76158  10.307  28.656  14.535
75294W        W76159   8.046  29.112  13.013
75295W        W76160  10.905  27.734  11.887
75296W        W76161   9.435  27.001  12.400
75297W        W76162   9.202  25.613  12.290
75298W        W76163   8.261  28.597  12.127
75299W        W76164   8.760  26.338  13.352
75300W        W76165   8.460  25.707  12.821
75301W        W76166   7.523  28.529  11.369
75302W        W76167   9.339  27.893  12.087
75303W        W76168   8.214  28.688  13.966
75304W        W76169   7.691  27.511  11.662
75305W        W76170   7.576  26.054  12.661
75306W        W76171   9.124  28.019  12.718
75307W        W76172   7.376  25.873  11.738
75308W        W76173  10.040  27.079  13.665
75309W        W76174   9.917  26.465  11.237
75310W        W76175  10.434  28.137  12.885
75311W        W76176   9.095  28.621  12.716
75312W        W76177   8.507  28.725  11.627
75313W        W76178   9.789  25.628  11.057
75314W        W76179   7.589  28.888  12.798
75315W        W76180   9.786  26.646  14.433
75316W        W76181   7.769  26.176  14.432
75317W        W76182   7.500  26.776  11.765
75318W        W76183   8.191  26.765  11.490
75319W        W76184   9.954  27.092  14.307
75320W        W76185   8.297  27.373  13.016
75321W        W76186   9.771  25.659  12.136
75322W        W76187   8.902  29.090  12.639
75323W        W76188  10.116  28.552  13.576
75324W        W76189   9.700  28.701  12.687
75325W        W76190   9.719  27.681  12.281
75326W        W76191   9.181  25.906  11.352
75327W        W76192  10.862  25.534  12.074
75328W        W76193   8.550  27.169  11.237
75329W        W76194  10.716  26.506  12.227
75330W        W76195   9.408  27.676  11.104
75331W        W76196  10.344  27.876  13.852
75332W        W76197   9.998  28.577  11.319
75333W        W76198   8.613  26.252  14.225
75334W        W76199   8.433  26.836  13.466
75335W        W76200  10.525  28.331  13.743
75336W        W76201   9.625  26.281  14.120
75337W        W76202   7.469  26.752  13.897
75338W        W76203   9.229  27.229  13.623
75339W        W76204   7.586  27.987  12.280
75340W        W76205   7.733  27.284  13.170
75341W        W76206  10.050  27.570  13.520
75342W        W76207   9.822  28.950  14.331
75343W        W76208   9.718  26.689  13.884
75344W        W76209   9.995  28.743  12.289
75345W        W76210   8.997  28.463  13.612
75346W        W76211   8.482  28.818  12.881
75347W        W76212  10.287  27.989  13.300
75348W        W76213   9.337  28.061  14.437
75349W        W76214   7.942  28.014  12.776
75350W        W76215  10.288  27.773  12.421
75351W        W76216   9.929  28.839  13.172
75352W        W76217   7.907  28.568  13.042
75353W        W76218   8.928  26.620  14.252
75354W        W76219   9.379  28.786  11.763
75355W        W76220   8.687  28.041  14.401
75356W        W76221   8.813  28.279  11.778
75357W        W76222   8.034  27.019  11.037
75358W        W76223   7.373  29.105  17.936
75359W        W76224   7.749  27.998  17.459
75360W        W76225  10.454  27.728  15.229
75361W        W76226  10.584  28.813  17.256
75362W        W76227   8.502  28.804  14.782
75363W        W76228   8.585  26.956  15.765
75364W        W76229   8.100  26.804  15.929
75365W        W76230   9.091  27.619  15.363
75366W        W76231   8.766  28.711  17.718
75367W        W76232   7.415  26.272  17.681
75368W        W76233   8.177  25.552  17.483
75369W        W76234   9.871  25.940  16.370
75370W        W76235   9.520  26.811  14.940
75371W        W76236  10.090  26.245  18.031
75372W        W76237   7.456  26.037  17.156
75373W        W76238   7.555  28.656  18.177
75374W        W76239   9.077  28.046  14.909
75375W        W76240   7.509  26.829  16.602
75376W        W76241   8.402  26.720  17.839
75377W        W76242  10.861  26.579  16.338
75378W        W76243  10.625  27.622  17.197
75379W        W76244   8.933  26.955  16.224
75380W        W76245   9.479  28.294  16.593
75381W        W76246   7.979  27.728  16.825
75382W        W76247   7.338  27.256  16.396
75383W        W76248   8.374  27.228  17.588
75384W        W76249  10.645  27.011  17.842
75385W        W76250   8.261  28.455  16.287
75386W        W76251   9.382  28.144  17.421
75387W        W76252   8.602  26.784  16.646
75388W        W76253   8.894  27.568  16.289
75389W        W76254   9.891  28.341  18.137
75390W        W76255   8.970  27.661  18.147
75391W        W76256   8.951  27.377  17.625
75392W        W76257   7.360  26.768  18.147
75393W        W76258  10.192  28.303  17.746
75394W        W76259   7.773  25.885  15.744
75395W        W76260   8.300  28.143  16.743
75396W        W76261  10.763  27.926  16.033
75397W        W76262  10.176  26.326  16.600
75398W        W76263  10.461  26.279  14.695
75399W        W76264  10.926  27.080  17.001
75400W        W76265   8.893  28.787  16.754
75401W        W76266  10.667  28.253  15.192
75402W        W76267   7.796  29.039  14.946
75403W        W76268   8.189  29.085  15.622
75404W        W76269   7.986  25.839  17.048
75405W        W76270  10.609  26.857  17.323
75406W        W76271  10.014  27.279  15.782
75407W        W76272   9.980  26.967  14.809
75408W        W76273   9.188  28.111  16.949
75409W        W76274   8.994  26.441  16.148
75410W        W76275   9.594  28.528  17.142
75411W        W76276  10.465  27.319  15.564
75412W        W76277   9.367  25.977  15.580
75413W        W76278   8.024  28.671  15.263
75414W        W76279   7.395  26.170  15.862
75415W        W76280  10.181  26.777  16.336
75416W        W76281   7.639  28.394  16.251
75417W        W76282   8.980  28.744  15.121
75418W        W76283  10.372  26.770  14.585
75419W        W76284   7.395  28.528  16.749
75420W        W76285   8.186  28.100  17.229
75421W        W76286   8.559  27.460  15.848
75422W        W76287   8.581  25.865  16.941
75423W        W76288  10.810  25.627  16.238
75424W        W76289   8.029  27.499  14.706
75425W        W76290   7.684  26.532  14.885
75426W        W76291   7.746  28.488  15.679
75427W        W76292   8.877  27.971  15.927
75428W        W76293  10.209  28.830  17.641
75429W        W76294   9.135  26.472  15.325
75430W        W76295  10.518  28.870  16.097
75431W        W76296  10.195  26.723  17.695
75432W        W76297  10.908  28.379  15.829
75433W        W76298   9.535  27.671  17.313
75434W        W76299   7.301  27.222  15.519
75435W        W76300   8.412  27.637  17.092
75436W        W76301   9.616  26.901  15.470
75437W        W76302   9.493  27.391  15.574
75438W        W76303   7.836  26.811  17.048
75439W        W76304   7.821  26.687  17.970
75440W        W76305   7.711  25.604  16.129
75441W        W76306   9.479  25.951  16.690
75442W        W76307   9.127  26.136  17.853
75443W        W76308   9.482  26.285  15.031
75444W        W76309  10.665  28.678  17.785
75445W        W76310   9.632  25.759  17.824
75446W        W76311  10.651  28.060  17.946
75447W        W76312  10.081  26.227  17.542
75448W        W76313   9.881  26.165  15.812
75449W        W76314  10.274  27.299  18.216
75450W        W76315   8.014  28.875  16.202
75451W        W76316   8.672  26.592  15.188
75452W        W76317   8.241  25.876  17.852
75453W        W76318  10.293  26.360  15.533
75454W        W76319  10.660  26.842  15.478
75455W        W76320   8.403  29.059  17.949
75456W        W76321   8.329  25.595  15.184
75457W        W76322  10.650  26.129  16.219
75458W        W76323  10.800  28.378  14.664
75459W        W76324   7.707  27.581  16.366
75460W        W76325   9.624  26.168  14.596
75461W        W76326  10.758  28.500  16.316
75462W        W76327  10.797  25.694  17.066
75463W        W76328   9.242  26.906  17.620
75464W        W76329   9.335  28.245  15.323
75465W        W76330   9.735  27.539  18.063
75466W        W76331   9.409  25.516  16.372
75467W        W76332   8.021  26.419  16.435
75468W        W76333   7.575  27.619  17.209
75469W        W76334   9.434  28.812  15.915
75470W        W76335  10.628  26.409  16.787
75471W        W76336   9.265  28.756  17.554
75472W        W76337  10.608  27.815  14.759
75473W        W76338   9.043  27.298  15.820
75474W        W76339  10.895  25.809  17.561
75475W        W76340   9.044  27.644  17.155
75476W        W76341   9.261  26.530  16.600
75477W        W76342  10.113  26.828  15.438
75478W        W76343  10.400  26.561  15.080
75479W        W76344  10.209  28.601  15.469
75480W        W76345  10.043  28.204  16.265
75481W        W76346   9.939  27.283  15.243
75482W        W76347   9.372  27.493  16.229
75483W        W76348  10.253  27.281  16.296
75484W        W76349   7.628  26.296  16.720
75485W        W76350  10.406  27.348  17.547
75486W        W76351  10.757  28.966  16.693
75487W        W76352   8.687  28.410  16.095
75488W        W76353   9.694  28.943  17.419
75489W        W76354   9.688  26.273  17.183
75490W        W76355   8.895  28.981  17.244
75491W        W76356  10.592  25.935  15.710
75492W        W76357  10.383  27.254  17.011
75493W        W76358   7.366  26.575  17.049
75494W        W76359  10.226  26.370  16.067
75495W        W76360  10.637  26.521  17.844
75496W        W76361   9.522  28.220  16.062
75497W        W76362   8.778  28.811  15.675
75498W        W76363   7.893  25.991  14.933
75499W        W76364   8.997  25.645  16.743
75500W        W76365   8.025  28.765  14.591
75501W        W76366   8.399  27.231  15.342
75502W        W76367   9.053  27.860  17.655
75503W        W76368   8.883  26.218  15.645
75504W        W76369  10.239  25.815  16.073
75505W        W76370   9.959  29.097  16.401
75506W        W76371   9.371  28.745  16.741
75507W        W76372   8.767  27.782  16.702
75508W        W76373  10.537  28.505  16.828
75509W        W76374   8.231  26.008  15.597
75510W        W76375   8.753  28.305  16.557
75511W        W76376   8.236  26.236  14.622
75512W        W76377   9.037  26.845  17.016
75513W        W76378   9.885  25.711  16.886
75514W        W76379   7.305  27.554  16.771
75515W        W76380   9.009  27.372  14.929
75516W        W76381   8.277  25.687  14.699
75517W        W76382   9.015  26.768  15.750
75518W        W76383   9.985  25.744  17.449
75519W        W76384   8.573  27.756  17.558
75520W        W76385   9.377  27.538  17.775
75521W        W76386   9.994  27.568  17.668
75522W        W76387   9.278  25.708  18.173
75523W        W76388   8.500  26.324  16.566
75524W        W76389   7.926  26.280  15.964
75525W        W76390   7.712  28.992  15.640
75526W        W76391   9.044  28.322  17.765
75527W        W76392   8.079  27.807  15.124
75528W        W76393   9.759  27.192  16.345
75529W        W76394  10.039  26.991  16.744
75530W        W76395   9.244  27.665  16.678
75531W        W76396   9.714  28.039  14.810
75532W        W76397   9.386  26.060  16.138
75533W        W76398  10.865  26.338  15.406
75534W        W76399   7.359  28.927  17.437
75535W        W76400   7.776  28.153  16.969
75536W        W76401   7.343  28.999  15.201
75537W        W76402   9.242  26.269  17.007
75538W        W76403   8.605  28.292  14.856
75539W        W76404  10.510  28.674  15.042
75540W        W76405   9.485  27.327  15.056
75541W        W76406   8.328  26.518  15.573
75542W        W76407   9.160  26.428  14.625
75543W        W76408   9.744  27.993  17.803
75544W        W76409  10.097  25.899  15.420
75545W        W76410   7.427  25.747  14.868
75546W        W76411   8.713  28.066  17.158
75547W        W76412   8.512  27.982  16.250
75548W        W76413   8.254  27.934  14.648
75549W        W76414   7.495  28.175  15.416
75550W        W76415   7.999  27.245  17.858
75551W        W76416   8.703  25.805  18.044
75552W        W76417   9.412  25.947  17.400
75553W        W76418   8.607  25.715  15.681
75554W        W76419   9.666  25.792  15.186
75555W        W76420   7.611  25.724  16.763
75556W        W76421   7.659  26.687  16.133
75557W        W76422  10.348  25.795  16.539
75558W        W76423   7.770  26.293  15.353
75559W        W76424  10.341  25.981  16.969
75560W        W76425  10.737  27.184  14.654
75561W        W76426   8.029  25.942  16.473
75562W        W76427   9.143  26.514  17.413
75563W        W76428   7.291  26.204  14.891
75564W        W76429   8.077  27.593  17.452
75565W        W76430   9.435  26.991  16.631
75566W        W76431   9.302  29.070  14.927
75567W        W76432   7.448  27.577  14.624
75568W        W76433   8.183  27.988  17.750
75569W        W76434   7.704  27.155  17.381
75570W        W76435   8.695  27.260  17.175
75571W        W76436  10.463  25.619  17.437
75572W        W76437  10.861  27.229  17.428
75573W        W76438  10.849  27.429  15.114
75574W        W76439   9.712  27.761  15.213
75575W        W76440  10.186  29.061  14.908
75576W        W76441   9.363  27.051  18.050
75577W        W76442   7.693  28.018  18.090
75578W        W76443  10.899  25.940  18.042
75579W        W76444  10.617  26.868  16.663
75580W        W76445   8.925  28.998  18.140
75581W        W76446   8.780  25.627  14.867
75582W        W76447  10.319  28.226  14.810
75583W        W76448   8.088  26.319  17.696
75584W        W76449   8.522  28.313  17.558
75585W        W76450  10.648  26.304  17.356
75586W        W76451   9.859  28.963  15.324
75587W        W76452  10.098  27.582  16.691
75588W        W76453   8.348  25.998  17.358
75589W        W76454   8.817  27.067  18.115
75590W        W76455   8.320  28.246  15.309
75591W        W76456  10.075  27.744  15.573
75592W        W76457   7.843  26.370  17.297
75593W        W76458   9.172  28.432  15.761
75594W        W76459  10.922  26.992  15.942
75595W        W76460   9.144  25.625  17.661
75596W        W76461   9.924  28.330  16.740
75597W        W76462  10.227  28.674  16.448
75598W        W76463   9.446  28.476  14.876
75599W        W76464   7.456  28.368  17.718
75600W        W76465   8.199  26.360  16.956
75601W        W76466   8.169  25.708  16.066
75602W        W76467   9.790  26.550  16.758
75603W        W76468   8.588  27.721  14.958
75604W        W76469  10.586  27.663  16.457
75605W        W76470   7.913  28.421  17.880
75606W        W76471  10.300  29.103  15.677
75607W        W76472   8.399  26.123  16.122
75608W        W76473   8.168  27.616  16.212
75609W        W76474   8.481  29.027  16.962
75610W        W76475  10.548  29.123  17.994
75611W        W76476   9.707  27.311  16.927
75612W        W76477   7.556  27.109  14.842
75613W        W76478  10.690  28.767  15.539
75614W        W76479  10.527  26.091  15.158
75615W        W76480   8.666  25.610  17.561
75616W        W76481  10.372  28.412  16.019
75617W        W76482  10.401  26.968  15.924
75618W        W76483   8.518  26.641  16.140
75619W        W76484   8.763  26.903  17.464
75620W        W76485   9.874  28.056  17.327
75621W        W76486   8.524  26.510  17.439
75622W        W76487   8.503  28.976  16.055
75623W        W76488   7.820  28.935  17.689
75624W        W76489   7.932  28.296  14.819
75625W        W76490  10.449  28.054  15.629
75626W        W76491   8.053  26.846  17.515
75627W        W76492  10.826  26.776  14.996
75628W        W76493   8.571  27.833  15.467
75629W        W76494   9.670  27.215  17.548
75630W        W76495   9.561  26.843  17.092
75631W        W76496   8.121  27.215  17.121
75632W        W76497  10.331  29.103  16.950
75633W        W76498  10.122  25.737  17.944
75634W        W76499   7.786  25.887  17.531
75635W        W76500   8.125  26.910  16.584
75636W        W76501   8.494  26.724  14.706
75637W        W76502   7.297  28.483  17.251
75638W        W76503   8.882  27.192  16.694
75639W        W76504   8.705  26.217  14.799
75640W        W76505   7.840  27.033  15.580
75641W        W76506   7.611  28.885  17.017
75642W        W76507  10.406  27.111  15.125
75643W        W76508  10.501  26.027  17.811
75644W        W76509   9.937  28.236  15.774
75645W        W76510   7.535  27.160  17.951
75646W        W76511  10.501  25.624  15.247
75647W        W76512  10.021  28.099  15.258
75648W        W76513   8.923  27.157  15.343
75649W        W76514  10.110  25.961  14.866
75650W        W76515  10.175  26.568  17.052
75651W        W76516   7.884  27.161  16.259
75652W        W76517   8.178  28.100  15.908
75653W        W76518   9.941  26.720  15.873
75654W        W76519   8.964  26.099  16.569
75655W        W76520  10.926  28.010  17.080
75656W        W76521  10.844  25.997  16.641
75657W        W76522   7.383  28.827  16.017
75658W        W76523   7.892  28.014  15.553
75659W        W76524   7.807  25.631  18.106
75660W        W76525   8.926  28.484  18.208
75661W        W76526  10.681  27.452  15.998
75662W        W76527  10.035  27.629  14.878
75663W        W76528   9.330  29.150  17.090
75664W        W76529  10.187  27.872  18.127
75665W        W76530   9.002  25.582  15.407
75666W        W76531   9.715  26.451  16.266
75667W        W76532   7.401  28.038  16.598
75668W        W76533   8.654  26.000  15.239
75669W        W76534   8.458  27.484  18.088
75670W        W76535   9.452  26.465  15.802
75671W        W76536   9.657  27.875  16.924
75672W        W76537   7.811  28.480  17.359
75673W        W76538   8.402  28.463  18.082
75674W        W76539   8.253  26.260  15.096
75675W        W76540   9.770  26.402  15.421
75676W        W76541   9.728  28.510  17.658
75677W        W76542   8.413  27.102  16.257
75678W        W76543   8.068  28.800  17.122
75679W        W76544  10.813  28.917  14.723
75680W        W76545   7.676  27.589  17.719
75681W        W76546   9.671  27.851  16.407
75682W        W76547   8.107  27.500  15.649
75683W        W76548   8.478  28.507  17.044
75684W        W76549   8.856  25.926  16.085
75685W        W76550   7.467  27.910  15.015
75686W        W76551   8.986  26.861  14.885
75687W        W76552   7.632  27.410  15.904
75688W        W76553   8.922  26.052  17.368
75689W        W76554  10.594  25.761  14.795
75690W        W76555  10.687  27.507  17.894
75691W        W76556   9.341  28.764  18.046
75692W        W76557  10.899  27.858  17.568
75693W        W76558  10.307  28.656  18.179
75694W        W76559   8.046  29.112  16.657
75695W        W76560  10.905  27.734  15.531
75696W        W76561   9.435  27.001  16.044
75697W        W76562   9.202  25.613  15.934
75698W        W76563   8.261  28.597  15.771
75699W        W76564   8.760  26.338  16.996
75700W        W76565   8.460  25.707  16.465
75701W        W76566   7.523  28.529  15.013
75702W        W76567   9.339  27.893  15.731
75703W        W76568   8.214  28.688  17.610
75704W        W76569   7.691  27.511  15.306
75705W        W76570   7.576  26.054  16.305
75706W        W76571   9.124  28.019  16.362
75707W        W76572   7.376  25.873  15.382
75708W        W76573  10.040  27.079  17.309
75709W        W76574   9.917  26.465  14.881
75710W        W76575  10.434  28.137  16.529
75711W        W76576   9.095  28.621  16.360
75712W        W76577   8.507  28.725  15.271
75713W        W76578   9.789  25.628  14.701
75714W        W76579   7.589  28.888  16.442
75715W        W76580   9.786  26.646  18.077
75716W        W76581   7.769  26.176  18.076
75717W        W76582   7.500  26.776  15.409
75718W        W76583   8.191  26.765  15.134
75719W        W76584   9.954  27.092  17.951
75720W        W76585   8.297  27.373  16.660
75721W        W76586   9.771  25.659  15.780
75722W        W76587   8.902  29.090  16.283
75723W        W76588  10.116  28.552  17.220
75724W        W76589   9.700  28.701  16.331
75725W        W76590   9.719  27.681  15.925
75726W        W76591   9.181  25.906  14.996
75727W        W76592  10.862  25.534  15.718
75728W        W76593   8.550  27.169  14.881
75729W        W76594  10.716  26.506  15.871
75730W        W76595   9.408  27.676  14.748
75731W        W76596  10.344  27.876  17.496
75732W        W76597   9.998  28.577  14.963
75733W        W76598   8.613  26.252  17.869
75734W        W76599   8.433  26.836  17.110
75735W        W76600  10.525  28.331  17.387
75736W        W76601   9.625  26.281  17.764
75737W        W76602   7.469  26.752  17.541
75738W        W76603   9.229  27.229  17.267
75739W        W76604   7.586  27.987  15.924
75740W        W76605   7.733  27.284  16.814
75741W        W76606  10.050  27.570  17.164
75742W        W76607   9.822  28.950  17.975
75743W        W76608   9.718  26.689  17.528
75744W        W76609   9.995  28.743  15.933
75745W        W76610   8.997  28.463  17.256
75746W        W76611   8.482  28.818  16.525
75747W        W76612  10.287  27.989  16.944
75748W        W76613   9.337  28.061  18.081
75749W        W76614   7.942  28.014  16.420
75750W        W76615  10.288  27.773  16.065
75751W        W76616   9.929  28.839  16.816
75752W        W76617   7.907  28.568  16.686
75753W        W76618   8.928  26.620  17.896
75754W        W76619   9.379  28.786  15.407
75755W        W76620   8.687  28.041  18.045
75756W        W76621   8.813  28.279  15.422
75757W        W76622   8.034  27.019  14.681
75758W        W76623   7.373  29.105  21.580
75759W        W76624   7.749  27.998  21.103
75760W        W76625  10.454  27.728  18.873
75761W        W76626  10.584  28.813  20.900
75762W        W76627   8.502  28.804  18.426
75763W        W76628   8.585  26.956  19.409
75764W        W76629   8.100  26.804  19.573
75765W        W76630   9.091  27.619  19.007
75766W        W76631   8.766  28.711  21.362
75767W        W76632   7.415  26.272  21.325
75768W        W76633   8.177  25.552  21.127
75769W        W76634   9.871  25.940  20.014
75770W        W76635   9.520  26.811  18.584
75771W        W76636  10.090  26.245  21.675
75772W        W76637   7.456  26.037  20.800
75773W        W76638   7.555  28.656  21.821
75774W        W76639   9.077  28.046  18.553
75775W        W76640   7.509  26.829  20.246
75776W        W76641   8.402  26.720  21.483
75777W        W76642  10.861  26.579  19.982
75778W        W76643  10.625  27.622  20.841
75779W        W76644   8.933  26.955  19.868
75780W        W76645   9.479  28.294  20.237
75781W        W76646   7.979  27.728  20.469
75782W        W76647   7.338  27.256  20.040
75783W        W76648   8.374  27.228  21.232
75784W        W76649  10.645  27.011  21.486
75785W        W76650   8.261  28.455  19.931
75786W        W76651   9.382  28.144  21.065
75787W        W76652   8.602  26.784  20.290
75788W        W76653   8.894  27.568  19.933
75789W        W76654   9.891  28.341  21.781
75790W        W76655   8.970  27.661  21.791
75791W        W76656   7.360  26.768  21.791
75792W        W76657  10.192  28.303  21.390
75793W        W76658   7.773  25.885  19.388
75794W        W76659   8.300  28.143  20.387
75795W        W76660  10.763  27.926  19.677
75796W        W76661  10.176  26.326  20.244
75797W        W76662  10.461  26.279  18.339
75798W        W76663  10.926  27.080  20.645
75799W        W76664   8.893  28.787  20.398
75800W        W76665  10.667  28.253  18.836
75801W        W76666   7.796  29.039  18.590
75802W        W76667   8.189  29.085  19.266
75803W        W76668   7.986  25.839  20.692
75804W        W76669  10.609  26.857  20.967
75805W        W76670  10.014  27.279  19.426
75806W        W76671   9.980  26.967  18.453
75807W        W76672   9.188  28.111  20.593
75808W        W76673   8.994  26.441  19.792
75809W        W76674   9.594  28.528  20.786
75810W        W76675  10.465  27.319  19.208
75811W        W76676   9.367  25.977  19.224
75812W        W76677   8.024  28.671  18.907
75813W        W76678   7.395  26.170  19.506
75814W        W76679  10.181  26.777  19.980
75815W        W76680   7.639  28.394  19.895
75816W        W76681   8.980  28.744  18.765
75817W        W76682  10.372  26.770  18.229
75818W        W76683   7.395  28.528  20.393
75819W        W76684   8.186  28.100  20.873
75820W        W76685   8.559  27.460  19.492
75821W        W76686   8.581  25.865  20.585
75822W        W76687  10.810  25.627  19.882
75823W        W76688   8.029  27.499  18.350
75824W        W76689   7.684  26.532  18.529
75825W        W76690   7.746  28.488  19.323
75826W        W76691   8.877  27.971  19.571
75827W        W76692  10.209  28.830  21.285
75828W        W76693   9.135  26.472  18.969
75829W        W76694  10.518  28.870  19.741
75830W        W76695  10.195  26.723  21.339
75831W        W76696  10.908  28.379  19.473
75832W        W76697   9.535  27.671  20.957
75833W        W76698   7.301  27.222  19.163
75834W        W76699   8.412  27.637  20.736
75835W        W76700   9.616  26.901  19.114
75836W        W76701   9.493  27.391  19.218
75837W        W76702   7.836  26.811  20.692
75838W        W76703   7.821  26.687  21.614
75839W        W76704   7.711  25.604  19.773
75840W        W76705   9.479  25.951  20.334
75841W        W76706   9.127  26.136  21.497
75842W        W76707   9.482  26.285  18.675
75843W        W76708  10.665  28.678  21.429
75844W        W76709   9.632  25.759  21.468
75845W        W76710  10.651  28.060  21.590
75846W        W76711  10.081  26.227  21.186
75847W        W76712   9.881  26.165  19.456
75848W        W76713  10.274  27.299  21.860
75849W        W76714   8.014  28.875  19.846
75850W        W76715   8.672  26.592  18.832
75851W        W76716   8.241  25.876  21.496
75852W        W76717  10.293  26.360  19.177
75853W        W76718  10.660  26.842  19.122
75854W        W76719   8.403  29.059  21.593
75855W        W76720   8.329  25.595  18.828
75856W        W76721  10.650  26.129  19.863
75857W        W76722  10.800  28.378  18.308
75858W        W76723   7.707  27.581  20.010
75859W        W76724   9.624  26.168  18.240
75860W        W76725  10.758  28.500  19.960
75861W        W76726  10.797  25.694  20.710
75862W        W76727   9.242  26.906  21.264
75863W        W76728   9.335  28.245  18.967
75864W        W76729   9.735  27.539  21.707
75865W        W76730   9.409  25.516  20.016
75866W        W76731   8.021  26.419  20.079
75867W        W76732   7.575  27.619  20.853
75868W        W76733   9.434  28.812  19.559
75869W        W76734  10.628  26.409  20.431
75870W        W76735   9.265  28.756  21.198
75871W        W76736  10.608  27.815  18.403
75872W        W76737   9.043  27.298  19.464
75873W        W76738  10.895  25.809  21.205
75874W        W76739   9.044  27.644  20.799
75875W        W76740   9.261  26.530  20.244
75876W        W76741  10.113  26.828  19.082
75877W        W76742  10.400  26.561  18.724
75878W        W76743  10.209  28.601  19.113
75879W        W76744  10.043  28.204  19.909
75880W        W76745   9.939  27.283  18.887
75881W        W76746   9.372  27.493  19.873
75882W        W76747  10.253  27.281  19.940
75883W        W76748   7.628  26.296  20.364
75884W        W76749  10.406  27.348  21.191
75885W        W76750  10.757  28.966  20.337
75886W        W76751   8.687  28.410  19.739
75887W        W76752   9.694  28.943  21.063
75888W        W76753   9.688  26.273  20.827
75889W        W76754   8.895  28.981  20.888
75890W        W76755  10.592  25.935  19.354
75891W        W76756  10.383  27.254  20.655
75892W        W76757   7.366  26.575  20.693
75893W        W76758  10.226  26.370  19.711
75894W        W76759  10.637  26.521  21.488
75895W        W76760   9.522  28.220  19.706
75896W        W76761   8.778  28.811  19.319
75897W        W76762   7.893  25.991  18.577
75898W        W76763   8.997  25.645  20.387
75899W        W76764   8.025  28.765  18.235
75900W        W76765   8.399  27.231  18.986
75901W        W76766   9.053  27.860  21.299
75902W        W76767   8.883  26.218  19.289
75903W        W76768  10.239  25.815  19.717
75904W        W76769   9.959  29.097  20.045
75905W        W76770   9.371  28.745  20.385
75906W        W76771   8.767  27.782  20.346
75907W        W76772  10.537  28.505  20.472
75908W        W76773   8.231  26.008  19.241
75909W        W76774   8.753  28.305  20.201
75910W        W76775   8.236  26.236  18.266
75911W        W76776   9.037  26.845  20.660
75912W        W76777   9.885  25.711  20.530
75913W        W76778   7.305  27.554  20.415
75914W        W76779   9.009  27.372  18.573
75915W        W76780   8.277  25.687  18.343
75916W        W76781   9.015  26.768  19.394
75917W        W76782   9.985  25.744  21.093
75918W        W76783   8.573  27.756  21.202
75919W        W76784   9.377  27.538  21.419
75920W        W76785   9.994  27.568  21.312
75921W        W76786   9.278  25.708  21.817
75922W        W76787   8.500  26.324  20.210
75923W        W76788   7.926  26.280  19.608
75924W        W76789   7.712  28.992  19.284
75925W        W76790   9.044  28.322  21.409
75926W        W76791   8.079  27.807  18.768
75927W        W76792   9.759  27.192  19.989
75928W        W76793  10.039  26.991  20.388
75929W        W76794   9.244  27.665  20.322
75930W        W76795   9.714  28.039  18.454
75931W        W76796   9.386  26.060  19.782
75932W        W76797  10.865  26.338  19.050
75933W        W76798   7.359  28.927  21.081
75934W        W76799   7.776  28.153  20.613
75935W        W76800   7.343  28.999  18.845
75936W        W76801   9.242  26.269  20.651
75937W        W76802   8.605  28.292  18.500
75938W        W76803  10.510  28.674  18.686
75939W        W76804   9.485  27.327  18.700
75940W        W76805   8.328  26.518  19.217
75941W        W76806   9.160  26.428  18.269
75942W        W76807   9.744  27.993  21.447
75943W        W76808  10.097  25.899  19.064
75944W        W76809   7.427  25.747  18.512
75945W        W76810   8.713  28.066  20.802
75946W        W76811   8.512  27.982  19.894
75947W        W76812   8.254  27.934  18.292
75948W        W76813   7.495  28.175  19.060
75949W        W76814   7.999  27.245  21.502
75950W        W76815   8.703  25.805  21.688
75951W        W76816   9.412  25.947  21.044
75952W        W76817   8.607  25.715  19.325
75953W        W76818   9.666  25.792  18.830
75954W        W76819   7.611  25.724  20.407
75955W        W76820   7.659  26.687  19.777
75956W        W76821  10.348  25.795  20.183
75957W        W76822   7.770  26.293  18.997
75958W        W76823  10.341  25.981  20.613
75959W        W76824  10.737  27.184  18.298
75960W        W76825   8.029  25.942  20.117
75961W        W76826   9.143  26.514  21.057
75962W        W76827   7.291  26.204  18.535
75963W        W76828   8.077  27.593  21.096
75964W        W76829   9.435  26.991  20.275
75965W        W76830   9.302  29.070  18.571
75966W        W76831   7.448  27.577  18.268
75967W        W76832   8.183  27.988  21.394
75968W        W76833   7.704  27.155  21.025
75969W        W76834   8.695  27.260  20.819
75970W        W76835  10.463  25.619  21.081
75971W        W76836  10.861  27.229  21.072
75972W        W76837  10.849  27.429  18.758
75973W        W76838   9.712  27.761  18.857
75974W        W76839  10.186  29.061  18.552
75975W        W76840   9.363  27.051  21.694
75976W        W76841   7.693  28.018  21.734
75977W        W76842  10.899  25.940  21.686
75978W        W76843  10.617  26.868  20.307
75979W        W76844   8.925  28.998  21.784
75980W        W76845   8.780  25.627  18.511
75981W        W76846  10.319  28.226  18.454
75982W        W76847   8.088  26.319  21.340
75983W        W76848   8.522  28.313  21.202
75984W        W76849  10.648  26.304  21.000
75985W        W76850   9.859  28.963  18.968
75986W        W76851  10.098  27.582  20.335
75987W        W76852   8.348  25.998  21.002
75988W        W76853   8.817  27.067  21.759
75989W        W76854   8.320  28.246  18.953
75990W        W76855  10.075  27.744  19.217
75991W        W76856   7.843  26.370  20.941
75992W        W76857   9.172  28.432  19.405
75993W        W76858  10.922  26.992  19.586
75994W        W76859   9.144  25.625  21.305
75995W        W76860   9.924  28.330  20.384
75996W        W76861  10.227  28.674  20.092
75997W        W76862   9.446  28.476  18.520
75998W        W76863   7.456  28.368  21.362
75999W        W76864   8.199  26.360  20.600
76000W        W76865   8.169  25.708  19.710
76001W        W76866   9.790  26.550  20.402
76002W        W76867   8.588  27.721  18.602
76003W        W76868  10.586  27.663  20.101
76004W        W76869   7.913  28.421  21.524
76005W        W76870  10.300  29.103  19.321
76006W        W76871   8.399  26.123  19.766
76007W        W76872   8.168  27.616  19.856
76008W        W76873   8.481  29.027  20.606
76009W        W76874  10.548  29.123  21.638
76010W        W76875   9.707  27.311  20.571
76011W        W76876   7.556  27.109  18.486
76012W        W76877  10.690  28.767  19.183
76013W        W76878  10.527  26.091  18.802
76014W        W76879   8.666  25.610  21.205
76015W        W76880  10.372  28.412  19.663
76016W        W76881  10.401  26.968  19.568
76017W        W76882   8.518  26.641  19.784
76018W        W76883   8.763  26.903  21.108
76019W        W76884   9.874  28.056  20.971
76020W        W76885   8.524  26.510  21.083
76021W        W76886   8.503  28.976  19.699
76022W        W76887   7.820  28.935  21.333
76023W        W76888   7.932  28.296  18.463
76024W        W76889  10.449  28.054  19.273
76025W        W76890   8.053  26.846  21.159
76026W        W76891  10.826  26.776  18.640
76027W        W76892   8.571  27.833  19.111
76028W        W76893   9.670  27.215  21.192
76029W        W76894   9.561  26.843  20.736
76030W        W76895   8.121  27.215  20.765
76031W        W76896  10.331  29.103  20.594
76032W        W76897  10.122  25.737  21.588
76033W        W76898   7.786  25.887  21.175
76034W        W76899   8.125  26.910  20.228
76035W        W76900   8.494  26.724  18.350
76036W        W76901   7.297  28.483  20.895
76037W        W76902   8.882  27.192  20.338
76038W        W76903   8.705  26.217  18.443
76039W        W76904   7.840  27.033  19.224
76040W        W76905   7.611  28.885  20.661
76041W        W76906  10.406  27.111  18.769
76042W        W76907  10.501  26.027  21.455
76043W        W76908   9.937  28.236  19.418
76044W        W76909   7.535  27.160  21.595
76045W        W76910  10.501  25.624  18.891
76046W        W76911  10.021  28.099  18.902
76047W        W76912   8.923  27.157  18.987
76048W        W76913  10.110  25.961  18.510
76049W        W76914  10.175  26.568  20.696
76050W        W76915   7.884  27.161  19.903
76051W        W76916   8.178  28.100  19.552
76052W        W76917   9.941  26.720  19.517
76053W        W76918   8.964  26.099  20.213
76054W        W76919  10.926  28.010  20.724
76055W        W76920  10.844  25.997  20.285
76056W        W76921   7.383  28.827  19.661
76057W        W76922   7.892  28.014  19.197
76058W        W76923   7.807  25.631  21.750
76059W        W76924   8.926  28.484  21.852
76060W        W76925  10.681  27.452  19.642
76061W        W76926  10.035  27.629  18.522
76062W        W76927   9.330  29.150  20.734
76063W        W76928  10.187  27.872  21.771
76064W        W76929   9.002  25.582  19.051
76065W        W76930   9.715  26.451  19.910
76066W        W76931   7.401  28.038  20.242
76067W        W76932   8.654  26.000  18.883
76068W        W76933   8.458  27.484  21.732
76069W        W76934   9.452  26.465  19.446
76070W        W76935   9.657  27.875  20.568
76071W        W76936   7.811  28.480  21.003
76072W        W76937   8.402  28.463  21.726
76073W        W76938   8.253  26.260  18.740
76074W        W76939   9.770  26.402  19.065
76075W        W76940   9.728  28.510  21.302
76076W        W76941   8.413  27.102  19.901
76077W        W76942   8.068  28.800  20.766
76078W        W76943  10.813  28.917  18.367
76079W        W76944   7.676  27.589  21.363
76080W        W76945   9.671  27.851  20.051
76081W        W76946   8.107  27.500  19.293
76082W        W76947   8.478  28.507  20.688
76083W        W76948   8.856  25.926  19.729
76084W        W76949   7.467  27.910  18.659
76085W        W76950   8.986  26.861  18.529
76086W        W76951   7.632  27.410  19.548
76087W        W76952   8.922  26.052  21.012
76088W        W76953  10.594  25.761  18.439
76089W        W76954  10.687  27.507  21.538
76090W        W76955   9.341  28.764  21.690
76091W        W76956  10.899  27.858  21.212
76092W        W76957  10.307  28.656  21.823
76093W        W76958   8.046  29.112  20.301
76094W        W76959  10.905  27.734  19.175
76095W        W76960   9.435  27.001  19.688
76096W        W76961   9.202  25.613  19.578
76097W        W76962   8.261  28.597  19.415
76098W        W76963   8.760  26.338  20.640
76099W        W76964   8.460  25.707  20.109
76100W        W76965   7.523  28.529  18.657
76101W        W76966   9.339  27.893  19.375
76102W        W76967   8.214  28.688  21.254
76103W        W76968   7.691  27.511  18.950
76104W        W76969   7.576  26.054  19.949
76105W        W76970   9.124  28.019  20.006
76106W        W76971   7.376  25.873  19.026
76107W        W76972  10.040  27.079  20.953
76108W        W76973   9.917  26.465  18.525
76109W        W76974  10.434  28.137  20.173
76110W        W76975   9.095  28.621  20.004
76111W        W76976   8.507  28.725  18.915
76112W        W76977   9.789  25.628  18.345
76113W        W76978   7.589  28.888  20.086
76114W        W76979   9.786  26.646  21.721
76115W        W76980   7.769  26.176  21.720
76116W        W76981   7.500  26.776  19.053
76117W        W76982   8.191  26.765  18.778
76118W        W76983   9.954  27.092  21.595
76119W        W76984   8.297  27.373  20.304
76120W        W76985   9.771  25.659  19.424
76121W        W76986   8.902  29.090  19.927
76122W        W76987  10.116  28.552  20.864
76123W        W76988   9.700  28.701  19.975
76124W        W76989   9.719  27.681  19.569
76125W        W76990   9.181  25.906  18.640
76126W        W76991  10.862  25.534  19.362
76127W        W76992   8.550  27.169  18.525
76128W        W76993  10.716  26.506  19.515
76129W        W76994   9.408  27.676  18.392
76130W        W76995  10.344  27.876  21.140
76131W        W76996   9.998  28.577  18.607
76132W        W76997   8.613  26.252  21.513
76133W        W76998   8.433  26.836  20.754
76134W        W76999  10.525  28.331  21.031
76135W        W77000   9.625  26.281  21.408
76136W        W77001   7.469  26.752  21.185
76137W        W77002   9.229  27.229  20.911
76138W        W77003   7.586  27.987  19.568
76139W        W77004   7.733  27.284  20.458
76140W        W77005  10.050  27.570  20.808
76141W        W77006   9.822  28.950  21.619
76142W        W77007   9.718  26.689  21.172
76143W        W77008   9.995  28.743  19.577
76144W        W77009   8.997  28.463  20.900
76145W        W77010   8.482  28.818  20.169
76146W        W77011  10.287  27.989  20.588
76147W        W77012   9.337  28.061  21.725
76148W        W77013   7.942  28.014  20.064
76149W        W77014  10.288  27.773  19.709
76150W        W77015   9.929  28.839  20.460
76151W        W77016   7.907  28.568  20.330
76152W        W77017   8.928  26.620  21.540
76153W        W77018   9.379  28.786  19.051
76154W        W77019   8.687  28.041  21.689
76155W        W77020   8.813  28.279  19.066
76156W        W77021   8.034  27.019  18.325
76157W        W77022   7.373  29.105  25.225
76158W        W77023   7.749  27.998  24.748
76159W        W77024  10.454  27.728  22.518
76160W        W77025  10.584  28.813  24.545
76161W        W77026   8.502  28.804  22.071
76162W        W77027   8.585  26.956  23.054
76163W        W77028   8.100  26.804  23.218
76164W        W77029   9.091  27.619  22.652
76165W        W77030   8.766  28.711  25.007
76166W        W77031   7.415  26.272  24.970
76167W        W77032   8.177  25.552  24.772
76168W        W77033   9.871  25.940  23.659
76169W        W77034   9.520  26.811  22.229
76170W        W77035  10.090  26.245  25.320
76171W        W77036   7.456  26.037  24.445
76172W        W77037   7.555  28.656  25.466
76173W        W77038   9.077  28.046  22.198
76174W        W77039   7.509  26.829  23.891
76175W        W77040   8.402  26.720  25.128
76176W        W77041  10.861  26.579  23.627
76177W        W77042  10.625  27.622  24.486
76178W        W77043   8.933  26.955  23.513
76179W        W77044   9.479  28.294  23.882
76180W        W77045   7.979  27.728  24.114
76181W        W77046   7.338  27.256  23.685
76182W        W77047   8.374  27.228  24.877
76183W        W77048  10.645  27.011  25.131
76184W        W77049   8.261  28.455  23.576
76185W        W77050   9.382  28.144  24.710
76186W        W77051   8.602  26.784  23.935
76187W        W77052   8.894  27.568  23.578
76188W        W77053   9.891  28.341  25.426
76189W        W77054   8.970  27.661  25.436
76190W        W77055   8.951  27.377  24.914
76191W        W77056   7.360  26.768  25.436
76192W        W77057  10.192  28.303  25.035
76193W        W77058   7.773  25.885  23.033
76194W        W77059   8.300  28.143  24.032
76195W        W77060  10.763  27.926  23.322
76196W        W77061  10.176  26.326  23.889
76197W        W77062  10.461  26.279  21.984
76198W        W77063  10.926  27.080  24.290
76199W        W77064   8.893  28.787  24.043
76200W        W77065  10.667  28.253  22.481
76201W        W77066   7.796  29.039  22.235
76202W        W77067   8.189  29.085  22.911
76203W        W77068   7.986  25.839  24.337
76204W        W77069  10.609  26.857  24.612
76205W        W77070  10.014  27.279  23.071
76206W        W77071   9.980  26.967  22.098
76207W        W77072   9.188  28.111  24.238
76208W        W77073   8.994  26.441  23.437
76209W        W77074   9.594  28.528  24.431
76210W        W77075  10.465  27.319  22.853
76211W        W77076   9.367  25.977  22.869
76212W        W77077   8.024  28.671  22.552
76213W        W77078   7.395  26.170  23.151
76214W        W77079  10.181  26.777  23.625
76215W        W77080   7.639  28.394  23.540
76216W        W77081   8.980  28.744  22.410
76217W        W77082  10.372  26.770  21.874
76218W        W77083   7.395  28.528  24.038
76219W        W77084   8.186  28.100  24.518
76220W        W77085   8.559  27.460  23.137
76221W        W77086   8.581  25.865  24.230
76222W        W77087  10.810  25.627  23.527
76223W        W77088   8.029  27.499  21.995
76224W        W77089   7.684  26.532  22.174
76225W        W77090   7.746  28.488  22.968
76226W        W77091   8.877  27.971  23.216
76227W        W77092  10.209  28.830  24.930
76228W        W77093   9.135  26.472  22.614
76229W        W77094  10.518  28.870  23.386
76230W        W77095  10.195  26.723  24.984
76231W        W77096  10.908  28.379  23.118
76232W        W77097   9.535  27.671  24.602
76233W        W77098   7.301  27.222  22.808
76234W        W77099   8.412  27.637  24.381
76235W        W77100   9.616  26.901  22.759
76236W        W77101   9.493  27.391  22.863
76237W        W77102   7.836  26.811  24.337
76238W        W77103   7.821  26.687  25.259
76239W        W77104   7.711  25.604  23.418
76240W        W77105   9.479  25.951  23.979
76241W        W77106   9.127  26.136  25.142
76242W        W77107   9.482  26.285  22.320
76243W        W77108  10.665  28.678  25.074
76244W        W77109   9.632  25.759  25.113
76245W        W77110  10.651  28.060  25.235
76246W        W77111  10.081  26.227  24.831
76247W        W77112   9.881  26.165  23.101
76248W        W77113  10.274  27.299  25.505
76249W        W77114   8.014  28.875  23.491
76250W        W77115   8.672  26.592  22.477
76251W        W77116   8.241  25.876  25.141
76252W        W77117  10.293  26.360  22.822
76253W        W77118  10.660  26.842  22.767
76254W        W77119   8.403  29.059  25.238
76255W        W77120   8.329  25.595  22.473
76256W        W77121  10.650  26.129  23.508
76257W        W77122  10.800  28.378  21.953
76258W        W77123   7.707  27.581  23.655
76259W        W77124   9.624  26.168  21.885
76260W        W77125  10.758  28.500  23.605
76261W        W77126  10.797  25.694  24.355
76262W        W77127   9.242  26.906  24.909
76263W        W77128   9.335  28.245  22.612
76264W        W77129   9.735  27.539  25.352
76265W        W77130   9.409  25.516  23.661
76266W        W77131   8.021  26.419  23.724
76267W        W77132   7.575  27.619  24.498
76268W        W77133   9.434  28.812  23.204
76269W        W77134  10.628  26.409  24.076
76270W        W77135   9.265  28.756  24.843
76271W        W77136  10.608  27.815  22.048
76272W        W77137   9.043  27.298  23.109
76273W        W77138  10.895  25.809  24.850
76274W        W77139   9.044  27.644  24.444
76275W        W77140   9.261  26.530  23.889
76276W        W77141  10.113  26.828  22.727
76277W        W77142  10.400  26.561  22.369
76278W        W77143  10.209  28.601  22.758
76279W        W77144  10.043  28.204  23.554
76280W        W77145   9.939  27.283  22.532
76281W        W77146   9.372  27.493  23.518
76282W        W77147  10.253  27.281  23.585
76283W        W77148   7.628  26.296  24.009
76284W        W77149  10.406  27.348  24.836
76285W        W77150  10.757  28.966  23.982
76286W        W77151   8.687  28.410  23.384
76287W        W77152   9.694  28.943  24.708
76288W        W77153   9.688  26.273  24.472
76289W        W77154   8.895  28.981  24.533
76290W        W77155  10.592  25.935  22.999
76291W        W77156   7.366  26.575  24.338
76292W        W77157  10.226  26.370  23.356
76293W        W77158  10.637  26.521  25.133
76294W        W77159   9.522  28.220  23.351
76295W        W77160   8.778  28.811  22.964
76296W        W77161   7.893  25.991  22.222
76297W        W77162   8.997  25.645  24.032
76298W        W77163   8.025  28.765  21.880
76299W        W77164   8.399  27.231  22.631
76300W        W77165   9.053  27.860  24.944
76301W        W77166   8.883  26.218  22.934
76302W        W77167  10.239  25.815  23.362
76303W        W77168   9.959  29.097  23.690
76304W        W77169   9.371  28.745  24.030
76305W        W77170   8.767  27.782  23.991
76306W        W77171  10.537  28.505  24.117
76307W        W77172   8.231  26.008  22.886
76308W        W77173   8.753  28.305  23.846
76309W        W77174   8.236  26.236  21.911
76310W        W77175   9.037  26.845  24.305
76311W        W77176   9.885  25.711  24.175
76312W        W77177   7.305  27.554  24.060
76313W        W77178   9.009  27.372  22.218
76314W        W77179   8.277  25.687  21.988
76315W        W77180   9.015  26.768  23.039
76316W        W77181   9.985  25.744  24.738
76317W        W77182   8.573  27.756  24.847
76318W        W77183   9.377  27.538  25.064
76319W        W77184   9.994  27.568  24.957
76320W        W77185   9.278  25.708  25.462
76321W        W77186   8.500  26.324  23.855
76322W        W77187   7.926  26.280  23.253
76323W        W77188   7.712  28.992  22.929
76324W        W77189   9.044  28.322  25.054
76325W        W77190   8.079  27.807  22.413
76326W        W77191   9.759  27.192  23.634
76327W        W77192  10.039  26.991  24.033
76328W        W77193   9.244  27.665  23.967
76329W        W77194   9.714  28.039  22.099
76330W        W77195   9.386  26.060  23.427
76331W        W77196  10.865  26.338  22.695
76332W        W77197   7.359  28.927  24.726
76333W        W77198   7.776  28.153  24.258
76334W        W77199   7.343  28.999  22.490
76335W        W77200   9.242  26.269  24.296
76336W        W77201   8.605  28.292  22.145
76337W        W77202  10.510  28.674  22.331
76338W        W77203   9.485  27.327  22.345
76339W        W77204   8.328  26.518  22.862
76340W        W77205   9.160  26.428  21.914
76341W        W77206   9.744  27.993  25.092
76342W        W77207  10.097  25.899  22.709
76343W        W77208   7.427  25.747  22.157
76344W        W77209   8.713  28.066  24.447
76345W        W77210   8.512  27.982  23.539
76346W        W77211   8.254  27.934  21.937
76347W        W77212   7.495  28.175  22.705
76348W        W77213   7.999  27.245  25.147
76349W        W77214   8.703  25.805  25.333
76350W        W77215   9.412  25.947  24.689
76351W        W77216   8.607  25.715  22.970
76352W        W77217   9.666  25.792  22.475
76353W        W77218   7.611  25.724  24.052
76354W        W77219   7.659  26.687  23.422
76355W        W77220  10.348  25.795  23.828
76356W        W77221   7.770  26.293  22.642
76357W        W77222  10.341  25.981  24.258
76358W        W77223  10.737  27.184  21.943
76359W        W77224   8.029  25.942  23.762
76360W        W77225   9.143  26.514  24.702
76361W        W77226   7.291  26.204  22.180
76362W        W77227   8.077  27.593  24.741
76363W        W77228   9.435  26.991  23.920
76364W        W77229   9.302  29.070  22.216
76365W        W77230   7.448  27.577  21.913
76366W        W77231   8.183  27.988  25.039
76367W        W77232   7.704  27.155  24.670
76368W        W77233   8.695  27.260  24.464
76369W        W77234  10.463  25.619  24.726
76370W        W77235  10.861  27.229  24.717
76371W        W77236  10.849  27.429  22.403
76372W        W77237   9.712  27.761  22.502
76373W        W77238  10.186  29.061  22.197
76374W        W77239   9.363  27.051  25.339
76375W        W77240   7.693  28.018  25.379
76376W        W77241  10.899  25.940  25.331
76377W        W77242  10.617  26.868  23.952
76378W        W77243   8.925  28.998  25.429
76379W        W77244   8.780  25.627  22.156
76380W        W77245  10.319  28.226  22.099
76381W        W77246   8.088  26.319  24.985
76382W        W77247   8.522  28.313  24.847
76383W        W77248  10.648  26.304  24.645
76384W        W77249   9.859  28.963  22.613
76385W        W77250  10.098  27.582  23.980
76386W        W77251   8.348  25.998  24.647
76387W        W77252   8.817  27.067  25.404
76388W        W77253   8.320  28.246  22.598
76389W        W77254  10.075  27.744  22.862
76390W        W77255   7.843  26.370  24.586
76391W        W77256   9.172  28.432  23.050
76392W        W77257  10.922  26.992  23.231
76393W        W77258   9.144  25.625  24.950
76394W        W77259   9.924  28.330  24.029
76395W        W77260  10.227  28.674  23.737
76396W        W77261   9.446  28.476  22.165
76397W        W77262   7.456  28.368  25.007
76398W        W77263   8.199  26.360  24.245
76399W        W77264   8.169  25.708  23.355
76400W        W77265   9.790  26.550  24.047
76401W        W77266   8.588  27.721  22.247
76402W        W77267  10.586  27.663  23.746
76403W        W77268   7.913  28.421  25.169
76404W        W77269  10.300  29.103  22.966
76405W        W77270   8.399  26.123  23.411
76406W        W77271   8.168  27.616  23.501
76407W        W77272   8.481  29.027  24.251
76408W        W77273  10.548  29.123  25.283
76409W        W77274   9.707  27.311  24.216
76410W        W77275   7.556  27.109  22.131
76411W        W77276  10.690  28.767  22.828
76412W        W77277  10.527  26.091  22.447
76413W        W77278   8.666  25.610  24.850
76414W        W77279  10.372  28.412  23.308
76415W        W77280  10.401  26.968  23.213
76416W        W77281   8.518  26.641  23.429
76417W        W77282   8.763  26.903  24.753
76418W        W77283   9.874  28.056  24.616
76419W        W77284   8.524  26.510  24.728
76420W        W77285   8.503  28.976  23.344
76421W        W77286   7.820  28.935  24.978
76422W        W77287   7.932  28.296  22.108
76423W        W77288  10.449  28.054  22.918
76424W        W77289   8.053  26.846  24.804
76425W        W77290   8.571  27.833  22.756
76426W        W77291   9.670  27.215  24.837
76427W        W77292   9.561  26.843  24.381
76428W        W77293   8.121  27.215  24.410
76429W        W77294  10.331  29.103  24.239
76430W        W77295  10.122  25.737  25.233
76431W        W77296   7.786  25.887  24.820
76432W        W77297   8.125  26.910  23.873
76433W        W77298   8.494  26.724  21.995
76434W        W77299   7.297  28.483  24.540
76435W        W77300   8.882  27.192  23.983
76436W        W77301   8.705  26.217  22.088
76437W        W77302   7.840  27.033  22.869
76438W        W77303   7.611  28.885  24.306
76439W        W77304  10.406  27.111  22.414
76440W        W77305  10.501  26.027  25.100
76441W        W77306   9.937  28.236  23.063
76442W        W77307   7.535  27.160  25.240
76443W        W77308  10.501  25.624  22.536
76444W        W77309  10.021  28.099  22.547
76445W        W77310   8.923  27.157  22.632
76446W        W77311  10.110  25.961  22.155
76447W        W77312  10.175  26.568  24.341
76448W        W77313   7.884  27.161  23.548
76449W        W77314   8.178  28.100  23.197
76450W        W77315   9.941  26.720  23.162
76451W        W77316   8.964  26.099  23.858
76452W        W77317  10.926  28.010  24.369
76453W        W77318  10.844  25.997  23.930
76454W        W77319   7.383  28.827  23.306
76455W        W77320   7.892  28.014  22.842
76456W        W77321   7.807  25.631  25.395
76457W        W77322   8.926  28.484  25.497
76458W        W77323  10.681  27.452  23.287
76459W        W77324  10.035  27.629  22.167
76460W        W77325   9.330  29.150  24.379
76461W        W77326  10.187  27.872  25.416
76462W        W77327   9.002  25.582  22.696
76463W        W77328   9.715  26.451  23.555
76464W        W77329   7.401  28.038  23.887
76465W        W77330   8.654  26.000  22.528
76466W        W77331   8.458  27.484  25.377
76467W        W77332   9.452  26.465  23.091
76468W        W77333   9.657  27.875  24.213
76469W        W77334   7.811  28.480  24.648
76470W        W77335   8.402  28.463  25.371
76471W        W77336   8.253  26.260  22.385
76472W        W77337   9.770  26.402  22.710
76473W        W77338   9.728  28.510  24.947
76474W        W77339   8.413  27.102  23.546
76475W        W77340   8.068  28.800  24.411
76476W        W77341  10.813  28.917  22.012
76477W        W77342   7.676  27.589  25.008
76478W        W77343   9.671  27.851  23.696
76479W        W77344   8.107  27.500  22.938
76480W        W77345   8.478  28.507  24.333
76481W        W77346   8.856  25.926  23.374
76482W        W77347   7.467  27.910  22.304
76483W        W77348   8.986  26.861  22.174
76484W        W77349   7.632  27.410  23.193
76485W        W77350   8.922  26.052  24.657
76486W        W77351  10.594  25.761  22.084
76487W        W77352  10.687  27.507  25.183
76488W        W77353   9.341  28.764  25.335
76489W        W77354  10.899  27.858  24.857
76490W        W77355  10.307  28.656  25.468
76491W        W77356   8.046  29.112  23.946
76492W        W77357  10.905  27.734  22.820
76493W        W77358   9.435  27.001  23.333
76494W        W77359   9.202  25.613  23.223
76495W        W77360   8.261  28.597  23.060
76496W        W77361   8.760  26.338  24.285
76497W        W77362   8.460  25.707  23.754
76498W        W77363   7.523  28.529  22.302
76499W        W77364   9.339  27.893  23.020
76500W        W77365   8.214  28.688  24.899
76501W        W77366   7.691  27.511  22.595
76502W        W77367   7.576  26.054  23.594
76503W        W77368   9.124  28.019  23.651
76504W        W77369   7.376  25.873  22.671
76505W        W77370   9.917  26.465  22.170
76506W        W77371  10.434  28.137  23.818
76507W        W77372   9.095  28.621  23.649
76508W        W77373   8.507  28.725  22.560
76509W        W77374   9.789  25.628  21.990
76510W        W77375   7.589  28.888  23.731
76511W        W77376   9.786  26.646  25.366
76512W        W77377   7.769  26.176  25.365
76513W        W77378   7.500  26.776  22.698
76514W        W77379   8.191  26.765  22.423
76515W        W77380   9.954  27.092  25.240
76516W        W77381   8.297  27.373  23.949
76517W        W77382   9.771  25.659  23.069
76518W        W77383   8.902  29.090  23.572
76519W        W77384  10.116  28.552  24.509
76520W        W77385   9.700  28.701  23.620
76521W        W77386   9.719  27.681  23.214
76522W        W77387   9.181  25.906  22.285
76523W        W77388  10.862  25.534  23.007
76524W        W77389   8.550  27.169  22.170
76525W        W77390  10.716  26.506  23.160
76526W        W77391   9.408  27.676  22.037
76527W        W77392  10.344  27.876  24.785
76528W        W77393   9.998  28.577  22.252
76529W        W77394   8.613  26.252  25.158
76530W        W77395   8.433  26.836  24.399
76531W        W77396  10.525  28.331  24.676
76532W        W77397   9.625  26.281  25.053
76533W        W77398   7.469  26.752  24.830
76534W        W77399   9.229  27.229  24.556
76535W        W77400   7.586  27.987  23.213
76536W        W77401   7.733  27.284  24.103
76537W        W77402  10.050  27.570  24.453
76538W        W77403   9.822  28.950  25.264
76539W        W77404   9.718  26.689  24.817
76540W        W77405   9.995  28.743  23.222
76541W        W77406   8.997  28.463  24.545
76542W        W77407   8.482  28.818  23.814
76543W        W77408  10.287  27.989  24.233
76544W        W77409   9.337  28.061  25.370
76545W        W77410   7.942  28.014  23.709
76546W        W77411  10.288  27.773  23.354
76547W        W77412   9.929  28.839  24.105
76548W        W77413   7.907  28.568  23.975
76549W        W77414   8.928  26.620  25.185
76550W        W77415   9.379  28.786  22.696
76551W        W77416   8.687  28.041  25.334
76552W        W77417   8.813  28.279  22.711
76553W        W77418   8.034  27.019  21.970
76554W        W77419   7.373  29.105  28.869
76555W        W77420   7.749  27.998  28.392
76556W        W77421  10.454  27.728  26.162
76557W        W77422  10.584  28.813  28.189
76558W        W77423   8.502  28.804  25.715
76559W        W77424   8.585  26.956  26.698
76560W        W77425   8.100  26.804  26.862
76561W        W77426   9.091  27.619  26.296
76562W        W77427   8.766  28.711  28.651
76563W        W77428   7.415  26.272  28.614
76564W        W77429   8.177  25.552  28.416
76565W        W77430   9.871  25.940  27.303
76566W        W77431   9.520  26.811  25.873
76567W        W77432  10.090  26.245  28.964
76568W        W77433   7.456  26.037  28.089
76569W        W77434   7.555  28.656  29.110
76570W        W77435   9.077  28.046  25.842
76571W        W77436   7.509  26.829  27.535
76572W        W77437   8.402  26.720  28.772
76573W        W77438  10.861  26.579  27.271
76574W        W77439  10.625  27.622  28.130
76575W        W77440   8.933  26.955  27.157
76576W        W77441   9.479  28.294  27.526
76577W        W77442   7.979  27.728  27.758
76578W        W77443   7.338  27.256  27.329
76579W        W77444   8.374  27.228  28.521
76580W        W77445  10.645  27.011  28.775
76581W        W77446   8.261  28.455  27.220
76582W        W77447   9.382  28.144  28.354
76583W        W77448   8.602  26.784  27.579
76584W        W77449   8.894  27.568  27.222
76585W        W77450   9.891  28.341  29.070
76586W        W77451   8.970  27.661  29.080
76587W        W77452   8.951  27.377  28.558
76588W        W77453   7.360  26.768  29.080
76589W        W77454  10.192  28.303  28.679
76590W        W77455   7.773  25.885  26.677
76591W        W77456   8.300  28.143  27.676
76592W        W77457  10.763  27.926  26.966
76593W        W77458  10.176  26.326  27.533
76594W        W77459  10.461  26.279  25.628
76595W        W77460  10.926  27.080  27.934
76596W        W77461   8.893  28.787  27.687
76597W        W77462  10.667  28.253  26.125
76598W        W77463   7.796  29.039  25.879
76599W        W77464   8.189  29.085  26.555
76600W        W77465   7.986  25.839  27.981
76601W        W77466  10.609  26.857  28.256
76602W        W77467  10.014  27.279  26.715
76603W        W77468   9.980  26.967  25.742
76604W        W77469   9.188  28.111  27.882
76605W        W77470   8.994  26.441  27.081
76606W        W77471   9.594  28.528  28.075
76607W        W77472  10.465  27.319  26.497
76608W        W77473   9.367  25.977  26.513
76609W        W77474   8.024  28.671  26.196
76610W        W77475   7.395  26.170  26.795
76611W        W77476  10.181  26.777  27.269
76612W        W77477   7.639  28.394  27.184
76613W        W77478   8.980  28.744  26.054
76614W        W77479  10.372  26.770  25.518
76615W        W77480   7.395  28.528  27.682
76616W        W77481   8.186  28.100  28.162
76617W        W77482   8.559  27.460  26.781
76618W        W77483   8.581  25.865  27.874
76619W        W77484  10.810  25.627  27.171
76620W        W77485   8.029  27.499  25.639
76621W        W77486   7.684  26.532  25.818
76622W        W77487   7.746  28.488  26.612
76623W        W77488   8.877  27.971  26.860
76624W        W77489  10.209  28.830  28.574
76625W        W77490   9.135  26.472  26.258
76626W        W77491  10.518  28.870  27.030
76627W        W77492  10.195  26.723  28.628
76628W        W77493  10.908  28.379  26.762
76629W        W77494   9.535  27.671  28.246
76630W        W77495   7.301  27.222  26.452
76631W        W77496   8.412  27.637  28.025
76632W        W77497   9.616  26.901  26.403
76633W        W77498   9.493  27.391  26.507
76634W        W77499   7.836  26.811  27.981
76635W        W77500   7.821  26.687  28.903
76636W        W77501   7.711  25.604  27.062
76637W        W77502   9.479  25.951  27.623
76638W        W77503   9.127  26.136  28.786
76639W        W77504   9.482  26.285  25.964
76640W        W77505  10.665  28.678  28.718
76641W        W77506   9.632  25.759  28.757
76642W        W77507  10.651  28.060  28.879
76643W        W77508  10.081  26.227  28.475
76644W        W77509   9.881  26.165  26.745
76645W        W77510  10.274  27.299  29.149
76646W        W77511   8.014  28.875  27.135
76647W        W77512   8.672  26.592  26.121
76648W        W77513   8.241  25.876  28.785
76649W        W77514  10.293  26.360  26.466
76650W        W77515  10.660  26.842  26.411
76651W        W77516   8.403  29.059  28.882
76652W        W77517   8.329  25.595  26.117
76653W        W77518  10.650  26.129  27.152
76654W        W77519  10.800  28.378  25.597
76655W        W77520   7.707  27.581  27.299
76656W        W77521   9.624  26.168  25.529
76657W        W77522  10.758  28.500  27.249
76658W        W77523  10.797  25.694  27.999
76659W        W77524   9.242  26.906  28.553
76660W        W77525   9.335  28.245  26.256
76661W        W77526   9.735  27.539  28.996
76662W        W77527   9.409  25.516  27.305
76663W        W77528   8.021  26.419  27.368
76664W        W77529   7.575  27.619  28.142
76665W        W77530   9.434  28.812  26.848
76666W        W77531  10.628  26.409  27.720
76667W        W77532   9.265  28.756  28.487
76668W        W77533  10.608  27.815  25.692
76669W        W77534   9.043  27.298  26.753
76670W        W77535  10.895  25.809  28.494
76671W        W77536   9.044  27.644  28.088
76672W        W77537   9.261  26.530  27.533
76673W        W77538  10.113  26.828  26.371
76674W        W77539  10.400  26.561  26.013
76675W        W77540  10.209  28.601  26.402
76676W        W77541  10.043  28.204  27.198
76677W        W77542   9.939  27.283  26.176
76678W        W77543   9.372  27.493  27.162
76679W        W77544  10.253  27.281  27.229
76680W        W77545   7.628  26.296  27.653
76681W        W77546  10.406  27.348  28.480
76682W        W77547  10.757  28.966  27.626
76683W        W77548   8.687  28.410  27.028
76684W        W77549   9.694  28.943  28.352
76685W        W77550   9.688  26.273  28.116
76686W        W77551   8.895  28.981  28.177
76687W        W77552  10.592  25.935  26.643
76688W        W77553  10.383  27.254  27.944
76689W        W77554   7.366  26.575  27.982
76690W        W77555  10.226  26.370  27.000
76691W        W77556  10.637  26.521  28.777
76692W        W77557   9.522  28.220  26.995
76693W        W77558   8.778  28.811  26.608
76694W        W77559   7.893  25.991  25.866
76695W        W77560   8.997  25.645  27.676
76696W        W77561   8.025  28.765  25.524
76697W        W77562   8.399  27.231  26.275
76698W        W77563   9.053  27.860  28.588
76699W        W77564   8.883  26.218  26.578
76700W        W77565  10.239  25.815  27.006
76701W        W77566   9.959  29.097  27.334
76702W        W77567   9.371  28.745  27.674
76703W        W77568   8.767  27.782  27.635
76704W        W77569  10.537  28.505  27.761
76705W        W77570   8.231  26.008  26.530
76706W        W77571   8.753  28.305  27.490
76707W        W77572   8.236  26.236  25.555
76708W        W77573   9.037  26.845  27.949
76709W        W77574   9.885  25.711  27.819
76710W        W77575   7.305  27.554  27.704
76711W        W77576   9.009  27.372  25.862
76712W        W77577   8.277  25.687  25.632
76713W        W77578   9.015  26.768  26.683
76714W        W77579   9.985  25.744  28.382
76715W        W77580   8.573  27.756  28.491
76716W        W77581   9.377  27.538  28.708
76717W        W77582   9.994  27.568  28.601
76718W        W77583   9.278  25.708  29.106
76719W        W77584   8.500  26.324  27.499
76720W        W77585   7.926  26.280  26.897
76721W        W77586   7.712  28.992  26.573
76722W        W77587   9.044  28.322  28.698
76723W        W77588   8.079  27.807  26.057
76724W        W77589   9.759  27.192  27.278
76725W        W77590  10.039  26.991  27.677
76726W        W77591   9.244  27.665  27.611
76727W        W77592   9.714  28.039  25.743
76728W        W77593   9.386  26.060  27.071
76729W        W77594  10.865  26.338  26.339
76730W        W77595   7.359  28.927  28.370
76731W        W77596   7.776  28.153  27.902
76732W        W77597   7.343  28.999  26.134
76733W        W77598   9.242  26.269  27.940
76734W        W77599   8.605  28.292  25.789
76735W        W77600  10.510  28.674  25.975
76736W        W77601   9.485  27.327  25.989
76737W        W77602   8.328  26.518  26.506
76738W        W77603   9.160  26.428  25.558
76739W        W77604   9.744  27.993  28.736
76740W        W77605  10.097  25.899  26.353
76741W        W77606   7.427  25.747  25.801
76742W        W77607   8.713  28.066  28.091
76743W        W77608   8.512  27.982  27.183
76744W        W77609   8.254  27.934  25.581
76745W        W77610   7.495  28.175  26.349
76746W        W77611   7.999  27.245  28.791
76747W        W77612   8.703  25.805  28.977
76748W        W77613   9.412  25.947  28.333
76749W        W77614   8.607  25.715  26.614
76750W        W77615   9.666  25.792  26.119
76751W        W77616   7.611  25.724  27.696
76752W        W77617   7.659  26.687  27.066
76753W        W77618  10.348  25.795  27.472
76754W        W77619   7.770  26.293  26.286
76755W        W77620  10.341  25.981  27.902
76756W        W77621  10.737  27.184  25.587
76757W        W77622   8.029  25.942  27.406
76758W        W77623   9.143  26.514  28.346
76759W        W77624   7.291  26.204  25.824
76760W        W77625   8.077  27.593  28.385
76761W        W77626   9.435  26.991  27.564
76762W        W77627   9.302  29.070  25.860
76763W        W77628   7.448  27.577  25.557
76764W        W77629   8.183  27.988  28.683
76765W        W77630   7.704  27.155  28.314
76766W        W77631   8.695  27.260  28.108
76767W        W77632  10.463  25.619  28.370
76768W        W77633  10.861  27.229  28.361
76769W        W77634  10.849  27.429  26.047
76770W        W77635   9.712  27.761  26.146
76771W        W77636  10.186  29.061  25.841
76772W        W77637   9.363  27.051  28.983
76773W        W77638   7.693  28.018  29.023
76774W        W77639  10.899  25.940  28.975
76775W        W77640  10.617  26.868  27.596
76776W        W77641   8.925  28.998  29.073
76777W        W77642   8.780  25.627  25.800
76778W        W77643  10.319  28.226  25.743
76779W        W77644   8.088  26.319  28.629
76780W        W77645   8.522  28.313  28.491
76781W        W77646  10.648  26.304  28.289
76782W        W77647   9.859  28.963  26.257
76783W        W77648  10.098  27.582  27.624
76784W        W77649   8.348  25.998  28.291
76785W        W77650   8.817  27.067  29.048
76786W        W77651   8.320  28.246  26.242
76787W        W77652  10.075  27.744  26.506
76788W        W77653   7.843  26.370  28.230
76789W        W77654   9.172  28.432  26.694
76790W        W77655  10.922  26.992  26.875
76791W        W77656   9.144  25.625  28.594
76792W        W77657   9.924  28.330  27.673
76793W        W77658  10.227  28.674  27.381
76794W        W77659   9.446  28.476  25.809
76795W        W77660   7.456  28.368  28.651
76796W        W77661   8.199  26.360  27.889
76797W        W77662   8.169  25.708  26.999
76798W        W77663   9.790  26.550  27.691
76799W        W77664   8.588  27.721  25.891
76800W        W77665  10.586  27.663  27.390
76801W        W77666   7.913  28.421  28.813
76802W        W77667  10.300  29.103  26.610
76803W        W77668   8.399  26.123  27.055
76804W        W77669   8.168  27.616  27.145
76805W        W77670   8.481  29.027  27.895
76806W        W77671  10.548  29.123  28.927
76807W        W77672   9.707  27.311  27.860
76808W        W77673   7.556  27.109  25.775
76809W        W77674  10.690  28.767  26.472
76810W        W77675  10.527  26.091  26.091
76811W        W77676   8.666  25.610  28.494
76812W        W77677  10.372  28.412  26.952
76813W        W77678  10.401  26.968  26.857
76814W        W77679   8.518  26.641  27.073
76815W        W77680   8.763  26.903  28.397
76816W        W77681   9.874  28.056  28.260
76817W        W77682   8.524  26.510  28.372
76818W        W77683   8.503  28.976  26.988
76819W        W77684   7.820  28.935  28.622
76820W        W77685   7.932  28.296  25.752
76821W        W77686  10.449  28.054  26.562
76822W        W77687   8.053  26.846  28.448
76823W        W77688  10.826  26.776  25.929
76824W        W77689   8.571  27.833  26.400
76825W        W77690   9.670  27.215  28.481
76826W        W77691   9.561  26.843  28.025
76827W        W77692   8.121  27.215  28.054
76828W        W77693  10.331  29.103  27.883
76829W        W77694  10.122  25.737  28.877
76830W        W77695   7.786  25.887  28.464
76831W        W77696   8.125  26.910  27.517
76832W        W77697   8.494  26.724  25.639
76833W        W77698   7.297  28.483  28.184
76834W        W77699   8.882  27.192  27.627
76835W        W77700   8.705  26.217  25.732
76836W        W77701   7.840  27.033  26.513
76837W        W77702   7.611  28.885  27.950
76838W        W77703  10.406  27.111  26.058
76839W        W77704  10.501  26.027  28.744
76840W        W77705   9.937  28.236  26.707
76841W        W77706   7.535  27.160  28.884
76842W        W77707  10.501  25.624  26.180
76843W        W77708  10.021  28.099  26.191
76844W        W77709   8.923  27.157  26.276
76845W        W77710  10.110  25.961  25.799
76846W        W77711  10.175  26.568  27.985
76847W        W77712   7.884  27.161  27.192
76848W        W77713   8.178  28.100  26.841
76849W        W77714   9.941  26.720  26.806
76850W        W77715   8.964  26.099  27.502
76851W        W77716  10.926  28.010  28.013
76852W        W77717  10.844  25.997  27.574
76853W        W77718   7.383  28.827  26.950
76854W        W77719   7.892  28.014  26.486
76855W        W77720   7.807  25.631  29.039
76856W        W77721   8.926  28.484  29.141
76857W        W77722  10.681  27.452  26.931
76858W        W77723  10.035  27.629  25.811
76859W        W77724   9.330  29.150  28.023
76860W        W77725  10.187  27.872  29.060
76861W        W77726   9.002  25.582  26.340
76862W        W77727   9.715  26.451  27.199
76863W        W77728   7.401  28.038  27.531
76864W        W77729   8.654  26.000  26.172
76865W        W77730   8.458  27.484  29.021
76866W        W77731   9.452  26.465  26.735
76867W        W77732   9.657  27.875  27.857
76868W        W77733   7.811  28.480  28.292
76869W        W77734   8.402  28.463  29.015
76870W        W77735   8.253  26.260  26.029
76871W        W77736   9.770  26.402  26.354
76872W        W77737   9.728  28.510  28.591
76873W        W77738   8.413  27.102  27.190
76874W        W77739   8.068  28.800  28.055
76875W        W77740  10.813  28.917  25.656
76876W        W77741   7.676  27.589  28.652
76877W        W77742   9.671  27.851  27.340
76878W        W77743   8.107  27.500  26.582
76879W        W77744   8.478  28.507  27.977
76880W        W77745   8.856  25.926  27.018
76881W        W77746   7.467  27.910  25.948
76882W        W77747   8.986  26.861  25.818
76883W        W77748   7.632  27.410  26.837
76884W        W77749   8.922  26.052  28.301
76885W        W77750  10.594  25.761  25.728
76886W        W77751  10.687  27.507  28.827
76887W        W77752   9.341  28.764  28.979
76888W        W77753  10.899  27.858  28.501
76889W        W77754  10.307  28.656  29.112
76890W        W77755   8.046  29.112  27.590
76891W        W77756  10.905  27.734  26.464
76892W        W77757   9.435  27.001  26.977
76893W        W77758   9.202  25.613  26.867
76894W        W77759   8.261  28.597  26.704
76895W        W77760   8.760  26.338  27.929
76896W        W77761   8.460  25.707  27.398
76897W        W77762   7.523  28.529  25.946
76898W        W77763   9.339  27.893  26.664
76899W        W77764   8.214  28.688  28.543
76900W        W77765   7.691  27.511  26.239
76901W        W77766   7.576  26.054  27.238
76902W        W77767   9.124  28.019  27.295
76903W        W77768   7.376  25.873  26.315
76904W        W77769  10.040  27.079  28.242
76905W        W77770   9.917  26.465  25.814
76906W        W77771  10.434  28.137  27.462
76907W        W77772   9.095  28.621  27.293
76908W        W77773   8.507  28.725  26.204
76909W        W77774   9.789  25.628  25.634
76910W        W77775   7.589  28.888  27.375
76911W        W77776   9.786  26.646  29.010
76912W        W77777   7.769  26.176  29.009
76913W        W77778   7.500  26.776  26.342
76914W        W77779   8.191  26.765  26.067
76915W        W77780   9.954  27.092  28.884
76916W        W77781   8.297  27.373  27.593
76917W        W77782   9.771  25.659  26.713
76918W        W77783   8.902  29.090  27.216
76919W        W77784  10.116  28.552  28.153
76920W        W77785   9.700  28.701  27.264
76921W        W77786   9.719  27.681  26.858
76922W        W77787   9.181  25.906  25.929
76923W        W77788  10.862  25.534  26.651
76924W        W77789   8.550  27.169  25.814
76925W        W77790  10.716  26.506  26.804
76926W        W77791   9.408  27.676  25.681
76927W        W77792  10.344  27.876  28.429
76928W        W77793   9.998  28.577  25.896
76929W        W77794   8.613  26.252  28.802
76930W        W77795   8.433  26.836  28.043
76931W        W77796  10.525  28.331  28.320
76932W        W77797   9.625  26.281  28.697
76933W        W77798   7.469  26.752  28.474
76934W        W77799   9.229  27.229  28.200
76935W        W77800   7.586  27.987  26.857
76936W        W77801   7.733  27.284  27.747
76937W        W77802  10.050  27.570  28.097
76938W        W77803   9.822  28.950  28.908
76939W        W77804   9.718  26.689  28.461
76940W        W77805   9.995  28.743  26.866
76941W        W77806   8.997  28.463  28.189
76942W        W77807   8.482  28.818  27.458
76943W        W77808  10.287  27.989  27.877
76944W        W77809   9.337  28.061  29.014
76945W        W77810   7.942  28.014  27.353
76946W        W77811  10.288  27.773  26.998
76947W        W77812   9.929  28.839  27.749
76948W        W77813   7.907  28.568  27.619
76949W        W77814   8.928  26.620  28.829
76950W        W77815   9.379  28.786  26.340
76951W        W77816   8.687  28.041  28.978
76952W        W77817   8.813  28.279  26.355
76953W        W77818   8.034  27.019  25.614
76954W        W77819  11.017   3.595   3.359
76955W        W77820  11.393   2.488   2.882
76956W        W77821  14.098   2.218   0.652
76957W        W77822  14.228   3.303   2.679
76958W        W77823  12.146   3.294   0.205
76959W        W77824  12.229   1.446   1.188
76960W        W77825  11.744   1.294   1.352
76961W        W77826  12.735   2.109   0.786
76962W        W77827  12.410   3.201   3.141
76963W        W77828  11.059   0.762   3.104
76964W        W77829  11.821   0.042   2.906
76965W        W77830  13.515   0.430   1.793
76966W        W77831  13.164   1.301   0.363
76967W        W77832  13.734   0.735   3.454
76968W        W77833  11.100   0.527   2.579
76969W        W77834  11.199   3.146   3.600
76970W        W77835  12.721   2.536   0.332
76971W        W77836  11.153   1.319   2.025
76972W        W77837  12.046   1.210   3.262
76973W        W77838  14.505   1.069   1.761
76974W        W77839  14.269   2.112   2.620
76975W        W77840  12.577   1.445   1.647
76976W        W77841  13.123   2.784   2.016
76977W        W77842  11.623   2.218   2.248
76978W        W77843  10.982   1.746   1.819
76979W        W77844  12.018   1.718   3.011
76980W        W77845  14.289   1.501   3.265
76981W        W77846  11.905   2.945   1.710
76982W        W77847  13.026   2.634   2.844
76983W        W77848  12.246   1.274   2.069
76984W        W77849  12.538   2.058   1.712
76985W        W77850  13.535   2.831   3.560
76986W        W77851  12.614   2.151   3.570
76987W        W77852  12.595   1.867   3.048
76988W        W77853  11.004   1.258   3.570
76989W        W77854  13.836   2.793   3.169
76990W        W77855  11.417   0.375   1.167
76991W        W77856  11.944   2.633   2.166
76992W        W77857  14.407   2.416   1.456
76993W        W77858  13.820   0.816   2.023
76994W        W77859  14.105   0.769   0.118
76995W        W77860  14.570   1.570   2.424
76996W        W77861  12.537   3.277   2.177
76997W        W77862  14.311   2.743   0.615
76998W        W77863  11.440   3.529   0.369
76999W        W77864  11.833   3.575   1.045
77000W        W77865  11.630   0.329   2.471
77001W        W77866  14.253   1.347   2.746
77002W        W77867  13.658   1.769   1.205
77003W        W77868  13.624   1.457   0.232
77004W        W77869  12.832   2.601   2.372
77005W        W77870  12.638   0.931   1.571
77006W        W77871  13.238   3.018   2.565
77007W        W77872  14.109   1.809   0.987
77008W        W77873  13.011   0.467   1.003
77009W        W77874  11.668   3.161   0.686
77010W        W77875  11.039   0.660   1.285
77011W        W77876  13.825   1.267   1.759
77012W        W77877  11.283   2.884   1.674
77013W        W77878  12.624   3.234   0.544
77014W        W77879  14.016   1.260   0.008
77015W        W77880  11.039   3.018   2.172
77016W        W77881  11.830   2.590   2.652
77017W        W77882  12.203   1.950   1.271
77018W        W77883  12.225   0.355   2.364
77019W        W77884  14.454   0.117   1.661
77020W        W77885  11.673   1.989   0.129
77021W        W77886  11.328   1.022   0.308
77022W        W77887  11.390   2.978   1.102
77023W        W77888  12.521   2.461   1.350
77024W        W77889  13.853   3.320   3.064
77025W        W77890  12.779   0.962   0.748
77026W        W77891  14.162   3.360   1.520
77027W        W77892  13.839   1.213   3.118
77028W        W77893  14.552   2.869   1.252
77029W        W77894  13.179   2.161   2.736
77030W        W77895  10.945   1.712   0.942
77031W        W77896  12.056   2.127   2.515
77032W        W77897  13.260   1.391   0.893
77033W        W77898  13.137   1.881   0.997
77034W        W77899  11.480   1.301   2.471
77035W        W77900  11.465   1.177   3.393
77036W        W77901  11.355   0.094   1.552
77037W        W77902  13.123   0.441   2.113
77038W        W77903  12.771   0.626   3.276
77039W        W77904  13.126   0.775   0.454
77040W        W77905  14.309   3.168   3.208
77041W        W77906  13.276   0.249   3.247
77042W        W77907  14.295   2.550   3.369
77043W        W77908  13.725   0.717   2.965
77044W        W77909  13.525   0.655   1.235
77045W        W77910  13.918   1.789   3.639
77046W        W77911  11.658   3.365   1.625
77047W        W77912  12.316   1.082   0.611
77048W        W77913  11.885   0.366   3.275
77049W        W77914  13.937   0.850   0.956
77050W        W77915  14.304   1.332   0.901
77051W        W77916  12.047   3.549   3.372
77052W        W77917  11.973   0.085   0.607
77053W        W77918  14.294   0.619   1.642
77054W        W77919  14.444   2.868   0.087
77055W        W77920  11.351   2.071   1.789
77056W        W77921  13.268   0.658   0.019
77057W        W77922  14.402   2.990   1.739
77058W        W77923  14.441   0.184   2.489
77059W        W77924  12.886   1.396   3.043
77060W        W77925  12.979   2.735   0.746
77061W        W77926  13.379   2.029   3.486
77062W        W77927  13.053   0.006   1.795
77063W        W77928  11.665   0.909   1.858
77064W        W77929  11.219   2.109   2.632
77065W        W77930  13.078   3.302   1.338
77066W        W77931  14.272   0.899   2.210
77067W        W77932  12.909   3.246   2.977
77068W        W77933  14.252   2.305   0.182
77069W        W77934  12.687   1.788   1.243
77070W        W77935  14.539   0.299   2.984
77071W        W77936  12.688   2.134   2.578
77072W        W77937  12.905   1.020   2.023
77073W        W77938  13.757   1.318   0.861
77074W        W77939  14.044   1.051   0.503
77075W        W77940  13.853   3.091   0.892
77076W        W77941  13.687   2.694   1.688
77077W        W77942  13.583   1.773   0.666
77078W        W77943  13.016   1.983   1.652
77079W        W77944  13.897   1.771   1.719
77080W        W77945  11.272   0.786   2.143
77081W        W77946  14.050   1.838   2.970
77082W        W77947  14.401   3.456   2.116
77083W        W77948  12.331   2.900   1.518
77084W        W77949  13.338   3.433   2.842
77085W        W77950  13.332   0.763   2.606
77086W        W77951  12.539   3.471   2.667
77087W        W77952  14.236   0.425   1.133
77088W        W77953  14.027   1.744   2.434
77089W        W77954  11.010   1.065   2.472
77090W        W77955  13.870   0.860   1.490
77091W        W77956  14.281   1.011   3.267
77092W        W77957  13.166   2.710   1.485
77093W        W77958  12.422   3.301   1.098
77094W        W77959  11.537   0.481   0.356
77095W        W77960  12.641   0.135   2.166
77096W        W77961  11.669   3.255   0.014
77097W        W77962  12.043   1.721   0.765
77098W        W77963  12.697   2.350   3.078
77099W        W77964  12.527   0.708   1.068
77100W        W77965  13.883   0.305   1.496
77101W        W77966  13.603   3.587   1.824
77102W        W77967  13.015   3.235   2.164
77103W        W77968  12.411   2.272   2.125
77104W        W77969  14.181   2.995   2.251
77105W        W77970  11.875   0.498   1.020
77106W        W77971  12.397   2.795   1.980
77107W        W77972  11.880   0.726   0.045
77108W        W77973  12.681   1.335   2.439
77109W        W77974  13.529   0.201   2.309
77110W        W77975  10.949   2.044   2.194
77111W        W77976  12.653   1.862   0.352
77112W        W77977  11.921   0.177   0.122
77113W        W77978  12.659   1.258   1.173
77114W        W77979  13.629   0.234   2.872
77115W        W77980  12.217   2.246   2.981
77116W        W77981  13.021   2.028   3.198
77117W        W77982  13.638   2.058   3.091
77118W        W77983  12.922   0.198   3.596
77119W        W77984  12.144   0.814   1.989
77120W        W77985  11.570   0.770   1.387
77121W        W77986  11.356   3.482   1.063
77122W        W77987  12.688   2.812   3.188
77123W        W77988  11.723   2.297   0.547
77124W        W77989  13.403   1.682   1.768
77125W        W77990  13.683   1.481   2.167
77126W        W77991  12.888   2.155   2.101
77127W        W77992  13.358   2.529   0.233
77128W        W77993  13.030   0.550   1.561
77129W        W77994  14.509   0.828   0.829
77130W        W77995  11.003   3.417   2.860
77131W        W77996  11.420   2.643   2.392
77132W        W77997  10.987   3.489   0.624
77133W        W77998  12.886   0.759   2.430
77134W        W77999  12.249   2.782   0.279
77135W        W78000  14.154   3.164   0.465
77136W        W78001  13.129   1.817   0.479
77137W        W78002  11.972   1.008   0.996
77138W        W78003  12.804   0.918   0.048
77139W        W78004  13.388   2.483   3.226
77140W        W78005  13.741   0.389   0.843
77141W        W78006  11.071   0.237   0.291
77142W        W78007  12.357   2.556   2.581
77143W        W78008  12.156   2.472   1.673
77144W        W78009  11.898   2.424   0.071
77145W        W78010  11.139   2.665   0.839
77146W        W78011  11.643   1.735   3.281
77147W        W78012  12.347   0.295   3.467
77148W        W78013  13.056   0.437   2.823
77149W        W78014  12.251   0.205   1.104
77150W        W78015  13.310   0.282   0.609
77151W        W78016  11.255   0.214   2.186
77152W        W78017  11.303   1.177   1.556
77153W        W78018  13.992   0.285   1.962
77154W        W78019  11.414   0.783   0.776
77155W        W78020  13.985   0.471   2.392
77156W        W78021  14.381   1.674   0.077
77157W        W78022  11.673   0.432   1.896
77158W        W78023  12.787   1.004   2.836
77159W        W78024  10.935   0.694   0.314
77160W        W78025  11.721   2.083   2.875
77161W        W78026  13.079   1.481   2.054
77162W        W78027  12.946   3.560   0.350
77163W        W78028  11.092   2.067   0.047
77164W        W78029  11.827   2.478   3.173
77165W        W78030  11.348   1.645   2.804
77166W        W78031  12.339   1.750   2.598
77167W        W78032  14.107   0.109   2.860
77168W        W78033  14.505   1.719   2.851
77169W        W78034  14.493   1.919   0.537
77170W        W78035  13.356   2.251   0.636
77171W        W78036  13.830   3.551   0.331
77172W        W78037  13.007   1.541   3.473
77173W        W78038  11.337   2.508   3.513
77174W        W78039  14.543   0.430   3.465
77175W        W78040  14.261   1.358   2.086
77176W        W78041  12.569   3.488   3.563
77177W        W78042  12.424   0.117   0.290
77178W        W78043  13.963   2.716   0.233
77179W        W78044  11.732   0.809   3.119
77180W        W78045  12.166   2.803   2.981
77181W        W78046  14.292   0.794   2.779
77182W        W78047  13.503   3.453   0.747
77183W        W78048  13.742   2.072   2.114
77184W        W78049  11.992   0.488   2.781
77185W        W78050  12.461   1.557   3.538
77186W        W78051  11.964   2.736   0.732
77187W        W78052  13.719   2.234   0.996
77188W        W78053  11.487   0.860   2.720
77189W        W78054  12.816   2.922   1.184
77190W        W78055  14.566   1.482   1.365
77191W        W78056  12.788   0.115   3.084
77192W        W78057  13.568   2.820   2.163
77193W        W78058  13.871   3.164   1.871
77194W        W78059  13.090   2.966   0.299
77195W        W78060  11.100   2.858   3.141
77196W        W78061  11.843   0.850   2.379
77197W        W78062  11.813   0.198   1.489
77198W        W78063  13.434   1.040   2.181
77199W        W78064  12.232   2.211   0.381
77200W        W78065  14.230   2.153   1.880
77201W        W78066  11.557   2.911   3.303
77202W        W78067  13.944   3.593   1.100
77203W        W78068  12.043   0.613   1.545
77204W        W78069  11.812   2.106   1.635
77205W        W78070  12.125   3.517   2.385
77206W        W78071  14.192   3.613   3.417
77207W        W78072  13.351   1.801   2.350
77208W        W78073  11.200   1.599   0.265
77209W        W78074  14.334   3.257   0.962
77210W        W78075  14.171   0.581   0.581
77211W        W78076  12.310   0.100   2.984
77212W        W78077  14.016   2.902   1.442
77213W        W78078  14.045   1.458   1.347
77214W        W78079  12.162   1.131   1.563
77215W        W78080  12.407   1.393   2.887
77216W        W78081  13.518   2.546   2.750
77217W        W78082  12.168   1.000   2.862
77218W        W78083  12.147   3.466   1.478
77219W        W78084  11.464   3.425   3.112
77220W        W78085  11.576   2.786   0.242
77221W        W78086  14.093   2.544   1.052
77222W        W78087  11.697   1.336   2.938
77223W        W78088  14.470   1.266   0.419
77224W        W78089  12.215   2.323   0.890
77225W        W78090  13.314   1.705   2.971
77226W        W78091  13.205   1.333   2.515
77227W        W78092  11.765   1.705   2.544
77228W        W78093  13.975   3.593   2.373
77229W        W78094  13.766   0.227   3.367
77230W        W78095  11.430   0.377   2.954
77231W        W78096  11.769   1.400   2.007
77232W        W78097  12.138   1.214   0.129
77233W        W78098  10.941   2.973   2.674
77234W        W78099  12.526   1.682   2.117
77235W        W78100  12.349   0.707   0.222
77236W        W78101  11.484   1.523   1.003
77237W        W78102  11.255   3.375   2.440
77238W        W78103  14.050   1.601   0.548
77239W        W78104  14.145   0.517   3.234
77240W        W78105  13.581   2.726   1.197
77241W        W78106  11.179   1.650   3.374
77242W        W78107  14.145   0.114   0.670
77243W        W78108  13.665   2.589   0.681
77244W        W78109  12.567   1.647   0.766
77245W        W78110  13.754   0.451   0.289
77246W        W78111  13.819   1.058   2.475
77247W        W78112  11.528   1.651   1.682
77248W        W78113  11.822   2.590   1.331
77249W        W78114  13.585   1.210   1.296
77250W        W78115  12.608   0.589   1.992
77251W        W78116  14.570   2.500   2.503
77252W        W78117  14.488   0.487   2.064
77253W        W78118  11.027   3.317   1.440
77254W        W78119  11.536   2.504   0.976
77255W        W78120  11.451   0.121   3.529
77256W        W78121  12.570   2.974   3.631
77257W        W78122  14.325   1.942   1.421
77258W        W78123  13.679   2.119   0.301
77259W        W78124  12.974   3.640   2.513
77260W        W78125  13.831   2.362   3.550
77261W        W78126  12.646   0.072   0.830
77262W        W78127  13.359   0.941   1.689
77263W        W78128  11.045   2.528   2.021
77264W        W78129  12.298   0.490   0.662
77265W        W78130  12.102   1.974   3.511
77266W        W78131  13.096   0.955   1.225
77267W        W78132  13.301   2.365   2.347
77268W        W78133  11.455   2.970   2.782
77269W        W78134  12.046   2.953   3.505
77270W        W78135  11.897   0.750   0.519
77271W        W78136  13.414   0.892   0.844
77272W        W78137  13.372   3.000   3.081
77273W        W78138  12.057   1.592   1.680
77274W        W78139  11.712   3.290   2.545
77275W        W78140  14.457   3.407   0.146
77276W        W78141  11.320   2.079   3.142
77277W        W78142  13.315   2.341   1.830
77278W        W78143  11.751   1.990   1.072
77279W        W78144  12.122   2.997   2.467
77280W        W78145  12.500   0.416   1.508
77281W        W78146  11.111   2.400   0.438
77282W        W78147  12.630   1.351   0.308
77283W        W78148  11.276   1.900   1.327
77284W        W78149  12.566   0.542   2.791
77285W        W78150  14.238   0.251   0.218
77286W        W78151  14.331   1.997   3.317
77287W        W78152  12.985   3.254   3.469
77288W        W78153  14.543   2.348   2.991
77289W        W78154  13.951   3.146   3.602
77290W        W78155  11.690   3.602   2.080
77291W        W78156  14.549   2.224   0.954
77292W        W78157  13.079   1.491   1.467
77293W        W78158  12.846   0.103   1.357
77294W        W78159  11.905   3.087   1.194
77295W        W78160  12.404   0.828   2.419
77296W        W78161  12.104   0.197   1.888
77297W        W78162  11.167   3.019   0.436
77298W        W78163  12.983   2.383   1.154
77299W        W78164  11.858   3.178   3.033
77300W        W78165  11.335   2.001   0.729
77301W        W78166  11.220   0.544   1.728
77302W        W78167  12.768   2.509   1.785
77303W        W78168  11.020   0.363   0.805
77304W        W78169  13.684   1.569   2.732
77305W        W78170  13.561   0.955   0.304
77306W        W78171  14.078   2.627   1.952
77307W        W78172  12.739   3.111   1.783
77308W        W78173  12.151   3.215   0.694
77309W        W78174  13.433   0.118   0.124
77310W        W78175  11.233   3.378   1.865
77311W        W78176  13.430   1.136   3.500
77312W        W78177  11.413   0.666   3.499
77313W        W78178  11.144   1.266   0.832
77314W        W78179  11.835   1.255   0.557
77315W        W78180  13.598   1.582   3.374
77316W        W78181  11.941   1.863   2.083
77317W        W78182  13.415   0.149   1.203
77318W        W78183  12.546   3.580   1.706
77319W        W78184  13.760   3.042   2.643
77320W        W78185  13.344   3.191   1.754
77321W        W78186  13.363   2.171   1.348
77322W        W78187  12.825   0.396   0.419
77323W        W78188  14.506   0.024   1.141
77324W        W78189  12.194   1.659   0.304
77325W        W78190  14.360   0.996   1.294
77326W        W78191  13.052   2.166   0.171
77327W        W78192  13.988   2.366   2.919
77328W        W78193  13.642   3.067   0.386
77329W        W78194  12.257   0.742   3.292
77330W        W78195  12.077   1.326   2.533
77331W        W78196  14.169   2.821   2.810
77332W        W78197  13.269   0.771   3.187
77333W        W78198  11.113   1.242   2.964
77334W        W78199  12.873   1.719   2.690
77335W        W78200  11.230   2.477   1.347
77336W        W78201  11.377   1.774   2.237
77337W        W78202  13.694   2.060   2.587
77338W        W78203  13.466   3.440   3.398
77339W        W78204  13.362   1.179   2.951
77340W        W78205  13.639   3.233   1.356
77341W        W78206  12.641   2.953   2.679
77342W        W78207  12.126   3.308   1.948
77343W        W78208  13.931   2.479   2.367
77344W        W78209  12.981   2.551   3.504
77345W        W78210  11.586   2.504   1.843
77346W        W78211  13.932   2.263   1.488
77347W        W78212  13.573   3.329   2.239
77348W        W78213  11.551   3.058   2.109
77349W        W78214  12.572   1.110   3.319
77350W        W78215  13.023   3.276   0.830
77351W        W78216  12.331   2.531   3.468
77352W        W78217  12.457   2.769   0.845
77353W        W78218  11.678   1.509   0.104
77354W        W78219  11.017   3.595   7.003
77355W        W78220  11.393   2.488   6.526
77356W        W78221  14.098   2.218   4.296
77357W        W78222  14.228   3.303   6.323
77358W        W78223  12.146   3.294   3.849
77359W        W78224  12.229   1.446   4.832
77360W        W78225  11.744   1.294   4.996
77361W        W78226  12.735   2.109   4.430
77362W        W78227  12.410   3.201   6.785
77363W        W78228  11.059   0.762   6.748
77364W        W78229  11.821   0.042   6.550
77365W        W78230  13.515   0.430   5.437
77366W        W78231  13.164   1.301   4.007
77367W        W78232  13.734   0.735   7.098
77368W        W78233  11.100   0.527   6.223
77369W        W78234  11.199   3.146   7.244
77370W        W78235  12.721   2.536   3.976
77371W        W78236  11.153   1.319   5.669
77372W        W78237  12.046   1.210   6.906
77373W        W78238  14.505   1.069   5.405
77374W        W78239  14.269   2.112   6.264
77375W        W78240  12.577   1.445   5.291
77376W        W78241  13.123   2.784   5.660
77377W        W78242  11.623   2.218   5.892
77378W        W78243  10.982   1.746   5.463
77379W        W78244  12.018   1.718   6.655
77380W        W78245  14.289   1.501   6.909
77381W        W78246  11.905   2.945   5.354
77382W        W78247  13.026   2.634   6.488
77383W        W78248  12.246   1.274   5.713
77384W        W78249  12.538   2.058   5.356
77385W        W78250  13.535   2.831   7.204
77386W        W78251  12.614   2.151   7.214
77387W        W78252  12.595   1.867   6.692
77388W        W78253  11.004   1.258   7.214
77389W        W78254  13.836   2.793   6.813
77390W        W78255  11.417   0.375   4.811
77391W        W78256  11.944   2.633   5.810
77392W        W78257  14.407   2.416   5.100
77393W        W78258  13.820   0.816   5.667
77394W        W78259  14.105   0.769   3.762
77395W        W78260  14.570   1.570   6.068
77396W        W78261  12.537   3.277   5.821
77397W        W78262  14.311   2.743   4.259
77398W        W78263  11.440   3.529   4.013
77399W        W78264  11.833   3.575   4.689
77400W        W78265  11.630   0.329   6.115
77401W        W78266  14.253   1.347   6.390
77402W        W78267  13.658   1.769   4.849
77403W        W78268  13.624   1.457   3.876
77404W        W78269  12.832   2.601   6.016
77405W        W78270  12.638   0.931   5.215
77406W        W78271  13.238   3.018   6.209
77407W        W78272  14.109   1.809   4.631
77408W        W78273  13.011   0.467   4.647
77409W        W78274  11.668   3.161   4.330
77410W        W78275  11.039   0.660   4.929
77411W        W78276  13.825   1.267   5.403
77412W        W78277  11.283   2.884   5.318
77413W        W78278  12.624   3.234   4.188
77414W        W78279  14.016   1.260   3.652
77415W        W78280  11.039   3.018   5.816
77416W        W78281  11.830   2.590   6.296
77417W        W78282  12.203   1.950   4.915
77418W        W78283  12.225   0.355   6.008
77419W        W78284  14.454   0.117   5.305
77420W        W78285  11.673   1.989   3.773
77421W        W78286  11.328   1.022   3.952
77422W        W78287  11.390   2.978   4.746
77423W        W78288  12.521   2.461   4.994
77424W        W78289  13.853   3.320   6.708
77425W        W78290  12.779   0.962   4.392
77426W        W78291  14.162   3.360   5.164
77427W        W78292  13.839   1.213   6.762
77428W        W78293  14.552   2.869   4.896
77429W        W78294  13.179   2.161   6.380
77430W        W78295  10.945   1.712   4.586
77431W        W78296  12.056   2.127   6.159
77432W        W78297  13.260   1.391   4.537
77433W        W78298  13.137   1.881   4.641
77434W        W78299  11.480   1.301   6.115
77435W        W78300  11.465   1.177   7.037
77436W        W78301  11.355   0.094   5.196
77437W        W78302  13.123   0.441   5.757
77438W        W78303  12.771   0.626   6.920
77439W        W78304  13.126   0.775   4.098
77440W        W78305  14.309   3.168   6.852
77441W        W78306  13.276   0.249   6.891
77442W        W78307  14.295   2.550   7.013
77443W        W78308  13.725   0.717   6.609
77444W        W78309  13.525   0.655   4.879
77445W        W78310  13.918   1.789   7.283
77446W        W78311  11.658   3.365   5.269
77447W        W78312  12.316   1.082   4.255
77448W        W78313  11.885   0.366   6.919
77449W        W78314  13.937   0.850   4.600
77450W        W78315  14.304   1.332   4.545
77451W        W78316  12.047   3.549   7.016
77452W        W78317  11.973   0.085   4.251
77453W        W78318  14.294   0.619   5.286
77454W        W78319  14.444   2.868   3.731
77455W        W78320  11.351   2.071   5.433
77456W        W78321  13.268   0.658   3.663
77457W        W78322  14.402   2.990   5.383
77458W        W78323  14.441   0.184   6.133
77459W        W78324  12.886   1.396   6.687
77460W        W78325  12.979   2.735   4.390
77461W        W78326  13.379   2.029   7.130
77462W        W78327  13.053   0.006   5.439
77463W        W78328  11.665   0.909   5.502
77464W        W78329  11.219   2.109   6.276
77465W        W78330  13.078   3.302   4.982
77466W        W78331  14.272   0.899   5.854
77467W        W78332  12.909   3.246   6.621
77468W        W78333  14.252   2.305   3.826
77469W        W78334  12.687   1.788   4.887
77470W        W78335  14.539   0.299   6.628
77471W        W78336  12.688   2.134   6.222
77472W        W78337  12.905   1.020   5.667
77473W        W78338  13.757   1.318   4.505
77474W        W78339  14.044   1.051   4.147
77475W        W78340  13.853   3.091   4.536
77476W        W78341  13.687   2.694   5.332
77477W        W78342  13.583   1.773   4.310
77478W        W78343  13.016   1.983   5.296
77479W        W78344  13.897   1.771   5.363
77480W        W78345  11.272   0.786   5.787
77481W        W78346  14.050   1.838   6.614
77482W        W78347  14.401   3.456   5.760
77483W        W78348  12.331   2.900   5.162
77484W        W78349  13.338   3.433   6.486
77485W        W78350  13.332   0.763   6.250
77486W        W78351  12.539   3.471   6.311
77487W        W78352  14.236   0.425   4.777
77488W        W78353  14.027   1.744   6.078
77489W        W78354  11.010   1.065   6.116
77490W        W78355  13.870   0.860   5.134
77491W        W78356  14.281   1.011   6.911
77492W        W78357  13.166   2.710   5.129
77493W        W78358  12.422   3.301   4.742
77494W        W78359  11.537   0.481   4.000
77495W        W78360  12.641   0.135   5.810
77496W        W78361  11.669   3.255   3.658
77497W        W78362  12.043   1.721   4.409
77498W        W78363  12.697   2.350   6.722
77499W        W78364  12.527   0.708   4.712
77500W        W78365  13.883   0.305   5.140
77501W        W78366  13.603   3.587   5.468
77502W        W78367  13.015   3.235   5.808
77503W        W78368  12.411   2.272   5.769
77504W        W78369  14.181   2.995   5.895
77505W        W78370  11.875   0.498   4.664
77506W        W78371  12.397   2.795   5.624
77507W        W78372  11.880   0.726   3.689
77508W        W78373  12.681   1.335   6.083
77509W        W78374  13.529   0.201   5.953
77510W        W78375  10.949   2.044   5.838
77511W        W78376  12.653   1.862   3.996
77512W        W78377  11.921   0.177   3.766
77513W        W78378  12.659   1.258   4.817
77514W        W78379  13.629   0.234   6.516
77515W        W78380  12.217   2.246   6.625
77516W        W78381  13.021   2.028   6.842
77517W        W78382  13.638   2.058   6.735
77518W        W78383  12.922   0.198   7.240
77519W        W78384  12.144   0.814   5.633
77520W        W78385  11.570   0.770   5.031
77521W        W78386  11.356   3.482   4.707
77522W        W78387  12.688   2.812   6.832
77523W        W78388  11.723   2.297   4.191
77524W        W78389  13.403   1.682   5.412
77525W        W78390  13.683   1.481   5.811
77526W        W78391  12.888   2.155   5.745
77527W        W78392  13.358   2.529   3.877
77528W        W78393  13.030   0.550   5.205
77529W        W78394  14.509   0.828   4.473
77530W        W78395  11.003   3.417   6.504
77531W        W78396  11.420   2.643   6.036
77532W        W78397  10.987   3.489   4.268
77533W        W78398  12.886   0.759   6.074
77534W        W78399  12.249   2.782   3.923
77535W        W78400  14.154   3.164   4.109
77536W        W78401  13.129   1.817   4.123
77537W        W78402  11.972   1.008   4.640
77538W        W78403  12.804   0.918   3.692
77539W        W78404  13.388   2.483   6.870
77540W        W78405  13.741   0.389   4.487
77541W        W78406  11.071   0.237   3.935
77542W        W78407  12.357   2.556   6.225
77543W        W78408  12.156   2.472   5.317
77544W        W78409  11.898   2.424   3.715
77545W        W78410  11.139   2.665   4.483
77546W        W78411  11.643   1.735   6.925
77547W        W78412  12.347   0.295   7.111
77548W        W78413  13.056   0.437   6.467
77549W        W78414  12.251   0.205   4.748
77550W        W78415  13.310   0.282   4.253
77551W        W78416  11.255   0.214   5.830
77552W        W78417  11.303   1.177   5.200
77553W        W78418  13.992   0.285   5.606
77554W        W78419  11.414   0.783   4.420
77555W        W78420  13.985   0.471   6.036
77556W        W78421  14.381   1.674   3.721
77557W        W78422  11.673   0.432   5.540
77558W        W78423  12.787   1.004   6.480
77559W        W78424  10.935   0.694   3.958
77560W        W78425  11.721   2.083   6.519
77561W        W78426  13.079   1.481   5.698
77562W        W78427  12.946   3.560   3.994
77563W        W78428  11.092   2.067   3.691
77564W        W78429  11.827   2.478   6.817
77565W        W78430  11.348   1.645   6.448
77566W        W78431  12.339   1.750   6.242
77567W        W78432  14.107   0.109   6.504
77568W        W78433  14.505   1.719   6.495
77569W        W78434  14.493   1.919   4.181
77570W        W78435  13.356   2.251   4.280
77571W        W78436  13.830   3.551   3.975
77572W        W78437  13.007   1.541   7.117
77573W        W78438  11.337   2.508   7.157
77574W        W78439  14.543   0.430   7.109
77575W        W78440  14.261   1.358   5.730
77576W        W78441  12.569   3.488   7.207
77577W        W78442  12.424   0.117   3.934
77578W        W78443  13.963   2.716   3.877
77579W        W78444  11.732   0.809   6.763
77580W        W78445  12.166   2.803   6.625
77581W        W78446  14.292   0.794   6.423
77582W        W78447  13.503   3.453   4.391
77583W        W78448  13.742   2.072   5.758
77584W        W78449  11.992   0.488   6.425
77585W        W78450  12.461   1.557   7.182
77586W        W78451  11.964   2.736   4.376
77587W        W78452  13.719   2.234   4.640
77588W        W78453  11.487   0.860   6.364
77589W        W78454  12.816   2.922   4.828
77590W        W78455  14.566   1.482   5.009
77591W        W78456  12.788   0.115   6.728
77592W        W78457  13.568   2.820   5.807
77593W        W78458  13.871   3.164   5.515
77594W        W78459  13.090   2.966   3.943
77595W        W78460  11.100   2.858   6.785
77596W        W78461  11.843   0.850   6.023
77597W        W78462  11.813   0.198   5.133
77598W        W78463  13.434   1.040   5.825
77599W        W78464  12.232   2.211   4.025
77600W        W78465  14.230   2.153   5.524
77601W        W78466  11.557   2.911   6.947
77602W        W78467  13.944   3.593   4.744
77603W        W78468  12.043   0.613   5.189
77604W        W78469  11.812   2.106   5.279
77605W        W78470  12.125   3.517   6.029
77606W        W78471  14.192   3.613   7.061
77607W        W78472  13.351   1.801   5.994
77608W        W78473  11.200   1.599   3.909
77609W        W78474  14.334   3.257   4.606
77610W        W78475  14.171   0.581   4.225
77611W        W78476  12.310   0.100   6.628
77612W        W78477  14.016   2.902   5.086
77613W        W78478  14.045   1.458   4.991
77614W        W78479  12.162   1.131   5.207
77615W        W78480  12.407   1.393   6.531
77616W        W78481  13.518   2.546   6.394
77617W        W78482  12.168   1.000   6.506
77618W        W78483  12.147   3.466   5.122
77619W        W78484  11.464   3.425   6.756
77620W        W78485  11.576   2.786   3.886
77621W        W78486  14.093   2.544   4.696
77622W        W78487  11.697   1.336   6.582
77623W        W78488  14.470   1.266   4.063
77624W        W78489  12.215   2.323   4.534
77625W        W78490  13.314   1.705   6.615
77626W        W78491  13.205   1.333   6.159
77627W        W78492  11.765   1.705   6.188
77628W        W78493  13.975   3.593   6.017
77629W        W78494  13.766   0.227   7.011
77630W        W78495  11.430   0.377   6.598
77631W        W78496  11.769   1.400   5.651
77632W        W78497  12.138   1.214   3.773
77633W        W78498  10.941   2.973   6.318
77634W        W78499  12.526   1.682   5.761
77635W        W78500  12.349   0.707   3.866
77636W        W78501  11.484   1.523   4.647
77637W        W78502  11.255   3.375   6.084
77638W        W78503  14.050   1.601   4.192
77639W        W78504  14.145   0.517   6.878
77640W        W78505  13.581   2.726   4.841
77641W        W78506  11.179   1.650   7.018
77642W        W78507  14.145   0.114   4.314
77643W        W78508  13.665   2.589   4.325
77644W        W78509  12.567   1.647   4.410
77645W        W78510  13.754   0.451   3.933
77646W        W78511  13.819   1.058   6.119
77647W        W78512  11.528   1.651   5.326
77648W        W78513  11.822   2.590   4.975
77649W        W78514  13.585   1.210   4.940
77650W        W78515  12.608   0.589   5.636
77651W        W78516  14.570   2.500   6.147
77652W        W78517  14.488   0.487   5.708
77653W        W78518  11.027   3.317   5.084
77654W        W78519  11.536   2.504   4.620
77655W        W78520  11.451   0.121   7.173
77656W        W78521  12.570   2.974   7.275
77657W        W78522  14.325   1.942   5.065
77658W        W78523  13.679   2.119   3.945
77659W        W78524  12.974   3.640   6.157
77660W        W78525  13.831   2.362   7.194
77661W        W78526  12.646   0.072   4.474
77662W        W78527  13.359   0.941   5.333
77663W        W78528  11.045   2.528   5.665
77664W        W78529  12.298   0.490   4.306
77665W        W78530  12.102   1.974   7.155
77666W        W78531  13.096   0.955   4.869
77667W        W78532  13.301   2.365   5.991
77668W        W78533  11.455   2.970   6.426
77669W        W78534  12.046   2.953   7.149
77670W        W78535  11.897   0.750   4.163
77671W        W78536  13.414   0.892   4.488
77672W        W78537  13.372   3.000   6.725
77673W        W78538  12.057   1.592   5.324
77674W        W78539  11.712   3.290   6.189
77675W        W78540  14.457   3.407   3.790
77676W        W78541  11.320   2.079   6.786
77677W        W78542  13.315   2.341   5.474
77678W        W78543  11.751   1.990   4.716
77679W        W78544  12.122   2.997   6.111
77680W        W78545  12.500   0.416   5.152
77681W        W78546  11.111   2.400   4.082
77682W        W78547  12.630   1.351   3.952
77683W        W78548  11.276   1.900   4.971
77684W        W78549  12.566   0.542   6.435
77685W        W78550  14.238   0.251   3.862
77686W        W78551  14.331   1.997   6.961
77687W        W78552  12.985   3.254   7.113
77688W        W78553  14.543   2.348   6.635
77689W        W78554  13.951   3.146   7.246
77690W        W78555  11.690   3.602   5.724
77691W        W78556  14.549   2.224   4.598
77692W        W78557  13.079   1.491   5.111
77693W        W78558  12.846   0.103   5.001
77694W        W78559  11.905   3.087   4.838
77695W        W78560  12.404   0.828   6.063
77696W        W78561  12.104   0.197   5.532
77697W        W78562  11.167   3.019   4.080
77698W        W78563  12.983   2.383   4.798
77699W        W78564  11.858   3.178   6.677
77700W        W78565  11.335   2.001   4.373
77701W        W78566  11.220   0.544   5.372
77702W        W78567  12.768   2.509   5.429
77703W        W78568  11.020   0.363   4.449
77704W        W78569  13.684   1.569   6.376
77705W        W78570  13.561   0.955   3.948
77706W        W78571  14.078   2.627   5.596
77707W        W78572  12.739   3.111   5.427
77708W        W78573  12.151   3.215   4.338
77709W        W78574  13.433   0.118   3.768
77710W        W78575  11.233   3.378   5.509
77711W        W78576  13.430   1.136   7.144
77712W        W78577  11.413   0.666   7.143
77713W        W78578  11.144   1.266   4.476
77714W        W78579  11.835   1.255   4.201
77715W        W78580  13.598   1.582   7.018
77716W        W78581  11.941   1.863   5.727
77717W        W78582  13.415   0.149   4.847
77718W        W78583  12.546   3.580   5.350
77719W        W78584  13.760   3.042   6.287
77720W        W78585  13.344   3.191   5.398
77721W        W78586  13.363   2.171   4.992
77722W        W78587  12.825   0.396   4.063
77723W        W78588  14.506   0.024   4.785
77724W        W78589  12.194   1.659   3.948
77725W        W78590  14.360   0.996   4.938
77726W        W78591  13.052   2.166   3.815
77727W        W78592  13.988   2.366   6.563
77728W        W78593  13.642   3.067   4.030
77729W        W78594  12.257   0.742   6.936
77730W        W78595  12.077   1.326   6.177
77731W        W78596  14.169   2.821   6.454
77732W        W78597  13.269   0.771   6.831
77733W        W78598  11.113   1.242   6.608
77734W        W78599  12.873   1.719   6.334
77735W        W78600  11.230   2.477   4.991
77736W        W78601  11.377   1.774   5.881
77737W        W78602  13.694   2.060   6.231
77738W        W78603  13.466   3.440   7.042
77739W        W78604  13.362   1.179   6.595
77740W        W78605  13.639   3.233   5.000
77741W        W78606  12.641   2.953   6.323
77742W        W78607  12.126   3.308   5.592
77743W        W78608  13.931   2.479   6.011
77744W        W78609  12.981   2.551   7.148
77745W        W78610  11.586   2.504   5.487
77746W        W78611  13.932   2.263   5.132
77747W        W78612  13.573   3.329   5.883
77748W        W78613  11.551   3.058   5.753
77749W        W78614  12.572   1.110   6.963
77750W        W78615  13.023   3.276   4.474
77751W        W78616  12.331   2.531   7.112
77752W        W78617  12.457   2.769   4.489
77753W        W78618  11.678   1.509   3.748
77754W        W78619  11.017   3.595  10.648
77755W        W78620  11.393   2.488  10.171
77756W        W78621  14.098   2.218   7.941
77757W        W78622  14.228   3.303   9.968
77758W        W78623  12.146   3.294   7.494
77759W        W78624  12.229   1.446   8.477
77760W        W78625  11.744   1.294   8.641
77761W        W78626  12.735   2.109   8.075
77762W        W78627  12.410   3.201  10.430
77763W        W78628  11.059   0.762  10.393
77764W        W78629  11.821   0.042  10.195
77765W        W78630  13.515   0.430   9.082
77766W        W78631  13.164   1.301   7.652
77767W        W78632  13.734   0.735  10.743
77768W        W78633  11.100   0.527   9.868
77769W        W78634  12.721   2.536   7.621
77770W        W78635  11.153   1.319   9.314
77771W        W78636  12.046   1.210  10.551
77772W        W78637  14.505   1.069   9.050
77773W        W78638  14.269   2.112   9.909
77774W        W78639  12.577   1.445   8.936
77775W        W78640  13.123   2.784   9.305
77776W        W78641  11.623   2.218   9.537
77777W        W78642  10.982   1.746   9.108
77778W        W78643  12.018   1.718  10.300
77779W        W78644  14.289   1.501  10.554
77780W        W78645  11.905   2.945   8.999
77781W        W78646  13.026   2.634  10.133
77782W        W78647  12.246   1.274   9.358
77783W        W78648  12.538   2.058   9.001
77784W        W78649  13.535   2.831  10.849
77785W        W78650  12.614   2.151  10.859
77786W        W78651  12.595   1.867  10.337
77787W        W78652  11.004   1.258  10.859
77788W        W78653  13.836   2.793  10.458
77789W        W78654  11.417   0.375   8.456
77790W        W78655  11.944   2.633   9.455
77791W        W78656  14.407   2.416   8.745
77792W        W78657  13.820   0.816   9.312
77793W        W78658  14.105   0.769   7.407
77794W        W78659  14.570   1.570   9.713
77795W        W78660  12.537   3.277   9.466
77796W        W78661  14.311   2.743   7.904
77797W        W78662  11.440   3.529   7.658
77798W        W78663  11.833   3.575   8.334
77799W        W78664  11.630   0.329   9.760
77800W        W78665  14.253   1.347  10.035
77801W        W78666  13.658   1.769   8.494
77802W        W78667  13.624   1.457   7.521
77803W        W78668  12.832   2.601   9.661
77804W        W78669  12.638   0.931   8.860
77805W        W78670  13.238   3.018   9.854
77806W        W78671  14.109   1.809   8.276
77807W        W78672  13.011   0.467   8.292
77808W        W78673  11.668   3.161   7.975
77809W        W78674  11.039   0.660   8.574
77810W        W78675  13.825   1.267   9.048
77811W        W78676  11.283   2.884   8.963
77812W        W78677  12.624   3.234   7.833
77813W        W78678  14.016   1.260   7.297
77814W        W78679  11.039   3.018   9.461
77815W        W78680  11.830   2.590   9.941
77816W        W78681  12.203   1.950   8.560
77817W        W78682  12.225   0.355   9.653
77818W        W78683  14.454   0.117   8.950
77819W        W78684  11.673   1.989   7.418
77820W        W78685  11.328   1.022   7.597
77821W        W78686  11.390   2.978   8.391
77822W        W78687  12.521   2.461   8.639
77823W        W78688  13.853   3.320  10.353
77824W        W78689  12.779   0.962   8.037
77825W        W78690  14.162   3.360   8.809
77826W        W78691  13.839   1.213  10.407
77827W        W78692  14.552   2.869   8.541
77828W        W78693  13.179   2.161  10.025
77829W        W78694  10.945   1.712   8.231
77830W        W78695  12.056   2.127   9.804
77831W        W78696  13.260   1.391   8.182
77832W        W78697  13.137   1.881   8.286
77833W        W78698  11.480   1.301   9.760
77834W        W78699  11.465   1.177  10.682
77835W        W78700  11.355   0.094   8.841
77836W        W78701  13.123   0.441   9.402
77837W        W78702  12.771   0.626  10.565
77838W        W78703  13.126   0.775   7.743
77839W        W78704  14.309   3.168  10.497
77840W        W78705  13.276   0.249  10.536
77841W        W78706  14.295   2.550  10.658
77842W        W78707  13.725   0.717  10.254
77843W        W78708  13.525   0.655   8.524
77844W        W78709  13.918   1.789  10.928
77845W        W78710  11.658   3.365   8.914
77846W        W78711  12.316   1.082   7.900
77847W        W78712  11.885   0.366  10.564
77848W        W78713  13.937   0.850   8.245
77849W        W78714  14.304   1.332   8.190
77850W        W78715  12.047   3.549  10.661
77851W        W78716  11.973   0.085   7.896
77852W        W78717  14.294   0.619   8.931
77853W        W78718  14.444   2.868   7.376
77854W        W78719  11.351   2.071   9.078
77855W        W78720  13.268   0.658   7.308
77856W        W78721  14.402   2.990   9.028
77857W        W78722  14.441   0.184   9.778
77858W        W78723  12.886   1.396  10.332
77859W        W78724  12.979   2.735   8.035
77860W        W78725  13.379   2.029  10.775
77861W        W78726  13.053   0.006   9.084
77862W        W78727  11.665   0.909   9.147
77863W        W78728  11.219   2.109   9.921
77864W        W78729  13.078   3.302   8.627
77865W        W78730  14.272   0.899   9.499
77866W        W78731  12.909   3.246  10.266
77867W        W78732  14.252   2.305   7.471
77868W        W78733  12.687   1.788   8.532
77869W        W78734  14.539   0.299  10.273
77870W        W78735  12.688   2.134   9.867
77871W        W78736  12.905   1.020   9.312
77872W        W78737  13.757   1.318   8.150
77873W        W78738  14.044   1.051   7.792
77874W        W78739  13.853   3.091   8.181
77875W        W78740  13.687   2.694   8.977
77876W        W78741  13.583   1.773   7.955
77877W        W78742  13.016   1.983   8.941
77878W        W78743  13.897   1.771   9.008
77879W        W78744  11.272   0.786   9.432
77880W        W78745  14.050   1.838  10.259
77881W        W78746  14.401   3.456   9.405
77882W        W78747  12.331   2.900   8.807
77883W        W78748  13.338   3.433  10.131
77884W        W78749  13.332   0.763   9.895
77885W        W78750  12.539   3.471   9.956
77886W        W78751  14.236   0.425   8.422
77887W        W78752  14.027   1.744   9.723
77888W        W78753  11.010   1.065   9.761
77889W        W78754  13.870   0.860   8.779
77890W        W78755  14.281   1.011  10.556
77891W        W78756  13.166   2.710   8.774
77892W        W78757  12.422   3.301   8.387
77893W        W78758  11.537   0.481   7.645
77894W        W78759  12.641   0.135   9.455
77895W        W78760  11.669   3.255   7.303
77896W        W78761  12.043   1.721   8.054
77897W        W78762  12.697   2.350  10.367
77898W        W78763  12.527   0.708   8.357
77899W        W78764  13.883   0.305   8.785
77900W        W78765  13.603   3.587   9.113
77901W        W78766  13.015   3.235   9.453
77902W        W78767  12.411   2.272   9.414
77903W        W78768  14.181   2.995   9.540
77904W        W78769  11.875   0.498   8.309
77905W        W78770  12.397   2.795   9.269
77906W        W78771  11.880   0.726   7.334
77907W        W78772  12.681   1.335   9.728
77908W        W78773  13.529   0.201   9.598
77909W        W78774  10.949   2.044   9.483
77910W        W78775  12.653   1.862   7.641
77911W        W78776  11.921   0.177   7.411
77912W        W78777  12.659   1.258   8.462
77913W        W78778  13.629   0.234  10.161
77914W        W78779  12.217   2.246  10.270
77915W        W78780  13.021   2.028  10.487
77916W        W78781  13.638   2.058  10.380
77917W        W78782  12.922   0.198  10.885
77918W        W78783  12.144   0.814   9.278
77919W        W78784  11.570   0.770   8.676
77920W        W78785  11.356   3.482   8.352
77921W        W78786  12.688   2.812  10.477
77922W        W78787  11.723   2.297   7.836
77923W        W78788  13.403   1.682   9.057
77924W        W78789  13.683   1.481   9.456
77925W        W78790  12.888   2.155   9.390
77926W        W78791  13.358   2.529   7.522
77927W        W78792  13.030   0.550   8.850
77928W        W78793  14.509   0.828   8.118
77929W        W78794  11.003   3.417  10.149
77930W        W78795  11.420   2.643   9.681
77931W        W78796  10.987   3.489   7.913
77932W        W78797  12.886   0.759   9.719
77933W        W78798  12.249   2.782   7.568
77934W        W78799  14.154   3.164   7.754
77935W        W78800  13.129   1.817   7.768
77936W        W78801  11.972   1.008   8.285
77937W        W78802  12.804   0.918   7.337
77938W        W78803  13.388   2.483  10.515
77939W        W78804  13.741   0.389   8.132
77940W        W78805  11.071   0.237   7.580
77941W        W78806  12.357   2.556   9.870
77942W        W78807  12.156   2.472   8.962
77943W        W78808  11.898   2.424   7.360
77944W        W78809  11.139   2.665   8.128
77945W        W78810  11.643   1.735  10.570
77946W        W78811  12.347   0.295  10.756
77947W        W78812  13.056   0.437  10.112
77948W        W78813  12.251   0.205   8.393
77949W        W78814  13.310   0.282   7.898
77950W        W78815  11.255   0.214   9.475
77951W        W78816  11.303   1.177   8.845
77952W        W78817  13.992   0.285   9.251
77953W        W78818  11.414   0.783   8.065
77954W        W78819  13.985   0.471   9.681
77955W        W78820  14.381   1.674   7.366
77956W        W78821  11.673   0.432   9.185
77957W        W78822  12.787   1.004  10.125
77958W        W78823  10.935   0.694   7.603
77959W        W78824  11.721   2.083  10.164
77960W        W78825  13.079   1.481   9.343
77961W        W78826  12.946   3.560   7.639
77962W        W78827  11.092   2.067   7.336
77963W        W78828  11.827   2.478  10.462
77964W        W78829  11.348   1.645  10.093
77965W        W78830  12.339   1.750   9.887
77966W        W78831  14.107   0.109  10.149
77967W        W78832  14.505   1.719  10.140
77968W        W78833  14.493   1.919   7.826
77969W        W78834  13.356   2.251   7.925
77970W        W78835  13.830   3.551   7.620
77971W        W78836  13.007   1.541  10.762
77972W        W78837  11.337   2.508  10.802
77973W        W78838  14.543   0.430  10.754
77974W        W78839  14.261   1.358   9.375
77975W        W78840  12.569   3.488  10.852
77976W        W78841  12.424   0.117   7.579
77977W        W78842  13.963   2.716   7.522
77978W        W78843  11.732   0.809  10.408
77979W        W78844  12.166   2.803  10.270
77980W        W78845  14.292   0.794  10.068
77981W        W78846  13.503   3.453   8.036
77982W        W78847  13.742   2.072   9.403
77983W        W78848  11.992   0.488  10.070
77984W        W78849  12.461   1.557  10.827
77985W        W78850  11.964   2.736   8.021
77986W        W78851  13.719   2.234   8.285
77987W        W78852  11.487   0.860  10.009
77988W        W78853  12.816   2.922   8.473
77989W        W78854  14.566   1.482   8.654
77990W        W78855  12.788   0.115  10.373
77991W        W78856  13.568   2.820   9.452
77992W        W78857  13.871   3.164   9.160
77993W        W78858  13.090   2.966   7.588
77994W        W78859  11.100   2.858  10.430
77995W        W78860  11.843   0.850   9.668
77996W        W78861  11.813   0.198   8.778
77997W        W78862  13.434   1.040   9.470
77998W        W78863  12.232   2.211   7.670
77999W        W78864  14.230   2.153   9.169
78000W        W78865  11.557   2.911  10.592
78001W        W78866  13.944   3.593   8.389
78002W        W78867  12.043   0.613   8.834
78003W        W78868  11.812   2.106   8.924
78004W        W78869  12.125   3.517   9.674
78005W        W78870  14.192   3.613  10.706
78006W        W78871  13.351   1.801   9.639
78007W        W78872  11.200   1.599   7.554
78008W        W78873  14.334   3.257   8.251
78009W        W78874  14.171   0.581   7.870
78010W        W78875  12.310   0.100  10.273
78011W        W78876  14.016   2.902   8.731
78012W        W78877  14.045   1.458   8.636
78013W        W78878  12.162   1.131   8.852
78014W        W78879  12.407   1.393  10.176
78015W        W78880  13.518   2.546  10.039
78016W        W78881  12.168   1.000  10.151
78017W        W78882  12.147   3.466   8.767
78018W        W78883  11.464   3.425  10.401
78019W        W78884  11.576   2.786   7.531
78020W        W78885  14.093   2.544   8.341
78021W        W78886  11.697   1.336  10.227
78022W        W78887  14.470   1.266   7.708
78023W        W78888  12.215   2.323   8.179
78024W        W78889  13.314   1.705  10.260
78025W        W78890  13.205   1.333   9.804
78026W        W78891  11.765   1.705   9.833
78027W        W78892  13.975   3.593   9.662
78028W        W78893  13.766   0.227  10.656
78029W        W78894  11.430   0.377  10.243
78030W        W78895  11.769   1.400   9.296
78031W        W78896  12.138   1.214   7.418
78032W        W78897  10.941   2.973   9.963
78033W        W78898  12.526   1.682   9.406
78034W        W78899  12.349   0.707   7.511
78035W        W78900  11.484   1.523   8.292
78036W        W78901  11.255   3.375   9.729
78037W        W78902  14.050   1.601   7.837
78038W        W78903  14.145   0.517  10.523
78039W        W78904  13.581   2.726   8.486
78040W        W78905  11.179   1.650  10.663
78041W        W78906  14.145   0.114   7.959
78042W        W78907  13.665   2.589   7.970
78043W        W78908  12.567   1.647   8.055
78044W        W78909  13.754   0.451   7.578
78045W        W78910  13.819   1.058   9.764
78046W        W78911  11.528   1.651   8.971
78047W        W78912  11.822   2.590   8.620
78048W        W78913  13.585   1.210   8.585
78049W        W78914  12.608   0.589   9.281
78050W        W78915  14.570   2.500   9.792
78051W        W78916  14.488   0.487   9.353
78052W        W78917  11.027   3.317   8.729
78053W        W78918  11.536   2.504   8.265
78054W        W78919  11.451   0.121  10.818
78055W        W78920  12.570   2.974  10.920
78056W        W78921  14.325   1.942   8.710
78057W        W78922  13.679   2.119   7.590
78058W        W78923  12.974   3.640   9.802
78059W        W78924  13.831   2.362  10.839
78060W        W78925  12.646   0.072   8.119
78061W        W78926  13.359   0.941   8.978
78062W        W78927  11.045   2.528   9.310
78063W        W78928  12.298   0.490   7.951
78064W        W78929  12.102   1.974  10.800
78065W        W78930  13.096   0.955   8.514
78066W        W78931  13.301   2.365   9.636
78067W        W78932  11.455   2.970  10.071
78068W        W78933  12.046   2.953  10.794
78069W        W78934  11.897   0.750   7.808
78070W        W78935  13.414   0.892   8.133
78071W        W78936  13.372   3.000  10.370
78072W        W78937  12.057   1.592   8.969
78073W        W78938  11.712   3.290   9.834
78074W        W78939  14.457   3.407   7.435
78075W        W78940  11.320   2.079  10.431
78076W        W78941  13.315   2.341   9.119
78077W        W78942  11.751   1.990   8.361
78078W        W78943  12.122   2.997   9.756
78079W        W78944  12.500   0.416   8.797
78080W        W78945  11.111   2.400   7.727
78081W        W78946  12.630   1.351   7.597
78082W        W78947  11.276   1.900   8.616
78083W        W78948  12.566   0.542  10.080
78084W        W78949  14.238   0.251   7.507
78085W        W78950  14.331   1.997  10.606
78086W        W78951  12.985   3.254  10.758
78087W        W78952  14.543   2.348  10.280
78088W        W78953  13.951   3.146  10.891
78089W        W78954  11.690   3.602   9.369
78090W        W78955  14.549   2.224   8.243
78091W        W78956  13.079   1.491   8.756
78092W        W78957  12.846   0.103   8.646
78093W        W78958  11.905   3.087   8.483
78094W        W78959  12.404   0.828   9.708
78095W        W78960  12.104   0.197   9.177
78096W        W78961  11.167   3.019   7.725
78097W        W78962  12.983   2.383   8.443
78098W        W78963  11.858   3.178  10.322
78099W        W78964  11.335   2.001   8.018
78100W        W78965  11.220   0.544   9.017
78101W        W78966  12.768   2.509   9.074
78102W        W78967  11.020   0.363   8.094
78103W        W78968  13.684   1.569  10.021
78104W        W78969  13.561   0.955   7.593
78105W        W78970  14.078   2.627   9.241
78106W        W78971  12.739   3.111   9.072
78107W        W78972  12.151   3.215   7.983
78108W        W78973  13.433   0.118   7.413
78109W        W78974  11.233   3.378   9.154
78110W        W78975  13.430   1.136  10.789
78111W        W78976  11.413   0.666  10.788
78112W        W78977  11.144   1.266   8.121
78113W        W78978  11.835   1.255   7.846
78114W        W78979  13.598   1.582  10.663
78115W        W78980  11.941   1.863   9.372
78116W        W78981  13.415   0.149   8.492
78117W        W78982  12.546   3.580   8.995
78118W        W78983  13.760   3.042   9.932
78119W        W78984  13.344   3.191   9.043
78120W        W78985  13.363   2.171   8.637
78121W        W78986  12.825   0.396   7.708
78122W        W78987  14.506   0.024   8.430
78123W        W78988  12.194   1.659   7.593
78124W        W78989  14.360   0.996   8.583
78125W        W78990  13.052   2.166   7.460
78126W        W78991  13.988   2.366  10.208
78127W        W78992  13.642   3.067   7.675
78128W        W78993  12.257   0.742  10.581
78129W        W78994  12.077   1.326   9.822
78130W        W78995  14.169   2.821  10.099
78131W        W78996  13.269   0.771  10.476
78132W        W78997  11.113   1.242  10.253
78133W        W78998  12.873   1.719   9.979
78134W        W78999  11.230   2.477   8.636
78135W        W79000  11.377   1.774   9.526
78136W        W79001  13.694   2.060   9.876
78137W        W79002  13.466   3.440  10.687
78138W        W79003  13.362   1.179  10.240
78139W        W79004  13.639   3.233   8.645
78140W        W79005  12.641   2.953   9.968
78141W        W79006  12.126   3.308   9.237
78142W        W79007  13.931   2.479   9.656
78143W        W79008  12.981   2.551  10.793
78144W        W79009  11.586   2.504   9.132
78145W        W79010  13.932   2.263   8.777
78146W        W79011  13.573   3.329   9.528
78147W        W79012  11.551   3.058   9.398
78148W        W79013  12.572   1.110  10.608
78149W        W79014  13.023   3.276   8.119
78150W        W79015  12.331   2.531  10.757
78151W        W79016  12.457   2.769   8.134
78152W        W79017  11.678   1.509   7.393
78153W        W79018  11.017   3.595  14.292
78154W        W79019  11.393   2.488  13.815
78155W        W79020  14.098   2.218  11.585
78156W        W79021  14.228   3.303  13.612
78157W        W79022  12.146   3.294  11.138
78158W        W79023  12.229   1.446  12.121
78159W        W79024  11.744   1.294  12.285
78160W        W79025  12.735   2.109  11.719
78161W        W79026  12.410   3.201  14.074
78162W        W79027  11.059   0.762  14.037
78163W        W79028  11.821   0.042  13.839
78164W        W79029  13.515   0.430  12.726
78165W        W79030  13.164   1.301  11.296
78166W        W79031  13.734   0.735  14.387
78167W        W79032  11.100   0.527  13.512
78168W        W79033  11.199   3.146  14.533
78169W        W79034  12.721   2.536  11.265
78170W        W79035  11.153   1.319  12.958
78171W        W79036  12.046   1.210  14.195
78172W        W79037  14.505   1.069  12.694
78173W        W79038  14.269   2.112  13.553
78174W        W79039  12.577   1.445  12.580
78175W        W79040  13.123   2.784  12.949
78176W        W79041  11.623   2.218  13.181
78177W        W79042  10.982   1.746  12.752
78178W        W79043  12.018   1.718  13.944
78179W        W79044  14.289   1.501  14.198
78180W        W79045  11.905   2.945  12.643
78181W        W79046  13.026   2.634  13.777
78182W        W79047  12.246   1.274  13.002
78183W        W79048  12.538   2.058  12.645
78184W        W79049  13.535   2.831  14.493
78185W        W79050  12.614   2.151  14.503
78186W        W79051  12.595   1.867  13.981
78187W        W79052  11.004   1.258  14.503
78188W        W79053  13.836   2.793  14.102
78189W        W79054  11.417   0.375  12.100
78190W        W79055  11.944   2.633  13.099
78191W        W79056  14.407   2.416  12.389
78192W        W79057  13.820   0.816  12.956
78193W        W79058  14.105   0.769  11.051
78194W        W79059  14.570   1.570  13.357
78195W        W79060  12.537   3.277  13.110
78196W        W79061  14.311   2.743  11.548
78197W        W79062  11.440   3.529  11.302
78198W        W79063  11.833   3.575  11.978
78199W        W79064  11.630   0.329  13.404
78200W        W79065  14.253   1.347  13.679
78201W        W79066  13.658   1.769  12.138
78202W        W79067  13.624   1.457  11.165
78203W        W79068  12.832   2.601  13.305
78204W        W79069  12.638   0.931  12.504
78205W        W79070  13.238   3.018  13.498
78206W        W79071  14.109   1.809  11.920
78207W        W79072  13.011   0.467  11.936
78208W        W79073  11.668   3.161  11.619
78209W        W79074  11.039   0.660  12.218
78210W        W79075  13.825   1.267  12.692
78211W        W79076  11.283   2.884  12.607
78212W        W79077  12.624   3.234  11.477
78213W        W79078  14.016   1.260  10.941
78214W        W79079  11.039   3.018  13.105
78215W        W79080  11.830   2.590  13.585
78216W        W79081  12.203   1.950  12.204
78217W        W79082  12.225   0.355  13.297
78218W        W79083  14.454   0.117  12.594
78219W        W79084  11.673   1.989  11.062
78220W        W79085  11.328   1.022  11.241
78221W        W79086  11.390   2.978  12.035
78222W        W79087  12.521   2.461  12.283
78223W        W79088  13.853   3.320  13.997
78224W        W79089  12.779   0.962  11.681
78225W        W79090  14.162   3.360  12.453
78226W        W79091  13.839   1.213  14.051
78227W        W79092  14.552   2.869  12.185
78228W        W79093  13.179   2.161  13.669
78229W        W79094  10.945   1.712  11.875
78230W        W79095  12.056   2.127  13.448
78231W        W79096  13.260   1.391  11.826
78232W        W79097  13.137   1.881  11.930
78233W        W79098  11.480   1.301  13.404
78234W        W79099  11.465   1.177  14.326
78235W        W79100  11.355   0.094  12.485
78236W        W79101  13.123   0.441  13.046
78237W        W79102  12.771   0.626  14.209
78238W        W79103  13.126   0.775  11.387
78239W        W79104  14.309   3.168  14.141
78240W        W79105  13.276   0.249  14.180
78241W        W79106  14.295   2.550  14.302
78242W        W79107  13.725   0.717  13.898
78243W        W79108  13.525   0.655  12.168
78244W        W79109  13.918   1.789  14.572
78245W        W79110  11.658   3.365  12.558
78246W        W79111  12.316   1.082  11.544
78247W        W79112  11.885   0.366  14.208
78248W        W79113  13.937   0.850  11.889
78249W        W79114  14.304   1.332  11.834
78250W        W79115  12.047   3.549  14.305
78251W        W79116  11.973   0.085  11.540
78252W        W79117  14.294   0.619  12.575
78253W        W79118  14.444   2.868  11.020
78254W        W79119  11.351   2.071  12.722
78255W        W79120  13.268   0.658  10.952
78256W        W79121  14.402   2.990  12.672
78257W        W79122  14.441   0.184  13.422
78258W        W79123  12.886   1.396  13.976
78259W        W79124  12.979   2.735  11.679
78260W        W79125  13.379   2.029  14.419
78261W        W79126  13.053   0.006  12.728
78262W        W79127  11.665   0.909  12.791
78263W        W79128  11.219   2.109  13.565
78264W        W79129  13.078   3.302  12.271
78265W        W79130  14.272   0.899  13.143
78266W        W79131  12.909   3.246  13.910
78267W        W79132  14.252   2.305  11.115
78268W        W79133  12.687   1.788  12.176
78269W        W79134  14.539   0.299  13.917
78270W        W79135  12.688   2.134  13.511
78271W        W79136  12.905   1.020  12.956
78272W        W79137  13.757   1.318  11.794
78273W        W79138  14.044   1.051  11.436
78274W        W79139  13.853   3.091  11.825
78275W        W79140  13.687   2.694  12.621
78276W        W79141  13.583   1.773  11.599
78277W        W79142  13.016   1.983  12.585
78278W        W79143  13.897   1.771  12.652
78279W        W79144  11.272   0.786  13.076
78280W        W79145  14.050   1.838  13.903
78281W        W79146  14.401   3.456  13.049
78282W        W79147  12.331   2.900  12.451
78283W        W79148  13.338   3.433  13.775
78284W        W79149  13.332   0.763  13.539
78285W        W79150  12.539   3.471  13.600
78286W        W79151  14.236   0.425  12.066
78287W        W79152  14.027   1.744  13.367
78288W        W79153  11.010   1.065  13.405
78289W        W79154  13.870   0.860  12.423
78290W        W79155  14.281   1.011  14.200
78291W        W79156  13.166   2.710  12.418
78292W        W79157  12.422   3.301  12.031
78293W        W79158  11.537   0.481  11.289
78294W        W79159  12.641   0.135  13.099
78295W        W79160  11.669   3.255  10.947
78296W        W79161  12.043   1.721  11.698
78297W        W79162  12.697   2.350  14.011
78298W        W79163  12.527   0.708  12.001
78299W        W79164  13.883   0.305  12.429
78300W        W79165  13.603   3.587  12.757
78301W        W79166  13.015   3.235  13.097
78302W        W79167  12.411   2.272  13.058
78303W        W79168  14.181   2.995  13.184
78304W        W79169  11.875   0.498  11.953
78305W        W79170  12.397   2.795  12.913
78306W        W79171  11.880   0.726  10.978
78307W        W79172  12.681   1.335  13.372
78308W        W79173  13.529   0.201  13.242
78309W        W79174  10.949   2.044  13.127
78310W        W79175  12.653   1.862  11.285
78311W        W79176  11.921   0.177  11.055
78312W        W79177  12.659   1.258  12.106
78313W        W79178  13.629   0.234  13.805
78314W        W79179  12.217   2.246  13.914
78315W        W79180  13.021   2.028  14.131
78316W        W79181  13.638   2.058  14.024
78317W        W79182  12.922   0.198  14.529
78318W        W79183  12.144   0.814  12.922
78319W        W79184  11.570   0.770  12.320
78320W        W79185  11.356   3.482  11.996
78321W        W79186  12.688   2.812  14.121
78322W        W79187  11.723   2.297  11.480
78323W        W79188  13.403   1.682  12.701
78324W        W79189  13.683   1.481  13.100
78325W        W79190  12.888   2.155  13.034
78326W        W79191  13.358   2.529  11.166
78327W        W79192  13.030   0.550  12.494
78328W        W79193  14.509   0.828  11.762
78329W        W79194  11.003   3.417  13.793
78330W        W79195  11.420   2.643  13.325
78331W        W79196  10.987   3.489  11.557
78332W        W79197  12.886   0.759  13.363
78333W        W79198  12.249   2.782  11.212
78334W        W79199  14.154   3.164  11.398
78335W        W79200  13.129   1.817  11.412
78336W        W79201  11.972   1.008  11.929
78337W        W79202  12.804   0.918  10.981
78338W        W79203  13.388   2.483  14.159
78339W        W79204  13.741   0.389  11.776
78340W        W79205  11.071   0.237  11.224
78341W        W79206  12.357   2.556  13.514
78342W        W79207  12.156   2.472  12.606
78343W        W79208  11.898   2.424  11.004
78344W        W79209  11.139   2.665  11.772
78345W        W79210  11.643   1.735  14.214
78346W        W79211  12.347   0.295  14.400
78347W        W79212  13.056   0.437  13.756
78348W        W79213  12.251   0.205  12.037
78349W        W79214  13.310   0.282  11.542
78350W        W79215  11.255   0.214  13.119
78351W        W79216  11.303   1.177  12.489
78352W        W79217  13.992   0.285  12.895
78353W        W79218  11.414   0.783  11.709
78354W        W79219  13.985   0.471  13.325
78355W        W79220  14.381   1.674  11.010
78356W        W79221  11.673   0.432  12.829
78357W        W79222  12.787   1.004  13.769
78358W        W79223  10.935   0.694  11.247
78359W        W79224  11.721   2.083  13.808
78360W        W79225  13.079   1.481  12.987
78361W        W79226  12.946   3.560  11.283
78362W        W79227  11.092   2.067  10.980
78363W        W79228  11.827   2.478  14.106
78364W        W79229  11.348   1.645  13.737
78365W        W79230  12.339   1.750  13.531
78366W        W79231  14.107   0.109  13.793
78367W        W79232  14.505   1.719  13.784
78368W        W79233  14.493   1.919  11.470
78369W        W79234  13.356   2.251  11.569
78370W        W79235  13.830   3.551  11.264
78371W        W79236  13.007   1.541  14.406
78372W        W79237  11.337   2.508  14.446
78373W        W79238  14.543   0.430  14.398
78374W        W79239  14.261   1.358  13.019
78375W        W79240  12.569   3.488  14.496
78376W        W79241  12.424   0.117  11.223
78377W        W79242  13.963   2.716  11.166
78378W        W79243  11.732   0.809  14.052
78379W        W79244  12.166   2.803  13.914
78380W        W79245  14.292   0.794  13.712
78381W        W79246  13.503   3.453  11.680
78382W        W79247  13.742   2.072  13.047
78383W        W79248  11.992   0.488  13.714
78384W        W79249  12.461   1.557  14.471
78385W        W79250  11.964   2.736  11.665
78386W        W79251  13.719   2.234  11.929
78387W        W79252  11.487   0.860  13.653
78388W        W79253  12.816   2.922  12.117
78389W        W79254  14.566   1.482  12.298
78390W        W79255  12.788   0.115  14.017
78391W        W79256  13.568   2.820  13.096
78392W        W79257  13.871   3.164  12.804
78393W        W79258  13.090   2.966  11.232
78394W        W79259  11.100   2.858  14.074
78395W        W79260  11.843   0.850  13.312
78396W        W79261  11.813   0.198  12.422
78397W        W79262  13.434   1.040  13.114
78398W        W79263  12.232   2.211  11.314
78399W        W79264  14.230   2.153  12.813
78400W        W79265  11.557   2.911  14.236
78401W        W79266  13.944   3.593  12.033
78402W        W79267  12.043   0.613  12.478
78403W        W79268  11.812   2.106  12.568
78404W        W79269  12.125   3.517  13.318
78405W        W79270  14.192   3.613  14.350
78406W        W79271  13.351   1.801  13.283
78407W        W79272  11.200   1.599  11.198
78408W        W79273  14.334   3.257  11.895
78409W        W79274  14.171   0.581  11.514
78410W        W79275  12.310   0.100  13.917
78411W        W79276  14.016   2.902  12.375
78412W        W79277  14.045   1.458  12.280
78413W        W79278  12.162   1.131  12.496
78414W        W79279  12.407   1.393  13.820
78415W        W79280  13.518   2.546  13.683
78416W        W79281  12.168   1.000  13.795
78417W        W79282  12.147   3.466  12.411
78418W        W79283  11.464   3.425  14.045
78419W        W79284  11.576   2.786  11.175
78420W        W79285  14.093   2.544  11.985
78421W        W79286  11.697   1.336  13.871
78422W        W79287  14.470   1.266  11.352
78423W        W79288  12.215   2.323  11.823
78424W        W79289  13.314   1.705  13.904
78425W        W79290  13.205   1.333  13.448
78426W        W79291  11.765   1.705  13.477
78427W        W79292  13.975   3.593  13.306
78428W        W79293  13.766   0.227  14.300
78429W        W79294  11.430   0.377  13.887
78430W        W79295  11.769   1.400  12.940
78431W        W79296  12.138   1.214  11.062
78432W        W79297  10.941   2.973  13.607
78433W        W79298  12.526   1.682  13.050
78434W        W79299  12.349   0.707  11.155
78435W        W79300  11.484   1.523  11.936
78436W        W79301  11.255   3.375  13.373
78437W        W79302  14.050   1.601  11.481
78438W        W79303  14.145   0.517  14.167
78439W        W79304  13.581   2.726  12.130
78440W        W79305  11.179   1.650  14.307
78441W        W79306  14.145   0.114  11.603
78442W        W79307  13.665   2.589  11.614
78443W        W79308  12.567   1.647  11.699
78444W        W79309  13.754   0.451  11.222
78445W        W79310  13.819   1.058  13.408
78446W        W79311  11.528   1.651  12.615
78447W        W79312  11.822   2.590  12.264
78448W        W79313  13.585   1.210  12.229
78449W        W79314  12.608   0.589  12.925
78450W        W79315  14.570   2.500  13.436
78451W        W79316  14.488   0.487  12.997
78452W        W79317  11.027   3.317  12.373
78453W        W79318  11.536   2.504  11.909
78454W        W79319  11.451   0.121  14.462
78455W        W79320  12.570   2.974  14.564
78456W        W79321  14.325   1.942  12.354
78457W        W79322  13.679   2.119  11.234
78458W        W79323  12.974   3.640  13.446
78459W        W79324  13.831   2.362  14.483
78460W        W79325  12.646   0.072  11.763
78461W        W79326  13.359   0.941  12.622
78462W        W79327  11.045   2.528  12.954
78463W        W79328  12.298   0.490  11.595
78464W        W79329  12.102   1.974  14.444
78465W        W79330  13.096   0.955  12.158
78466W        W79331  13.301   2.365  13.280
78467W        W79332  11.455   2.970  13.715
78468W        W79333  12.046   2.953  14.438
78469W        W79334  11.897   0.750  11.452
78470W        W79335  13.414   0.892  11.777
78471W        W79336  13.372   3.000  14.014
78472W        W79337  12.057   1.592  12.613
78473W        W79338  11.712   3.290  13.478
78474W        W79339  14.457   3.407  11.079
78475W        W79340  11.320   2.079  14.075
78476W        W79341  13.315   2.341  12.763
78477W        W79342  11.751   1.990  12.005
78478W        W79343  12.122   2.997  13.400
78479W        W79344  12.500   0.416  12.441
78480W        W79345  11.111   2.400  11.371
78481W        W79346  12.630   1.351  11.241
78482W        W79347  11.276   1.900  12.260
78483W        W79348  12.566   0.542  13.724
78484W        W79349  14.238   0.251  11.151
78485W        W79350  14.331   1.997  14.250
78486W        W79351  12.985   3.254  14.402
78487W        W79352  14.543   2.348  13.924
78488W        W79353  13.951   3.146  14.535
78489W        W79354  11.690   3.602  13.013
78490W        W79355  14.549   2.224  11.887
78491W        W79356  13.079   1.491  12.400
78492W        W79357  12.846   0.103  12.290
78493W        W79358  11.905   3.087  12.127
78494W        W79359  12.404   0.828  13.352
78495W        W79360  12.104   0.197  12.821
78496W        W79361  11.167   3.019  11.369
78497W        W79362  12.983   2.383  12.087
78498W        W79363  11.858   3.178  13.966
78499W        W79364  11.335   2.001  11.662
78500W        W79365  11.220   0.544  12.661
78501W        W79366  12.768   2.509  12.718
78502W        W79367  11.020   0.363  11.738
78503W        W79368  13.684   1.569  13.665
78504W        W79369  13.561   0.955  11.237
78505W        W79370  14.078   2.627  12.885
78506W        W79371  12.739   3.111  12.716
78507W        W79372  12.151   3.215  11.627
78508W        W79373  13.433   0.118  11.057
78509W        W79374  11.233   3.378  12.798
78510W        W79375  13.430   1.136  14.433
78511W        W79376  11.413   0.666  14.432
78512W        W79377  11.144   1.266  11.765
78513W        W79378  11.835   1.255  11.490
78514W        W79379  13.598   1.582  14.307
78515W        W79380  11.941   1.863  13.016
78516W        W79381  13.415   0.149  12.136
78517W        W79382  12.546   3.580  12.639
78518W        W79383  13.760   3.042  13.576
78519W        W79384  13.344   3.191  12.687
78520W        W79385  13.363   2.171  12.281
78521W        W79386  12.825   0.396  11.352
78522W        W79387  14.506   0.024  12.074
78523W        W79388  12.194   1.659  11.237
78524W        W79389  14.360   0.996  12.227
78525W        W79390  13.052   2.166  11.104
78526W        W79391  13.988   2.366  13.852
78527W        W79392  13.642   3.067  11.319
78528W        W79393  12.257   0.742  14.225
78529W        W79394  12.077   1.326  13.466
78530W        W79395  14.169   2.821  13.743
78531W        W79396  13.269   0.771  14.120
78532W        W79397  11.113   1.242  13.897
78533W        W79398  12.873   1.719  13.623
78534W        W79399  11.230   2.477  12.280
78535W        W79400  11.377   1.774  13.170
78536W        W79401  13.694   2.060  13.520
78537W        W79402  13.466   3.440  14.331
78538W        W79403  13.362   1.179  13.884
78539W        W79404  13.639   3.233  12.289
78540W        W79405  12.641   2.953  13.612
78541W        W79406  12.126   3.308  12.881
78542W        W79407  13.931   2.479  13.300
78543W        W79408  12.981   2.551  14.437
78544W        W79409  11.586   2.504  12.776
78545W        W79410  13.932   2.263  12.421
78546W        W79411  13.573   3.329  13.172
78547W        W79412  11.551   3.058  13.042
78548W        W79413  12.572   1.110  14.252
78549W        W79414  13.023   3.276  11.763
78550W        W79415  12.331   2.531  14.401
78551W        W79416  12.457   2.769  11.778
78552W        W79417  11.678   1.509  11.037
78553W        W79418  11.017   3.595  17.936
78554W        W79419  11.393   2.488  17.459
78555W        W79420  14.098   2.218  15.229
78556W        W79421  14.228   3.303  17.256
78557W        W79422  12.146   3.294  14.782
78558W        W79423  12.229   1.446  15.765
78559W        W79424  11.744   1.294  15.929
78560W        W79425  12.735   2.109  15.363
78561W        W79426  12.410   3.201  17.718
78562W        W79427  11.059   0.762  17.681
78563W        W79428  11.821   0.042  17.483
78564W        W79429  13.515   0.430  16.370
78565W        W79430  13.164   1.301  14.940
78566W        W79431  13.734   0.735  18.031
78567W        W79432  11.100   0.527  17.156
78568W        W79433  11.199   3.146  18.177
78569W        W79434  12.721   2.536  14.909
78570W        W79435  11.153   1.319  16.602
78571W        W79436  12.046   1.210  17.839
78572W        W79437  14.505   1.069  16.338
78573W        W79438  14.269   2.112  17.197
78574W        W79439  12.577   1.445  16.224
78575W        W79440  13.123   2.784  16.593
78576W        W79441  11.623   2.218  16.825
78577W        W79442  10.982   1.746  16.396
78578W        W79443  12.018   1.718  17.588
78579W        W79444  14.289   1.501  17.842
78580W        W79445  11.905   2.945  16.287
78581W        W79446  13.026   2.634  17.421
78582W        W79447  12.246   1.274  16.646
78583W        W79448  12.538   2.058  16.289
78584W        W79449  13.535   2.831  18.137
78585W        W79450  12.614   2.151  18.147
78586W        W79451  12.595   1.867  17.625
78587W        W79452  11.004   1.258  18.147
78588W        W79453  13.836   2.793  17.746
78589W        W79454  11.417   0.375  15.744
78590W        W79455  11.944   2.633  16.743
78591W        W79456  14.407   2.416  16.033
78592W        W79457  13.820   0.816  16.600
78593W        W79458  14.105   0.769  14.695
78594W        W79459  14.570   1.570  17.001
78595W        W79460  12.537   3.277  16.754
78596W        W79461  14.311   2.743  15.192
78597W        W79462  11.440   3.529  14.946
78598W        W79463  11.833   3.575  15.622
78599W        W79464  11.630   0.329  17.048
78600W        W79465  14.253   1.347  17.323
78601W        W79466  13.658   1.769  15.782
78602W        W79467  13.624   1.457  14.809
78603W        W79468  12.832   2.601  16.949
78604W        W79469  12.638   0.931  16.148
78605W        W79470  13.238   3.018  17.142
78606W        W79471  14.109   1.809  15.564
78607W        W79472  13.011   0.467  15.580
78608W        W79473  11.668   3.161  15.263
78609W        W79474  11.039   0.660  15.862
78610W        W79475  13.825   1.267  16.336
78611W        W79476  11.283   2.884  16.251
78612W        W79477  12.624   3.234  15.121
78613W        W79478  14.016   1.260  14.585
78614W        W79479  11.039   3.018  16.749
78615W        W79480  11.830   2.590  17.229
78616W        W79481  12.203   1.950  15.848
78617W        W79482  12.225   0.355  16.941
78618W        W79483  14.454   0.117  16.238
78619W        W79484  11.673   1.989  14.706
78620W        W79485  11.328   1.022  14.885
78621W        W79486  11.390   2.978  15.679
78622W        W79487  12.521   2.461  15.927
78623W        W79488  13.853   3.320  17.641
78624W        W79489  12.779   0.962  15.325
78625W        W79490  14.162   3.360  16.097
78626W        W79491  13.839   1.213  17.695
78627W        W79492  14.552   2.869  15.829
78628W        W79493  13.179   2.161  17.313
78629W        W79494  10.945   1.712  15.519
78630W        W79495  12.056   2.127  17.092
78631W        W79496  13.260   1.391  15.470
78632W        W79497  13.137   1.881  15.574
78633W        W79498  11.480   1.301  17.048
78634W        W79499  11.465   1.177  17.970
78635W        W79500  11.355   0.094  16.129
78636W        W79501  13.123   0.441  16.690
78637W        W79502  12.771   0.626  17.853
78638W        W79503  13.126   0.775  15.031
78639W        W79504  14.309   3.168  17.785
78640W        W79505  13.276   0.249  17.824
78641W        W79506  14.295   2.550  17.946
78642W        W79507  13.725   0.717  17.542
78643W        W79508  13.525   0.655  15.812
78644W        W79509  13.918   1.789  18.216
78645W        W79510  11.658   3.365  16.202
78646W        W79511  12.316   1.082  15.188
78647W        W79512  11.885   0.366  17.852
78648W        W79513  13.937   0.850  15.533
78649W        W79514  14.304   1.332  15.478
78650W        W79515  12.047   3.549  17.949
78651W        W79516  11.973   0.085  15.184
78652W        W79517  14.294   0.619  16.219
78653W        W79518  14.444   2.868  14.664
78654W        W79519  11.351   2.071  16.366
78655W        W79520  13.268   0.658  14.596
78656W        W79521  14.402   2.990  16.316
78657W        W79522  14.441   0.184  17.066
78658W        W79523  12.886   1.396  17.620
78659W        W79524  12.979   2.735  15.323
78660W        W79525  13.379   2.029  18.063
78661W        W79526  13.053   0.006  16.372
78662W        W79527  11.665   0.909  16.435
78663W        W79528  11.219   2.109  17.209
78664W        W79529  13.078   3.302  15.915
78665W        W79530  14.272   0.899  16.787
78666W        W79531  12.909   3.246  17.554
78667W        W79532  14.252   2.305  14.759
78668W        W79533  12.687   1.788  15.820
78669W        W79534  14.539   0.299  17.561
78670W        W79535  12.688   2.134  17.155
78671W        W79536  12.905   1.020  16.600
78672W        W79537  13.757   1.318  15.438
78673W        W79538  14.044   1.051  15.080
78674W        W79539  13.853   3.091  15.469
78675W        W79540  13.687   2.694  16.265
78676W        W79541  13.583   1.773  15.243
78677W        W79542  13.016   1.983  16.229
78678W        W79543  13.897   1.771  16.296
78679W        W79544  11.272   0.786  16.720
78680W        W79545  14.050   1.838  17.547
78681W        W79546  14.401   3.456  16.693
78682W        W79547  12.331   2.900  16.095
78683W        W79548  13.338   3.433  17.419
78684W        W79549  13.332   0.763  17.183
78685W        W79550  12.539   3.471  17.244
78686W        W79551  14.236   0.425  15.710
78687W        W79552  14.027   1.744  17.011
78688W        W79553  11.010   1.065  17.049
78689W        W79554  13.870   0.860  16.067
78690W        W79555  14.281   1.011  17.844
78691W        W79556  13.166   2.710  16.062
78692W        W79557  12.422   3.301  15.675
78693W        W79558  11.537   0.481  14.933
78694W        W79559  12.641   0.135  16.743
78695W        W79560  11.669   3.255  14.591
78696W        W79561  12.043   1.721  15.342
78697W        W79562  12.697   2.350  17.655
78698W        W79563  12.527   0.708  15.645
78699W        W79564  13.883   0.305  16.073
78700W        W79565  13.603   3.587  16.401
78701W        W79566  13.015   3.235  16.741
78702W        W79567  12.411   2.272  16.702
78703W        W79568  14.181   2.995  16.828
78704W        W79569  11.875   0.498  15.597
78705W        W79570  12.397   2.795  16.557
78706W        W79571  11.880   0.726  14.622
78707W        W79572  12.681   1.335  17.016
78708W        W79573  13.529   0.201  16.886
78709W        W79574  10.949   2.044  16.771
78710W        W79575  12.653   1.862  14.929
78711W        W79576  11.921   0.177  14.699
78712W        W79577  12.659   1.258  15.750
78713W        W79578  13.629   0.234  17.449
78714W        W79579  12.217   2.246  17.558
78715W        W79580  13.021   2.028  17.775
78716W        W79581  13.638   2.058  17.668
78717W        W79582  12.922   0.198  18.173
78718W        W79583  12.144   0.814  16.566
78719W        W79584  11.570   0.770  15.964
78720W        W79585  11.356   3.482  15.640
78721W        W79586  12.688   2.812  17.765
78722W        W79587  11.723   2.297  15.124
78723W        W79588  13.403   1.682  16.345
78724W        W79589  13.683   1.481  16.744
78725W        W79590  12.888   2.155  16.678
78726W        W79591  13.358   2.529  14.810
78727W        W79592  13.030   0.550  16.138
78728W        W79593  14.509   0.828  15.406
78729W        W79594  11.003   3.417  17.437
78730W        W79595  11.420   2.643  16.969
78731W        W79596  10.987   3.489  15.201
78732W        W79597  12.886   0.759  17.007
78733W        W79598  12.249   2.782  14.856
78734W        W79599  14.154   3.164  15.042
78735W        W79600  13.129   1.817  15.056
78736W        W79601  11.972   1.008  15.573
78737W        W79602  12.804   0.918  14.625
78738W        W79603  13.388   2.483  17.803
78739W        W79604  13.741   0.389  15.420
78740W        W79605  11.071   0.237  14.868
78741W        W79606  12.357   2.556  17.158
78742W        W79607  12.156   2.472  16.250
78743W        W79608  11.898   2.424  14.648
78744W        W79609  11.139   2.665  15.416
78745W        W79610  11.643   1.735  17.858
78746W        W79611  12.347   0.295  18.044
78747W        W79612  13.056   0.437  17.400
78748W        W79613  12.251   0.205  15.681
78749W        W79614  13.310   0.282  15.186
78750W        W79615  11.255   0.214  16.763
78751W        W79616  11.303   1.177  16.133
78752W        W79617  13.992   0.285  16.539
78753W        W79618  11.414   0.783  15.353
78754W        W79619  13.985   0.471  16.969
78755W        W79620  14.381   1.674  14.654
78756W        W79621  11.673   0.432  16.473
78757W        W79622  12.787   1.004  17.413
78758W        W79623  10.935   0.694  14.891
78759W        W79624  11.721   2.083  17.452
78760W        W79625  13.079   1.481  16.631
78761W        W79626  12.946   3.560  14.927
78762W        W79627  11.092   2.067  14.624
78763W        W79628  11.827   2.478  17.750
78764W        W79629  11.348   1.645  17.381
78765W        W79630  12.339   1.750  17.175
78766W        W79631  14.107   0.109  17.437
78767W        W79632  14.505   1.719  17.428
78768W        W79633  14.493   1.919  15.114
78769W        W79634  13.356   2.251  15.213
78770W        W79635  13.830   3.551  14.908
78771W        W79636  13.007   1.541  18.050
78772W        W79637  11.337   2.508  18.090
78773W        W79638  14.543   0.430  18.042
78774W        W79639  14.261   1.358  16.663
78775W        W79640  12.569   3.488  18.140
78776W        W79641  12.424   0.117  14.867
78777W        W79642  13.963   2.716  14.810
78778W        W79643  11.732   0.809  17.696
78779W        W79644  12.166   2.803  17.558
78780W        W79645  14.292   0.794  17.356
78781W        W79646  13.503   3.453  15.324
78782W        W79647  13.742   2.072  16.691
78783W        W79648  11.992   0.488  17.358
78784W        W79649  12.461   1.557  18.115
78785W        W79650  11.964   2.736  15.309
78786W        W79651  13.719   2.234  15.573
78787W        W79652  11.487   0.860  17.297
78788W        W79653  12.816   2.922  15.761
78789W        W79654  14.566   1.482  15.942
78790W        W79655  12.788   0.115  17.661
78791W        W79656  13.568   2.820  16.740
78792W        W79657  13.871   3.164  16.448
78793W        W79658  13.090   2.966  14.876
78794W        W79659  11.100   2.858  17.718
78795W        W79660  11.843   0.850  16.956
78796W        W79661  11.813   0.198  16.066
78797W        W79662  13.434   1.040  16.758
78798W        W79663  12.232   2.211  14.958
78799W        W79664  14.230   2.153  16.457
78800W        W79665  11.557   2.911  17.880
78801W        W79666  13.944   3.593  15.677
78802W        W79667  12.043   0.613  16.122
78803W        W79668  11.812   2.106  16.212
78804W        W79669  12.125   3.517  16.962
78805W        W79670  14.192   3.613  17.994
78806W        W79671  13.351   1.801  16.927
78807W        W79672  11.200   1.599  14.842
78808W        W79673  14.334   3.257  15.539
78809W        W79674  14.171   0.581  15.158
78810W        W79675  12.310   0.100  17.561
78811W        W79676  14.016   2.902  16.019
78812W        W79677  14.045   1.458  15.924
78813W        W79678  12.162   1.131  16.140
78814W        W79679  12.407   1.393  17.464
78815W        W79680  13.518   2.546  17.327
78816W        W79681  12.168   1.000  17.439
78817W        W79682  12.147   3.466  16.055
78818W        W79683  11.464   3.425  17.689
78819W        W79684  11.576   2.786  14.819
78820W        W79685  14.093   2.544  15.629
78821W        W79686  11.697   1.336  17.515
78822W        W79687  14.470   1.266  14.996
78823W        W79688  12.215   2.323  15.467
78824W        W79689  13.314   1.705  17.548
78825W        W79690  13.205   1.333  17.092
78826W        W79691  11.765   1.705  17.121
78827W        W79692  13.975   3.593  16.950
78828W        W79693  13.766   0.227  17.944
78829W        W79694  11.430   0.377  17.531
78830W        W79695  11.769   1.400  16.584
78831W        W79696  12.138   1.214  14.706
78832W        W79697  10.941   2.973  17.251
78833W        W79698  12.526   1.682  16.694
78834W        W79699  12.349   0.707  14.799
78835W        W79700  11.484   1.523  15.580
78836W        W79701  11.255   3.375  17.017
78837W        W79702  14.050   1.601  15.125
78838W        W79703  14.145   0.517  17.811
78839W        W79704  13.581   2.726  15.774
78840W        W79705  11.179   1.650  17.951
78841W        W79706  14.145   0.114  15.247
78842W        W79707  13.665   2.589  15.258
78843W        W79708  12.567   1.647  15.343
78844W        W79709  13.754   0.451  14.866
78845W        W79710  13.819   1.058  17.052
78846W        W79711  11.528   1.651  16.259
78847W        W79712  11.822   2.590  15.908
78848W        W79713  13.585   1.210  15.873
78849W        W79714  12.608   0.589  16.569
78850W        W79715  14.570   2.500  17.080
78851W        W79716  14.488   0.487  16.641
78852W        W79717  11.027   3.317  16.017
78853W        W79718  11.536   2.504  15.553
78854W        W79719  11.451   0.121  18.106
78855W        W79720  12.570   2.974  18.208
78856W        W79721  14.325   1.942  15.998
78857W        W79722  13.679   2.119  14.878
78858W        W79723  12.974   3.640  17.090
78859W        W79724  13.831   2.362  18.127
78860W        W79725  12.646   0.072  15.407
78861W        W79726  13.359   0.941  16.266
78862W        W79727  11.045   2.528  16.598
78863W        W79728  12.298   0.490  15.239
78864W        W79729  12.102   1.974  18.088
78865W        W79730  13.096   0.955  15.802
78866W        W79731  13.301   2.365  16.924
78867W        W79732  11.455   2.970  17.359
78868W        W79733  12.046   2.953  18.082
78869W        W79734  11.897   0.750  15.096
78870W        W79735  13.414   0.892  15.421
78871W        W79736  13.372   3.000  17.658
78872W        W79737  12.057   1.592  16.257
78873W        W79738  11.712   3.290  17.122
78874W        W79739  14.457   3.407  14.723
78875W        W79740  11.320   2.079  17.719
78876W        W79741  13.315   2.341  16.407
78877W        W79742  11.751   1.990  15.649
78878W        W79743  12.122   2.997  17.044
78879W        W79744  12.500   0.416  16.085
78880W        W79745  11.111   2.400  15.015
78881W        W79746  12.630   1.351  14.885
78882W        W79747  11.276   1.900  15.904
78883W        W79748  12.566   0.542  17.368
78884W        W79749  14.238   0.251  14.795
78885W        W79750  14.331   1.997  17.894
78886W        W79751  12.985   3.254  18.046
78887W        W79752  14.543   2.348  17.568
78888W        W79753  13.951   3.146  18.179
78889W        W79754  11.690   3.602  16.657
78890W        W79755  14.549   2.224  15.531
78891W        W79756  13.079   1.491  16.044
78892W        W79757  12.846   0.103  15.934
78893W        W79758  11.905   3.087  15.771
78894W        W79759  12.404   0.828  16.996
78895W        W79760  12.104   0.197  16.465
78896W        W79761  11.167   3.019  15.013
78897W        W79762  12.983   2.383  15.731
78898W        W79763  11.858   3.178  17.610
78899W        W79764  11.335   2.001  15.306
78900W        W79765  11.220   0.544  16.305
78901W        W79766  12.768   2.509  16.362
78902W        W79767  11.020   0.363  15.382
78903W        W79768  13.684   1.569  17.309
78904W        W79769  13.561   0.955  14.881
78905W        W79770  14.078   2.627  16.529
78906W        W79771  12.739   3.111  16.360
78907W        W79772  12.151   3.215  15.271
78908W        W79773  13.433   0.118  14.701
78909W        W79774  11.233   3.378  16.442
78910W        W79775  13.430   1.136  18.077
78911W        W79776  11.413   0.666  18.076
78912W        W79777  11.144   1.266  15.409
78913W        W79778  11.835   1.255  15.134
78914W        W79779  13.598   1.582  17.951
78915W        W79780  11.941   1.863  16.660
78916W        W79781  13.415   0.149  15.780
78917W        W79782  12.546   3.580  16.283
78918W        W79783  13.760   3.042  17.220
78919W        W79784  13.344   3.191  16.331
78920W        W79785  13.363   2.171  15.925
78921W        W79786  12.825   0.396  14.996
78922W        W79787  14.506   0.024  15.718
78923W        W79788  12.194   1.659  14.881
78924W        W79789  14.360   0.996  15.871
78925W        W79790  13.052   2.166  14.748
78926W        W79791  13.988   2.366  17.496
78927W        W79792  13.642   3.067  14.963
78928W        W79793  12.257   0.742  17.869
78929W        W79794  12.077   1.326  17.110
78930W        W79795  14.169   2.821  17.387
78931W        W79796  13.269   0.771  17.764
78932W        W79797  11.113   1.242  17.541
78933W        W79798  12.873   1.719  17.267
78934W        W79799  11.230   2.477  15.924
78935W        W79800  11.377   1.774  16.814
78936W        W79801  13.694   2.060  17.164
78937W        W79802  13.466   3.440  17.975
78938W        W79803  13.362   1.179  17.528
78939W        W79804  13.639   3.233  15.933
78940W        W79805  12.641   2.953  17.256
78941W        W79806  12.126   3.308  16.525
78942W        W79807  13.931   2.479  16.944
78943W        W79808  12.981   2.551  18.081
78944W        W79809  11.586   2.504  16.420
78945W        W79810  13.932   2.263  16.065
78946W        W79811  13.573   3.329  16.816
78947W        W79812  11.551   3.058  16.686
78948W        W79813  12.572   1.110  17.896
78949W        W79814  13.023   3.276  15.407
78950W        W79815  12.331   2.531  18.045
78951W        W79816  12.457   2.769  15.422
78952W        W79817  11.678   1.509  14.681
78953W        W79818  11.017   3.595  21.580
78954W        W79819  11.393   2.488  21.103
78955W        W79820  14.098   2.218  18.873
78956W        W79821  14.228   3.303  20.900
78957W        W79822  12.146   3.294  18.426
78958W        W79823  12.229   1.446  19.409
78959W        W79824  12.735   2.109  19.007
78960W        W79825  12.410   3.201  21.362
78961W        W79826  11.059   0.762  21.325
78962W        W79827  11.821   0.042  21.127
78963W        W79828  13.515   0.430  20.014
78964W        W79829  13.164   1.301  18.584
78965W        W79830  13.734   0.735  21.675
78966W        W79831  11.100   0.527  20.800
78967W        W79832  11.199   3.146  21.821
78968W        W79833  12.721   2.536  18.553
78969W        W79834  11.153   1.319  20.246
78970W        W79835  12.046   1.210  21.483
78971W        W79836  14.505   1.069  19.982
78972W        W79837  14.269   2.112  20.841
78973W        W79838  12.577   1.445  19.868
78974W        W79839  13.123   2.784  20.237
78975W        W79840  11.623   2.218  20.469
78976W        W79841  10.982   1.746  20.040
78977W        W79842  12.018   1.718  21.232
78978W        W79843  14.289   1.501  21.486
78979W        W79844  11.905   2.945  19.931
78980W        W79845  13.026   2.634  21.065
78981W        W79846  12.246   1.274  20.290
78982W        W79847  12.538   2.058  19.933
78983W        W79848  13.535   2.831  21.781
78984W        W79849  12.614   2.151  21.791
78985W        W79850  12.595   1.867  21.269
78986W        W79851  11.004   1.258  21.791
78987W        W79852  13.836   2.793  21.390
78988W        W79853  11.417   0.375  19.388
78989W        W79854  11.944   2.633  20.387
78990W        W79855  14.407   2.416  19.677
78991W        W79856  13.820   0.816  20.244
78992W        W79857  14.105   0.769  18.339
78993W        W79858  14.570   1.570  20.645
78994W        W79859  12.537   3.277  20.398
78995W        W79860  14.311   2.743  18.836
78996W        W79861  11.440   3.529  18.590
78997W        W79862  11.833   3.575  19.266
78998W        W79863  11.630   0.329  20.692
78999W        W79864  14.253   1.347  20.967
79000W        W79865  13.658   1.769  19.426
79001W        W79866  13.624   1.457  18.453
79002W        W79867  12.832   2.601  20.593
79003W        W79868  12.638   0.931  19.792
79004W        W79869  13.238   3.018  20.786
79005W        W79870  14.109   1.809  19.208
79006W        W79871  13.011   0.467  19.224
79007W        W79872  11.668   3.161  18.907
79008W        W79873  11.039   0.660  19.506
79009W        W79874  13.825   1.267  19.980
79010W        W79875  11.283   2.884  19.895
79011W        W79876  12.624   3.234  18.765
79012W        W79877  14.016   1.260  18.229
79013W        W79878  11.039   3.018  20.393
79014W        W79879  11.830   2.590  20.873
79015W        W79880  12.203   1.950  19.492
79016W        W79881  12.225   0.355  20.585
79017W        W79882  14.454   0.117  19.882
79018W        W79883  11.673   1.989  18.350
79019W        W79884  11.328   1.022  18.529
79020W        W79885  11.390   2.978  19.323
79021W        W79886  12.521   2.461  19.571
79022W        W79887  13.853   3.320  21.285
79023W        W79888  12.779   0.962  18.969
79024W        W79889  14.162   3.360  19.741
79025W        W79890  13.839   1.213  21.339
79026W        W79891  14.552   2.869  19.473
79027W        W79892  13.179   2.161  20.957
79028W        W79893  10.945   1.712  19.163
79029W        W79894  12.056   2.127  20.736
79030W        W79895  13.260   1.391  19.114
79031W        W79896  13.137   1.881  19.218
79032W        W79897  11.480   1.301  20.692
79033W        W79898  11.465   1.177  21.614
79034W        W79899  11.355   0.094  19.773
79035W        W79900  13.123   0.441  20.334
79036W        W79901  12.771   0.626  21.497
79037W        W79902  13.126   0.775  18.675
79038W        W79903  14.309   3.168  21.429
79039W        W79904  13.276   0.249  21.468
79040W        W79905  14.295   2.550  21.590
79041W        W79906  13.725   0.717  21.186
79042W        W79907  13.525   0.655  19.456
79043W        W79908  13.918   1.789  21.860
79044W        W79909  11.658   3.365  19.846
79045W        W79910  12.316   1.082  18.832
79046W        W79911  11.885   0.366  21.496
79047W        W79912  13.937   0.850  19.177
79048W        W79913  14.304   1.332  19.122
79049W        W79914  12.047   3.549  21.593
79050W        W79915  11.973   0.085  18.828
79051W        W79916  14.294   0.619  19.863
79052W        W79917  14.444   2.868  18.308
79053W        W79918  11.351   2.071  20.010
79054W        W79919  13.268   0.658  18.240
79055W        W79920  14.402   2.990  19.960
79056W        W79921  14.441   0.184  20.710
79057W        W79922  12.886   1.396  21.264
79058W        W79923  12.979   2.735  18.967
79059W        W79924  13.379   2.029  21.707
79060W        W79925  13.053   0.006  20.016
79061W        W79926  11.665   0.909  20.079
79062W        W79927  11.219   2.109  20.853
79063W        W79928  13.078   3.302  19.559
79064W        W79929  14.272   0.899  20.431
79065W        W79930  12.909   3.246  21.198
79066W        W79931  14.252   2.305  18.403
79067W        W79932  12.687   1.788  19.464
79068W        W79933  14.539   0.299  21.205
79069W        W79934  12.688   2.134  20.799
79070W        W79935  12.905   1.020  20.244
79071W        W79936  13.757   1.318  19.082
79072W        W79937  14.044   1.051  18.724
79073W        W79938  13.853   3.091  19.113
79074W        W79939  13.687   2.694  19.909
79075W        W79940  13.583   1.773  18.887
79076W        W79941  13.016   1.983  19.873
79077W        W79942  13.897   1.771  19.940
79078W        W79943  11.272   0.786  20.364
79079W        W79944  14.050   1.838  21.191
79080W        W79945  14.401   3.456  20.337
79081W        W79946  12.331   2.900  19.739
79082W        W79947  13.338   3.433  21.063
79083W        W79948  13.332   0.763  20.827
79084W        W79949  12.539   3.471  20.888
79085W        W79950  14.236   0.425  19.354
79086W        W79951  14.027   1.744  20.655
79087W        W79952  11.010   1.065  20.693
79088W        W79953  13.870   0.860  19.711
79089W        W79954  14.281   1.011  21.488
79090W        W79955  13.166   2.710  19.706
79091W        W79956  12.422   3.301  19.319
79092W        W79957  11.537   0.481  18.577
79093W        W79958  12.641   0.135  20.387
79094W        W79959  11.669   3.255  18.235
79095W        W79960  12.043   1.721  18.986
79096W        W79961  12.697   2.350  21.299
79097W        W79962  12.527   0.708  19.289
79098W        W79963  13.883   0.305  19.717
79099W        W79964  13.603   3.587  20.045
79100W        W79965  13.015   3.235  20.385
79101W        W79966  12.411   2.272  20.346
79102W        W79967  14.181   2.995  20.472
79103W        W79968  11.875   0.498  19.241
79104W        W79969  12.397   2.795  20.201
79105W        W79970  11.880   0.726  18.266
79106W        W79971  12.681   1.335  20.660
79107W        W79972  13.529   0.201  20.530
79108W        W79973  10.949   2.044  20.415
79109W        W79974  12.653   1.862  18.573
79110W        W79975  11.921   0.177  18.343
79111W        W79976  12.659   1.258  19.394
79112W        W79977  13.629   0.234  21.093
79113W        W79978  12.217   2.246  21.202
79114W        W79979  13.021   2.028  21.419
79115W        W79980  13.638   2.058  21.312
79116W        W79981  12.922   0.198  21.817
79117W        W79982  12.144   0.814  20.210
79118W        W79983  11.570   0.770  19.608
79119W        W79984  11.356   3.482  19.284
79120W        W79985  12.688   2.812  21.409
79121W        W79986  11.723   2.297  18.768
79122W        W79987  13.403   1.682  19.989
79123W        W79988  13.683   1.481  20.388
79124W        W79989  12.888   2.155  20.322
79125W        W79990  13.358   2.529  18.454
79126W        W79991  13.030   0.550  19.782
79127W        W79992  14.509   0.828  19.050
79128W        W79993  11.003   3.417  21.081
79129W        W79994  11.420   2.643  20.613
79130W        W79995  10.987   3.489  18.845
79131W        W79996  12.886   0.759  20.651
79132W        W79997  12.249   2.782  18.500
79133W        W79998  14.154   3.164  18.686
79134W        W79999  13.129   1.817  18.700
79135W        W80000  11.972   1.008  19.217
79136W        W80001  12.804   0.918  18.269
79137W        W80002  13.388   2.483  21.447
79138W        W80003  13.741   0.389  19.064
79139W        W80004  11.071   0.237  18.512
79140W        W80005  12.357   2.556  20.802
79141W        W80006  12.156   2.472  19.894
79142W        W80007  11.898   2.424  18.292
79143W        W80008  11.139   2.665  19.060
79144W        W80009  11.643   1.735  21.502
79145W        W80010  12.347   0.295  21.688
79146W        W80011  13.056   0.437  21.044
79147W        W80012  12.251   0.205  19.325
79148W        W80013  13.310   0.282  18.830
79149W        W80014  11.255   0.214  20.407
79150W        W80015  11.303   1.177  19.777
79151W        W80016  13.992   0.285  20.183
79152W        W80017  11.414   0.783  18.997
79153W        W80018  13.985   0.471  20.613
79154W        W80019  14.381   1.674  18.298
79155W        W80020  11.673   0.432  20.117
79156W        W80021  12.787   1.004  21.057
79157W        W80022  10.935   0.694  18.535
79158W        W80023  11.721   2.083  21.096
79159W        W80024  13.079   1.481  20.275
79160W        W80025  12.946   3.560  18.571
79161W        W80026  11.092   2.067  18.268
79162W        W80027  11.827   2.478  21.394
79163W        W80028  11.348   1.645  21.025
79164W        W80029  12.339   1.750  20.819
79165W        W80030  14.107   0.109  21.081
79166W        W80031  14.505   1.719  21.072
79167W        W80032  14.493   1.919  18.758
79168W        W80033  13.356   2.251  18.857
79169W        W80034  13.830   3.551  18.552
79170W        W80035  13.007   1.541  21.694
79171W        W80036  11.337   2.508  21.734
79172W        W80037  14.543   0.430  21.686
79173W        W80038  14.261   1.358  20.307
79174W        W80039  12.569   3.488  21.784
79175W        W80040  12.424   0.117  18.511
79176W        W80041  13.963   2.716  18.454
79177W        W80042  11.732   0.809  21.340
79178W        W80043  12.166   2.803  21.202
79179W        W80044  14.292   0.794  21.000
79180W        W80045  13.503   3.453  18.968
79181W        W80046  13.742   2.072  20.335
79182W        W80047  11.992   0.488  21.002
79183W        W80048  12.461   1.557  21.759
79184W        W80049  11.964   2.736  18.953
79185W        W80050  13.719   2.234  19.217
79186W        W80051  11.487   0.860  20.941
79187W        W80052  12.816   2.922  19.405
79188W        W80053  14.566   1.482  19.586
79189W        W80054  12.788   0.115  21.305
79190W        W80055  13.568   2.820  20.384
79191W        W80056  13.871   3.164  20.092
79192W        W80057  13.090   2.966  18.520
79193W        W80058  11.100   2.858  21.362
79194W        W80059  11.843   0.850  20.600
79195W        W80060  11.813   0.198  19.710
79196W        W80061  13.434   1.040  20.402
79197W        W80062  12.232   2.211  18.602
79198W        W80063  14.230   2.153  20.101
79199W        W80064  11.557   2.911  21.524
79200W        W80065  13.944   3.593  19.321
79201W        W80066  12.043   0.613  19.766
79202W        W80067  11.812   2.106  19.856
79203W        W80068  12.125   3.517  20.606
79204W        W80069  14.192   3.613  21.638
79205W        W80070  13.351   1.801  20.571
79206W        W80071  11.200   1.599  18.486
79207W        W80072  14.334   3.257  19.183
79208W        W80073  14.171   0.581  18.802
79209W        W80074  12.310   0.100  21.205
79210W        W80075  14.016   2.902  19.663
79211W        W80076  14.045   1.458  19.568
79212W        W80077  12.162   1.131  19.784
79213W        W80078  12.407   1.393  21.108
79214W        W80079  13.518   2.546  20.971
79215W        W80080  12.168   1.000  21.083
79216W        W80081  12.147   3.466  19.699
79217W        W80082  11.464   3.425  21.333
79218W        W80083  11.576   2.786  18.463
79219W        W80084  14.093   2.544  19.273
79220W        W80085  11.697   1.336  21.159
79221W        W80086  14.470   1.266  18.640
79222W        W80087  12.215   2.323  19.111
79223W        W80088  13.314   1.705  21.192
79224W        W80089  13.205   1.333  20.736
79225W        W80090  11.765   1.705  20.765
79226W        W80091  13.975   3.593  20.594
79227W        W80092  13.766   0.227  21.588
79228W        W80093  11.430   0.377  21.175
79229W        W80094  11.769   1.400  20.228
79230W        W80095  12.138   1.214  18.350
79231W        W80096  10.941   2.973  20.895
79232W        W80097  12.526   1.682  20.338
79233W        W80098  12.349   0.707  18.443
79234W        W80099  11.484   1.523  19.224
79235W        W80100  11.255   3.375  20.661
79236W        W80101  14.050   1.601  18.769
79237W        W80102  14.145   0.517  21.455
79238W        W80103  13.581   2.726  19.418
79239W        W80104  11.179   1.650  21.595
79240W        W80105  14.145   0.114  18.891
79241W        W80106  13.665   2.589  18.902
79242W        W80107  12.567   1.647  18.987
79243W        W80108  13.754   0.451  18.510
79244W        W80109  13.819   1.058  20.696
79245W        W80110  11.528   1.651  19.903
79246W        W80111  11.822   2.590  19.552
79247W        W80112  13.585   1.210  19.517
79248W        W80113  12.608   0.589  20.213
79249W        W80114  14.570   2.500  20.724
79250W        W80115  14.488   0.487  20.285
79251W        W80116  11.027   3.317  19.661
79252W        W80117  11.536   2.504  19.197
79253W        W80118  12.570   2.974  21.852
79254W        W80119  14.325   1.942  19.642
79255W        W80120  13.679   2.119  18.522
79256W        W80121  12.974   3.640  20.734
79257W        W80122  13.831   2.362  21.771
79258W        W80123  12.646   0.072  19.051
79259W        W80124  13.359   0.941  19.910
79260W        W80125  11.045   2.528  20.242
79261W        W80126  12.298   0.490  18.883
79262W        W80127  12.102   1.974  21.732
79263W        W80128  13.096   0.955  19.446
79264W        W80129  13.301   2.365  20.568
79265W        W80130  11.455   2.970  21.003
79266W        W80131  12.046   2.953  21.726
79267W        W80132  11.897   0.750  18.740
79268W        W80133  13.414   0.892  19.065
79269W        W80134  13.372   3.000  21.302
79270W        W80135  12.057   1.592  19.901
79271W        W80136  11.712   3.290  20.766
79272W        W80137  14.457   3.407  18.367
79273W        W80138  11.320   2.079  21.363
79274W        W80139  13.315   2.341  20.051
79275W        W80140  11.751   1.990  19.293
79276W        W80141  12.122   2.997  20.688
79277W        W80142  12.500   0.416  19.729
79278W        W80143  11.111   2.400  18.659
79279W        W80144  12.630   1.351  18.529
79280W        W80145  11.276   1.900  19.548
79281W        W80146  12.566   0.542  21.012
79282W        W80147  14.238   0.251  18.439
79283W        W80148  14.331   1.997  21.538
79284W        W80149  12.985   3.254  21.690
79285W        W80150  14.543   2.348  21.212
79286W        W80151  13.951   3.146  21.823
79287W        W80152  11.690   3.602  20.301
79288W        W80153  14.549   2.224  19.175
79289W        W80154  13.079   1.491  19.688
79290W        W80155  12.846   0.103  19.578
79291W        W80156  11.905   3.087  19.415
79292W        W80157  12.404   0.828  20.640
79293W        W80158  12.104   0.197  20.109
79294W        W80159  11.167   3.019  18.657
79295W        W80160  12.983   2.383  19.375
79296W        W80161  11.858   3.178  21.254
79297W        W80162  11.335   2.001  18.950
79298W        W80163  11.220   0.544  19.949
79299W        W80164  12.768   2.509  20.006
79300W        W80165  11.020   0.363  19.026
79301W        W80166  13.684   1.569  20.953
79302W        W80167  13.561   0.955  18.525
79303W        W80168  14.078   2.627  20.173
79304W        W80169  12.739   3.111  20.004
79305W        W80170  12.151   3.215  18.915
79306W        W80171  13.433   0.118  18.345
79307W        W80172  11.233   3.378  20.086
79308W        W80173  13.430   1.136  21.721
79309W        W80174  11.413   0.666  21.720
79310W        W80175  11.144   1.266  19.053
79311W        W80176  11.835   1.255  18.778
79312W        W80177  13.598   1.582  21.595
79313W        W80178  11.941   1.863  20.304
79314W        W80179  13.415   0.149  19.424
79315W        W80180  12.546   3.580  19.927
79316W        W80181  13.760   3.042  20.864
79317W        W80182  13.344   3.191  19.975
79318W        W80183  13.363   2.171  19.569
79319W        W80184  12.825   0.396  18.640
79320W        W80185  14.506   0.024  19.362
79321W        W80186  12.194   1.659  18.525
79322W        W80187  14.360   0.996  19.515
79323W        W80188  13.052   2.166  18.392
79324W        W80189  13.988   2.366  21.140
79325W        W80190  13.642   3.067  18.607
79326W        W80191  12.257   0.742  21.513
79327W        W80192  12.077   1.326  20.754
79328W        W80193  14.169   2.821  21.031
79329W        W80194  13.269   0.771  21.408
79330W        W80195  12.873   1.719  20.911
79331W        W80196  11.230   2.477  19.568
79332W        W80197  11.377   1.774  20.458
79333W        W80198  13.694   2.060  20.808
79334W        W80199  13.466   3.440  21.619
79335W        W80200  13.362   1.179  21.172
79336W        W80201  13.639   3.233  19.577
79337W        W80202  12.641   2.953  20.900
79338W        W80203  12.126   3.308  20.169
79339W        W80204  13.931   2.479  20.588
79340W        W80205  12.981   2.551  21.725
79341W        W80206  11.586   2.504  20.064
79342W        W80207  13.932   2.263  19.709
79343W        W80208  13.573   3.329  20.460
79344W        W80209  11.551   3.058  20.330
79345W        W80210  12.572   1.110  21.540
79346W        W80211  13.023   3.276  19.051
79347W        W80212  12.331   2.531  21.689
79348W        W80213  12.457   2.769  19.066
79349W        W80214  11.678   1.509  18.325
79350W        W80215  11.017   3.595  25.225
79351W        W80216  11.393   2.488  24.748
79352W        W80217  14.098   2.218  22.518
79353W        W80218  14.228   3.303  24.545
79354W        W80219  12.146   3.294  22.071
79355W        W80220  12.229   1.446  23.054
79356W        W80221  11.744   1.294  23.218
79357W        W80222  12.735   2.109  22.652
79358W        W80223  12.410   3.201  25.007
79359W        W80224  11.059   0.762  24.970
79360W        W80225  11.821   0.042  24.772
79361W        W80226  13.515   0.430  23.659
79362W        W80227  13.164   1.301  22.229
79363W        W80228  13.734   0.735  25.320
79364W        W80229  11.100   0.527  24.445
79365W        W80230  11.199   3.146  25.466
79366W        W80231  12.721   2.536  22.198
79367W        W80232  11.153   1.319  23.891
79368W        W80233  12.046   1.210  25.128
79369W        W80234  14.505   1.069  23.627
79370W        W80235  14.269   2.112  24.486
79371W        W80236  12.577   1.445  23.513
79372W        W80237  13.123   2.784  23.882
79373W        W80238  11.623   2.218  24.114
79374W        W80239  10.982   1.746  23.685
79375W        W80240  12.018   1.718  24.877
79376W        W80241  14.289   1.501  25.131
79377W        W80242  11.905   2.945  23.576
79378W        W80243  13.026   2.634  24.710
79379W        W80244  12.246   1.274  23.935
79380W        W80245  12.538   2.058  23.578
79381W        W80246  13.535   2.831  25.426
79382W        W80247  12.614   2.151  25.436
79383W        W80248  12.595   1.867  24.914
79384W        W80249  11.004   1.258  25.436
79385W        W80250  13.836   2.793  25.035
79386W        W80251  11.417   0.375  23.033
79387W        W80252  11.944   2.633  24.032
79388W        W80253  14.407   2.416  23.322
79389W        W80254  13.820   0.816  23.889
79390W        W80255  14.105   0.769  21.984
79391W        W80256  14.570   1.570  24.290
79392W        W80257  12.537   3.277  24.043
79393W        W80258  14.311   2.743  22.481
79394W        W80259  11.440   3.529  22.235
79395W        W80260  11.833   3.575  22.911
79396W        W80261  11.630   0.329  24.337
79397W        W80262  14.253   1.347  24.612
79398W        W80263  13.658   1.769  23.071
79399W        W80264  13.624   1.457  22.098
79400W        W80265  12.832   2.601  24.238
79401W        W80266  12.638   0.931  23.437
79402W        W80267  13.238   3.018  24.431
79403W        W80268  14.109   1.809  22.853
79404W        W80269  13.011   0.467  22.869
79405W        W80270  11.668   3.161  22.552
79406W        W80271  11.039   0.660  23.151
79407W        W80272  13.825   1.267  23.625
79408W        W80273  11.283   2.884  23.540
79409W        W80274  12.624   3.234  22.410
79410W        W80275  14.016   1.260  21.874
79411W        W80276  11.039   3.018  24.038
79412W        W80277  11.830   2.590  24.518
79413W        W80278  12.203   1.950  23.137
79414W        W80279  12.225   0.355  24.230
79415W        W80280  14.454   0.117  23.527
79416W        W80281  11.673   1.989  21.995
79417W        W80282  11.328   1.022  22.174
79418W        W80283  11.390   2.978  22.968
79419W        W80284  12.521   2.461  23.216
79420W        W80285  13.853   3.320  24.930
79421W        W80286  12.779   0.962  22.614
79422W        W80287  14.162   3.360  23.386
79423W        W80288  13.839   1.213  24.984
79424W        W80289  14.552   2.869  23.118
79425W        W80290  13.179   2.161  24.602
79426W        W80291  10.945   1.712  22.808
79427W        W80292  12.056   2.127  24.381
79428W        W80293  13.260   1.391  22.759
79429W        W80294  13.137   1.881  22.863
79430W        W80295  11.480   1.301  24.337
79431W        W80296  11.465   1.177  25.259
79432W        W80297  11.355   0.094  23.418
79433W        W80298  13.123   0.441  23.979
79434W        W80299  12.771   0.626  25.142
79435W        W80300  13.126   0.775  22.320
79436W        W80301  14.309   3.168  25.074
79437W        W80302  13.276   0.249  25.113
79438W        W80303  14.295   2.550  25.235
79439W        W80304  13.725   0.717  24.831
79440W        W80305  13.525   0.655  23.101
79441W        W80306  13.918   1.789  25.505
79442W        W80307  11.658   3.365  23.491
79443W        W80308  12.316   1.082  22.477
79444W        W80309  11.885   0.366  25.141
79445W        W80310  13.937   0.850  22.822
79446W        W80311  14.304   1.332  22.767
79447W        W80312  12.047   3.549  25.238
79448W        W80313  11.973   0.085  22.473
79449W        W80314  14.294   0.619  23.508
79450W        W80315  14.444   2.868  21.953
79451W        W80316  11.351   2.071  23.655
79452W        W80317  13.268   0.658  21.885
79453W        W80318  14.402   2.990  23.605
79454W        W80319  14.441   0.184  24.355
79455W        W80320  12.886   1.396  24.909
79456W        W80321  12.979   2.735  22.612
79457W        W80322  13.379   2.029  25.352
79458W        W80323  13.053   0.006  23.661
79459W        W80324  11.665   0.909  23.724
79460W        W80325  11.219   2.109  24.498
79461W        W80326  13.078   3.302  23.204
79462W        W80327  14.272   0.899  24.076
79463W        W80328  12.909   3.246  24.843
79464W        W80329  14.252   2.305  22.048
79465W        W80330  12.687   1.788  23.109
79466W        W80331  14.539   0.299  24.850
79467W        W80332  12.688   2.134  24.444
79468W        W80333  12.905   1.020  23.889
79469W        W80334  13.757   1.318  22.727
79470W        W80335  14.044   1.051  22.369
79471W        W80336  13.853   3.091  22.758
79472W        W80337  13.687   2.694  23.554
79473W        W80338  13.583   1.773  22.532
79474W        W80339  13.016   1.983  23.518
79475W        W80340  13.897   1.771  23.585
79476W        W80341  11.272   0.786  24.009
79477W        W80342  14.050   1.838  24.836
79478W        W80343  14.401   3.456  23.982
79479W        W80344  12.331   2.900  23.384
79480W        W80345  13.338   3.433  24.708
79481W        W80346  13.332   0.763  24.472
79482W        W80347  12.539   3.471  24.533
79483W        W80348  14.236   0.425  22.999
79484W        W80349  14.027   1.744  24.300
79485W        W80350  11.010   1.065  24.338
79486W        W80351  13.870   0.860  23.356
79487W        W80352  14.281   1.011  25.133
79488W        W80353  13.166   2.710  23.351
79489W        W80354  12.422   3.301  22.964
79490W        W80355  11.537   0.481  22.222
79491W        W80356  12.641   0.135  24.032
79492W        W80357  11.669   3.255  21.880
79493W        W80358  12.043   1.721  22.631
79494W        W80359  12.697   2.350  24.944
79495W        W80360  12.527   0.708  22.934
79496W        W80361  13.883   0.305  23.362
79497W        W80362  13.603   3.587  23.690
79498W        W80363  13.015   3.235  24.030
79499W        W80364  12.411   2.272  23.991
79500W        W80365  14.181   2.995  24.117
79501W        W80366  11.875   0.498  22.886
79502W        W80367  12.397   2.795  23.846
79503W        W80368  11.880   0.726  21.911
79504W        W80369  12.681   1.335  24.305
79505W        W80370  13.529   0.201  24.175
79506W        W80371  10.949   2.044  24.060
79507W        W80372  12.653   1.862  22.218
79508W        W80373  11.921   0.177  21.988
79509W        W80374  12.659   1.258  23.039
79510W        W80375  13.629   0.234  24.738
79511W        W80376  12.217   2.246  24.847
79512W        W80377  13.021   2.028  25.064
79513W        W80378  13.638   2.058  24.957
79514W        W80379  12.922   0.198  25.462
79515W        W80380  12.144   0.814  23.855
79516W        W80381  11.570   0.770  23.253
79517W        W80382  11.356   3.482  22.929
79518W        W80383  12.688   2.812  25.054
79519W        W80384  11.723   2.297  22.413
79520W        W80385  13.403   1.682  23.634
79521W        W80386  13.683   1.481  24.033
79522W        W80387  12.888   2.155  23.967
79523W        W80388  13.358   2.529  22.099
79524W        W80389  13.030   0.550  23.427
79525W        W80390  14.509   0.828  22.695
79526W        W80391  11.003   3.417  24.726
79527W        W80392  11.420   2.643  24.258
79528W        W80393  10.987   3.489  22.490
79529W        W80394  12.886   0.759  24.296
79530W        W80395  12.249   2.782  22.145
79531W        W80396  14.154   3.164  22.331
79532W        W80397  13.129   1.817  22.345
79533W        W80398  11.972   1.008  22.862
79534W        W80399  12.804   0.918  21.914
79535W        W80400  13.388   2.483  25.092
79536W        W80401  13.741   0.389  22.709
79537W        W80402  11.071   0.237  22.157
79538W        W80403  12.357   2.556  24.447
79539W        W80404  12.156   2.472  23.539
79540W        W80405  11.898   2.424  21.937
79541W        W80406  11.139   2.665  22.705
79542W        W80407  11.643   1.735  25.147
79543W        W80408  12.347   0.295  25.333
79544W        W80409  13.056   0.437  24.689
79545W        W80410  12.251   0.205  22.970
79546W        W80411  13.310   0.282  22.475
79547W        W80412  11.255   0.214  24.052
79548W        W80413  11.303   1.177  23.422
79549W        W80414  13.992   0.285  23.828
79550W        W80415  11.414   0.783  22.642
79551W        W80416  13.985   0.471  24.258
79552W        W80417  14.381   1.674  21.943
79553W        W80418  11.673   0.432  23.762
79554W        W80419  12.787   1.004  24.702
79555W        W80420  10.935   0.694  22.180
79556W        W80421  11.721   2.083  24.741
79557W        W80422  13.079   1.481  23.920
79558W        W80423  12.946   3.560  22.216
79559W        W80424  11.092   2.067  21.913
79560W        W80425  11.827   2.478  25.039
79561W        W80426  11.348   1.645  24.670
79562W        W80427  12.339   1.750  24.464
79563W        W80428  14.107   0.109  24.726
79564W        W80429  14.505   1.719  24.717
79565W        W80430  14.493   1.919  22.403
79566W        W80431  13.356   2.251  22.502
79567W        W80432  13.830   3.551  22.197
79568W        W80433  13.007   1.541  25.339
79569W        W80434  11.337   2.508  25.379
79570W        W80435  14.543   0.430  25.331
79571W        W80436  14.261   1.358  23.952
79572W        W80437  12.569   3.488  25.429
79573W        W80438  12.424   0.117  22.156
79574W        W80439  13.963   2.716  22.099
79575W        W80440  11.732   0.809  24.985
79576W        W80441  12.166   2.803  24.847
79577W        W80442  14.292   0.794  24.645
79578W        W80443  13.503   3.453  22.613
79579W        W80444  13.742   2.072  23.980
79580W        W80445  11.992   0.488  24.647
79581W        W80446  12.461   1.557  25.404
79582W        W80447  11.964   2.736  22.598
79583W        W80448  13.719   2.234  22.862
79584W        W80449  11.487   0.860  24.586
79585W        W80450  12.816   2.922  23.050
79586W        W80451  14.566   1.482  23.231
79587W        W80452  12.788   0.115  24.950
79588W        W80453  13.568   2.820  24.029
79589W        W80454  13.871   3.164  23.737
79590W        W80455  13.090   2.966  22.165
79591W        W80456  11.100   2.858  25.007
79592W        W80457  11.843   0.850  24.245
79593W        W80458  11.813   0.198  23.355
79594W        W80459  13.434   1.040  24.047
79595W        W80460  12.232   2.211  22.247
79596W        W80461  14.230   2.153  23.746
79597W        W80462  11.557   2.911  25.169
79598W        W80463  13.944   3.593  22.966
79599W        W80464  12.043   0.613  23.411
79600W        W80465  11.812   2.106  23.501
79601W        W80466  12.125   3.517  24.251
79602W        W80467  14.192   3.613  25.283
79603W        W80468  13.351   1.801  24.216
79604W        W80469  11.200   1.599  22.131
79605W        W80470  14.334   3.257  22.828
79606W        W80471  14.171   0.581  22.447
79607W        W80472  12.310   0.100  24.850
79608W        W80473  14.016   2.902  23.308
79609W        W80474  14.045   1.458  23.213
79610W        W80475  12.162   1.131  23.429
79611W        W80476  12.407   1.393  24.753
79612W        W80477  13.518   2.546  24.616
79613W        W80478  12.168   1.000  24.728
79614W        W80479  12.147   3.466  23.344
79615W        W80480  11.464   3.425  24.978
79616W        W80481  11.576   2.786  22.108
79617W        W80482  14.093   2.544  22.918
79618W        W80483  11.697   1.336  24.804
79619W        W80484  14.470   1.266  22.285
79620W        W80485  12.215   2.323  22.756
79621W        W80486  13.314   1.705  24.837
79622W        W80487  13.205   1.333  24.381
79623W        W80488  11.765   1.705  24.410
79624W        W80489  13.975   3.593  24.239
79625W        W80490  13.766   0.227  25.233
79626W        W80491  11.430   0.377  24.820
79627W        W80492  11.769   1.400  23.873
79628W        W80493  12.138   1.214  21.995
79629W        W80494  10.941   2.973  24.540
79630W        W80495  12.526   1.682  23.983
79631W        W80496  12.349   0.707  22.088
79632W        W80497  11.484   1.523  22.869
79633W        W80498  11.255   3.375  24.306
79634W        W80499  14.050   1.601  22.414
79635W        W80500  14.145   0.517  25.100
79636W        W80501  13.581   2.726  23.063
79637W        W80502  11.179   1.650  25.240
79638W        W80503  14.145   0.114  22.536
79639W        W80504  13.665   2.589  22.547
79640W        W80505  12.567   1.647  22.632
79641W        W80506  13.754   0.451  22.155
79642W        W80507  13.819   1.058  24.341
79643W        W80508  11.528   1.651  23.548
79644W        W80509  11.822   2.590  23.197
79645W        W80510  13.585   1.210  23.162
79646W        W80511  12.608   0.589  23.858
79647W        W80512  14.570   2.500  24.369
79648W        W80513  14.488   0.487  23.930
79649W        W80514  11.027   3.317  23.306
79650W        W80515  11.536   2.504  22.842
79651W        W80516  11.451   0.121  25.395
79652W        W80517  12.570   2.974  25.497
79653W        W80518  14.325   1.942  23.287
79654W        W80519  13.679   2.119  22.167
79655W        W80520  12.974   3.640  24.379
79656W        W80521  13.831   2.362  25.416
79657W        W80522  12.646   0.072  22.696
79658W        W80523  13.359   0.941  23.555
79659W        W80524  11.045   2.528  23.887
79660W        W80525  12.298   0.490  22.528
79661W        W80526  12.102   1.974  25.377
79662W        W80527  13.096   0.955  23.091
79663W        W80528  13.301   2.365  24.213
79664W        W80529  11.455   2.970  24.648
79665W        W80530  12.046   2.953  25.371
79666W        W80531  11.897   0.750  22.385
79667W        W80532  13.414   0.892  22.710
79668W        W80533  13.372   3.000  24.947
79669W        W80534  12.057   1.592  23.546
79670W        W80535  11.712   3.290  24.411
79671W        W80536  14.457   3.407  22.012
79672W        W80537  11.320   2.079  25.008
79673W        W80538  13.315   2.341  23.696
79674W        W80539  11.751   1.990  22.938
79675W        W80540  12.122   2.997  24.333
79676W        W80541  12.500   0.416  23.374
79677W        W80542  11.111   2.400  22.304
79678W        W80543  12.630   1.351  22.174
79679W        W80544  11.276   1.900  23.193
79680W        W80545  12.566   0.542  24.657
79681W        W80546  14.238   0.251  22.084
79682W        W80547  14.331   1.997  25.183
79683W        W80548  12.985   3.254  25.335
79684W        W80549  14.543   2.348  24.857
79685W        W80550  13.951   3.146  25.468
79686W        W80551  11.690   3.602  23.946
79687W        W80552  14.549   2.224  22.820
79688W        W80553  13.079   1.491  23.333
79689W        W80554  12.846   0.103  23.223
79690W        W80555  11.905   3.087  23.060
79691W        W80556  12.404   0.828  24.285
79692W        W80557  12.104   0.197  23.754
79693W        W80558  11.167   3.019  22.302
79694W        W80559  12.983   2.383  23.020
79695W        W80560  11.858   3.178  24.899
79696W        W80561  11.335   2.001  22.595
79697W        W80562  11.220   0.544  23.594
79698W        W80563  12.768   2.509  23.651
79699W        W80564  11.020   0.363  22.671
79700W        W80565  13.684   1.569  24.598
79701W        W80566  13.561   0.955  22.170
79702W        W80567  14.078   2.627  23.818
79703W        W80568  12.739   3.111  23.649
79704W        W80569  12.151   3.215  22.560
79705W        W80570  13.433   0.118  21.990
79706W        W80571  11.233   3.378  23.731
79707W        W80572  13.430   1.136  25.366
79708W        W80573  11.413   0.666  25.365
79709W        W80574  11.144   1.266  22.698
79710W        W80575  11.835   1.255  22.423
79711W        W80576  13.598   1.582  25.240
79712W        W80577  11.941   1.863  23.949
79713W        W80578  13.415   0.149  23.069
79714W        W80579  12.546   3.580  23.572
79715W        W80580  13.760   3.042  24.509
79716W        W80581  13.344   3.191  23.620
79717W        W80582  13.363   2.171  23.214
79718W        W80583  12.825   0.396  22.285
79719W        W80584  14.506   0.024  23.007
79720W        W80585  12.194   1.659  22.170
79721W        W80586  14.360   0.996  23.160
79722W        W80587  13.052   2.166  22.037
79723W        W80588  13.988   2.366  24.785
79724W        W80589  13.642   3.067  22.252
79725W        W80590  12.257   0.742  25.158
79726W        W80591  12.077   1.326  24.399
79727W        W80592  14.169   2.821  24.676
79728W        W80593  13.269   0.771  25.053
79729W        W80594  11.113   1.242  24.830
79730W        W80595  12.873   1.719  24.556
79731W        W80596  11.230   2.477  23.213
79732W        W80597  11.377   1.774  24.103
79733W        W80598  13.694   2.060  24.453
79734W        W80599  13.466   3.440  25.264
79735W        W80600  13.362   1.179  24.817
79736W        W80601  13.639   3.233  23.222
79737W        W80602  12.641   2.953  24.545
79738W        W80603  12.126   3.308  23.814
79739W        W80604  13.931   2.479  24.233
79740W        W80605  12.981   2.551  25.370
79741W        W80606  11.586   2.504  23.709
79742W        W80607  13.932   2.263  23.354
79743W        W80608  13.573   3.329  24.105
79744W        W80609  11.551   3.058  23.975
79745W        W80610  12.572   1.110  25.185
79746W        W80611  13.023   3.276  22.696
79747W        W80612  12.331   2.531  25.334
79748W        W80613  12.457   2.769  22.711
79749W        W80614  11.678   1.509  21.970
79750W        W80615  11.017   3.595  28.869
79751W        W80616  11.393   2.488  28.392
79752W        W80617  14.098   2.218  26.162
79753W        W80618  14.228   3.303  28.189
79754W        W80619  12.146   3.294  25.715
79755W        W80620  12.229   1.446  26.698
79756W        W80621  11.744   1.294  26.862
79757W        W80622  12.735   2.109  26.296
79758W        W80623  12.410   3.201  28.651
79759W        W80624  11.059   0.762  28.614
79760W        W80625  11.821   0.042  28.416
79761W        W80626  13.515   0.430  27.303
79762W        W80627  13.164   1.301  25.873
79763W        W80628  13.734   0.735  28.964
79764W        W80629  11.100   0.527  28.089
79765W        W80630  11.199   3.146  29.110
79766W        W80631  12.721   2.536  25.842
79767W        W80632  11.153   1.319  27.535
79768W        W80633  12.046   1.210  28.772
79769W        W80634  14.505   1.069  27.271
79770W        W80635  14.269   2.112  28.130
79771W        W80636  12.577   1.445  27.157
79772W        W80637  13.123   2.784  27.526
79773W        W80638  11.623   2.218  27.758
79774W        W80639  10.982   1.746  27.329
79775W        W80640  12.018   1.718  28.521
79776W        W80641  14.289   1.501  28.775
79777W        W80642  11.905   2.945  27.220
79778W        W80643  13.026   2.634  28.354
79779W        W80644  12.246   1.274  27.579
79780W        W80645  12.538   2.058  27.222
79781W        W80646  13.535   2.831  29.070
79782W        W80647  12.595   1.867  28.558
79783W        W80648  11.004   1.258  29.080
79784W        W80649  13.836   2.793  28.679
79785W        W80650  11.417   0.375  26.677
79786W        W80651  11.944   2.633  27.676
79787W        W80652  14.407   2.416  26.966
79788W        W80653  13.820   0.816  27.533
79789W        W80654  14.105   0.769  25.628
79790W        W80655  14.570   1.570  27.934
79791W        W80656  12.537   3.277  27.687
79792W        W80657  14.311   2.743  26.125
79793W        W80658  11.440   3.529  25.879
79794W        W80659  11.833   3.575  26.555
79795W        W80660  11.630   0.329  27.981
79796W        W80661  14.253   1.347  28.256
79797W        W80662  13.658   1.769  26.715
79798W        W80663  13.624   1.457  25.742
79799W        W80664  12.832   2.601  27.882
79800W        W80665  12.638   0.931  27.081
79801W        W80666  13.238   3.018  28.075
79802W        W80667  14.109   1.809  26.497
79803W        W80668  13.011   0.467  26.513
79804W        W80669  11.668   3.161  26.196
79805W        W80670  11.039   0.660  26.795
79806W        W80671  13.825   1.267  27.269
79807W        W80672  11.283   2.884  27.184
79808W        W80673  12.624   3.234  26.054
79809W        W80674  14.016   1.260  25.518
79810W        W80675  11.039   3.018  27.682
79811W        W80676  11.830   2.590  28.162
79812W        W80677  12.203   1.950  26.781
79813W        W80678  12.225   0.355  27.874
79814W        W80679  14.454   0.117  27.171
79815W        W80680  11.673   1.989  25.639
79816W        W80681  11.328   1.022  25.818
79817W        W80682  11.390   2.978  26.612
79818W        W80683  12.521   2.461  26.860
79819W        W80684  13.853   3.320  28.574
79820W        W80685  12.779   0.962  26.258
79821W        W80686  14.162   3.360  27.030
79822W        W80687  13.839   1.213  28.628
79823W        W80688  14.552   2.869  26.762
79824W        W80689  13.179   2.161  28.246
79825W        W80690  10.945   1.712  26.452
79826W        W80691  12.056   2.127  28.025
79827W        W80692  13.260   1.391  26.403
79828W        W80693  13.137   1.881  26.507
79829W        W80694  11.480   1.301  27.981
79830W        W80695  11.465   1.177  28.903
79831W        W80696  11.355   0.094  27.062
79832W        W80697  13.123   0.441  27.623
79833W        W80698  12.771   0.626  28.786
79834W        W80699  13.126   0.775  25.964
79835W        W80700  14.309   3.168  28.718
79836W        W80701  13.276   0.249  28.757
79837W        W80702  14.295   2.550  28.879
79838W        W80703  13.725   0.717  28.475
79839W        W80704  13.525   0.655  26.745
79840W        W80705  13.918   1.789  29.149
79841W        W80706  11.658   3.365  27.135
79842W        W80707  12.316   1.082  26.121
79843W        W80708  11.885   0.366  28.785
79844W        W80709  13.937   0.850  26.466
79845W        W80710  14.304   1.332  26.411
79846W        W80711  12.047   3.549  28.882
79847W        W80712  11.973   0.085  26.117
79848W        W80713  14.294   0.619  27.152
79849W        W80714  14.444   2.868  25.597
79850W        W80715  11.351   2.071  27.299
79851W        W80716  13.268   0.658  25.529
79852W        W80717  14.402   2.990  27.249
79853W        W80718  14.441   0.184  27.999
79854W        W80719  12.886   1.396  28.553
79855W        W80720  12.979   2.735  26.256
79856W        W80721  13.379   2.029  28.996
79857W        W80722  13.053   0.006  27.305
79858W        W80723  11.665   0.909  27.368
79859W        W80724  11.219   2.109  28.142
79860W        W80725  13.078   3.302  26.848
79861W        W80726  14.272   0.899  27.720
79862W        W80727  12.909   3.246  28.487
79863W        W80728  14.252   2.305  25.692
79864W        W80729  12.687   1.788  26.753
79865W        W80730  14.539   0.299  28.494
79866W        W80731  12.688   2.134  28.088
79867W        W80732  12.905   1.020  27.533
79868W        W80733  13.757   1.318  26.371
79869W        W80734  14.044   1.051  26.013
79870W        W80735  13.853   3.091  26.402
79871W        W80736  13.687   2.694  27.198
79872W        W80737  13.583   1.773  26.176
79873W        W80738  13.016   1.983  27.162
79874W        W80739  13.897   1.771  27.229
79875W        W80740  11.272   0.786  27.653
79876W        W80741  14.050   1.838  28.480
79877W        W80742  14.401   3.456  27.626
79878W        W80743  12.331   2.900  27.028
79879W        W80744  13.338   3.433  28.352
79880W        W80745  13.332   0.763  28.116
79881W        W80746  12.539   3.471  28.177
79882W        W80747  14.236   0.425  26.643
79883W        W80748  14.027   1.744  27.944
79884W        W80749  11.010   1.065  27.982
79885W        W80750  13.870   0.860  27.000
79886W        W80751  14.281   1.011  28.777
79887W        W80752  13.166   2.710  26.995
79888W        W80753  12.422   3.301  26.608
79889W        W80754  11.537   0.481  25.866
79890W        W80755  12.641   0.135  27.676
79891W        W80756  11.669   3.255  25.524
79892W        W80757  12.043   1.721  26.275
79893W        W80758  12.697   2.350  28.588
79894W        W80759  12.527   0.708  26.578
79895W        W80760  13.883   0.305  27.006
79896W        W80761  13.603   3.587  27.334
79897W        W80762  13.015   3.235  27.674
79898W        W80763  12.411   2.272  27.635
79899W        W80764  14.181   2.995  27.761
79900W        W80765  11.875   0.498  26.530
79901W        W80766  12.397   2.795  27.490
79902W        W80767  11.880   0.726  25.555
79903W        W80768  12.681   1.335  27.949
79904W        W80769  13.529   0.201  27.819
79905W        W80770  10.949   2.044  27.704
79906W        W80771  12.653   1.862  25.862
79907W        W80772  11.921   0.177  25.632
79908W        W80773  12.659   1.258  26.683
79909W        W80774  13.629   0.234  28.382
79910W        W80775  12.217   2.246  28.491
79911W        W80776  13.021   2.028  28.708
79912W        W80777  13.638   2.058  28.601
79913W        W80778  12.922   0.198  29.106
79914W        W80779  12.144   0.814  27.499
79915W        W80780  11.570   0.770  26.897
79916W        W80781  11.356   3.482  26.573
79917W        W80782  12.688   2.812  28.698
79918W        W80783  11.723   2.297  26.057
79919W        W80784  13.403   1.682  27.278
79920W        W80785  13.683   1.481  27.677
79921W        W80786  12.888   2.155  27.611
79922W        W80787  13.358   2.529  25.743
79923W        W80788  13.030   0.550  27.071
79924W        W80789  14.509   0.828  26.339
79925W        W80790  11.003   3.417  28.370
79926W        W80791  11.420   2.643  27.902
79927W        W80792  10.987   3.489  26.134
79928W        W80793  12.886   0.759  27.940
79929W        W80794  12.249   2.782  25.789
79930W        W80795  14.154   3.164  25.975
79931W        W80796  13.129   1.817  25.989
79932W        W80797  11.972   1.008  26.506
79933W        W80798  12.804   0.918  25.558
79934W        W80799  13.388   2.483  28.736
79935W        W80800  13.741   0.389  26.353
79936W        W80801  11.071   0.237  25.801
79937W        W80802  12.357   2.556  28.091
79938W        W80803  12.156   2.472  27.183
79939W        W80804  11.898   2.424  25.581
79940W        W80805  11.139   2.665  26.349
79941W        W80806  11.643   1.735  28.791
79942W        W80807  12.347   0.295  28.977
79943W        W80808  13.056   0.437  28.333
79944W        W80809  12.251   0.205  26.614
79945W        W80810  13.310   0.282  26.119
79946W        W80811  11.255   0.214  27.696
79947W        W80812  11.303   1.177  27.066
79948W        W80813  13.992   0.285  27.472
79949W        W80814  11.414   0.783  26.286
79950W        W80815  13.985   0.471  27.902
79951W        W80816  14.381   1.674  25.587
79952W        W80817  11.673   0.432  27.406
79953W        W80818  12.787   1.004  28.346
79954W        W80819  10.935   0.694  25.824
79955W        W80820  11.721   2.083  28.385
79956W        W80821  13.079   1.481  27.564
79957W        W80822  12.946   3.560  25.860
79958W        W80823  11.092   2.067  25.557
79959W        W80824  11.827   2.478  28.683
79960W        W80825  11.348   1.645  28.314
79961W        W80826  12.339   1.750  28.108
79962W        W80827  14.107   0.109  28.370
79963W        W80828  14.505   1.719  28.361
79964W        W80829  14.493   1.919  26.047
79965W        W80830  13.356   2.251  26.146
79966W        W80831  13.830   3.551  25.841
79967W        W80832  13.007   1.541  28.983
79968W        W80833  11.337   2.508  29.023
79969W        W80834  14.543   0.430  28.975
79970W        W80835  14.261   1.358  27.596
79971W        W80836  12.569   3.488  29.073
79972W        W80837  12.424   0.117  25.800
79973W        W80838  13.963   2.716  25.743
79974W        W80839  11.732   0.809  28.629
79975W        W80840  12.166   2.803  28.491
79976W        W80841  14.292   0.794  28.289
79977W        W80842  13.503   3.453  26.257
79978W        W80843  13.742   2.072  27.624
79979W        W80844  11.992   0.488  28.291
79980W        W80845  12.461   1.557  29.048
79981W        W80846  11.964   2.736  26.242
79982W        W80847  13.719   2.234  26.506
79983W        W80848  11.487   0.860  28.230
79984W        W80849  12.816   2.922  26.694
79985W        W80850  14.566   1.482  26.875
79986W        W80851  12.788   0.115  28.594
79987W        W80852  13.568   2.820  27.673
79988W        W80853  13.871   3.164  27.381
79989W        W80854  13.090   2.966  25.809
79990W        W80855  11.100   2.858  28.651
79991W        W80856  11.843   0.850  27.889
79992W        W80857  11.813   0.198  26.999
79993W        W80858  13.434   1.040  27.691
79994W        W80859  12.232   2.211  25.891
79995W        W80860  14.230   2.153  27.390
79996W        W80861  11.557   2.911  28.813
79997W        W80862  13.944   3.593  26.610
79998W        W80863  12.043   0.613  27.055
79999W        W80864  11.812   2.106  27.145
80000W        W80865  12.125   3.517  27.895
80001W        W80866  14.192   3.613  28.927
80002W        W80867  13.351   1.801  27.860
80003W        W80868  11.200   1.599  25.775
80004W        W80869  14.334   3.257  26.472
80005W        W80870  14.171   0.581  26.091
80006W        W80871  12.310   0.100  28.494
80007W        W80872  14.016   2.902  26.952
80008W        W80873  14.045   1.458  26.857
80009W        W80874  12.162   1.131  27.073
80010W        W80875  12.407   1.393  28.397
80011W        W80876  13.518   2.546  28.260
80012W        W80877  12.168   1.000  28.372
80013W        W80878  12.147   3.466  26.988
80014W        W80879  11.464   3.425  28.622
80015W        W80880  11.576   2.786  25.752
80016W        W80881  14.093   2.544  26.562
80017W        W80882  11.697   1.336  28.448
80018W        W80883  14.470   1.266  25.929
80019W        W80884  12.215   2.323  26.400
80020W        W80885  13.314   1.705  28.481
80021W        W80886  13.205   1.333  28.025
80022W        W80887  11.765   1.705  28.054
80023W        W80888  13.975   3.593  27.883
80024W        W80889  13.766   0.227  28.877
80025W        W80890  11.430   0.377  28.464
80026W        W80891  11.769   1.400  27.517
80027W        W80892  12.138   1.214  25.639
80028W        W80893  10.941   2.973  28.184
80029W        W80894  12.526   1.682  27.627
80030W        W80895  12.349   0.707  25.732
80031W        W80896  11.484   1.523  26.513
80032W        W80897  11.255   3.375  27.950
80033W        W80898  14.050   1.601  26.058
80034W        W80899  14.145   0.517  28.744
80035W        W80900  13.581   2.726  26.707
80036W        W80901  11.179   1.650  28.884
80037W        W80902  14.145   0.114  26.180
80038W        W80903  13.665   2.589  26.191
80039W        W80904  12.567   1.647  26.276
80040W        W80905  13.754   0.451  25.799
80041W        W80906  13.819   1.058  27.985
80042W        W80907  11.528   1.651  27.192
80043W        W80908  11.822   2.590  26.841
80044W        W80909  13.585   1.210  26.806
80045W        W80910  12.608   0.589  27.502
80046W        W80911  14.570   2.500  28.013
80047W        W80912  14.488   0.487  27.574
80048W        W80913  11.027   3.317  26.950
80049W        W80914  11.536   2.504  26.486
80050W        W80915  11.451   0.121  29.039
80051W        W80916  12.570   2.974  29.141
80052W        W80917  14.325   1.942  26.931
80053W        W80918  13.679   2.119  25.811
80054W        W80919  12.974   3.640  28.023
80055W        W80920  13.831   2.362  29.060
80056W        W80921  12.646   0.072  26.340
80057W        W80922  13.359   0.941  27.199
80058W        W80923  11.045   2.528  27.531
80059W        W80924  12.298   0.490  26.172
80060W        W80925  12.102   1.974  29.021
80061W        W80926  13.096   0.955  26.735
80062W        W80927  13.301   2.365  27.857
80063W        W80928  11.455   2.970  28.292
80064W        W80929  12.046   2.953  29.015
80065W        W80930  11.897   0.750  26.029
80066W        W80931  13.414   0.892  26.354
80067W        W80932  13.372   3.000  28.591
80068W        W80933  12.057   1.592  27.190
80069W        W80934  11.712   3.290  28.055
80070W        W80935  14.457   3.407  25.656
80071W        W80936  11.320   2.079  28.652
80072W        W80937  13.315   2.341  27.340
80073W        W80938  11.751   1.990  26.582
80074W        W80939  12.122   2.997  27.977
80075W        W80940  12.500   0.416  27.018
80076W        W80941  11.111   2.400  25.948
80077W        W80942  12.630   1.351  25.818
80078W        W80943  11.276   1.900  26.837
80079W        W80944  12.566   0.542  28.301
80080W        W80945  14.238   0.251  25.728
80081W        W80946  14.331   1.997  28.827
80082W        W80947  12.985   3.254  28.979
80083W        W80948  14.543   2.348  28.501
80084W        W80949  13.951   3.146  29.112
80085W        W80950  11.690   3.602  27.590
80086W        W80951  14.549   2.224  26.464
80087W        W80952  13.079   1.491  26.977
80088W        W80953  12.846   0.103  26.867
80089W        W80954  11.905   3.087  26.704
80090W        W80955  12.404   0.828  27.929
80091W        W80956  12.104   0.197  27.398
80092W        W80957  11.167   3.019  25.946
80093W        W80958  12.983   2.383  26.664
80094W        W80959  11.858   3.178  28.543
80095W        W80960  11.335   2.001  26.239
80096W        W80961  11.220   0.544  27.238
80097W        W80962  12.768   2.509  27.295
80098W        W80963  11.020   0.363  26.315
80099W        W80964  13.684   1.569  28.242
80100W        W80965  13.561   0.955  25.814
80101W        W80966  14.078   2.627  27.462
80102W        W80967  12.739   3.111  27.293
80103W        W80968  12.151   3.215  26.204
80104W        W80969  13.433   0.118  25.634
80105W        W80970  11.233   3.378  27.375
80106W        W80971  13.430   1.136  29.010
80107W        W80972  11.413   0.666  29.009
80108W        W80973  11.144   1.266  26.342
80109W        W80974  11.835   1.255  26.067
80110W        W80975  13.598   1.582  28.884
80111W        W80976  11.941   1.863  27.593
80112W        W80977  13.415   0.149  26.713
80113W        W80978  12.546   3.580  27.216
80114W        W80979  13.760   3.042  28.153
80115W        W80980  13.344   3.191  27.264
80116W        W80981  13.363   2.171  26.858
80117W        W80982  12.825   0.396  25.929
80118W        W80983  14.506   0.024  26.651
80119W        W80984  12.194   1.659  25.814
80120W        W80985  14.360   0.996  26.804
80121W        W80986  13.052   2.166  25.681
80122W        W80987  13.988   2.366  28.429
80123W        W80988  13.642   3.067  25.896
80124W        W80989  12.257   0.742  28.802
80125W        W80990  12.077   1.326  28.043
80126W        W80991  14.169   2.821  28.320
80127W        W80992  13.269   0.771  28.697
80128W        W80993  11.113   1.242  28.474
80129W        W80994  12.873   1.719  28.200
80130W        W80995  11.230   2.477  26.857
80131W        W80996  11.377   1.774  27.747
80132W        W80997  13.694   2.060  28.097
80133W        W80998  13.466   3.440  28.908
80134W        W80999  13.362   1.179  28.461
80135W        W81000  13.639   3.233  26.866
80136W        W81001  12.641   2.953  28.189
80137W        W81002  12.126   3.308  27.458
80138W        W81003  13.931   2.479  27.877
80139W        W81004  12.981   2.551  29.014
80140W        W81005  11.586   2.504  27.353
80141W        W81006  13.932   2.263  26.998
80142W        W81007  13.573   3.329  27.749
80143W        W81008  11.551   3.058  27.619
80144W        W81009  12.572   1.110  28.829
80145W        W81010  13.023   3.276  26.340
80146W        W81011  12.457   2.769  26.355
80147W        W81012  11.678   1.509  25.614
80148W        W81013  11.017   7.239   3.359
80149W        W81014  11.393   6.132   2.882
80150W        W81015  14.098   5.862   0.652
80151W        W81016  14.228   6.947   2.679
80152W        W81017  12.146   6.938   0.205
80153W        W81018  12.229   5.090   1.188
80154W        W81019  11.744   4.938   1.352
80155W        W81020  12.735   5.753   0.786
80156W        W81021  12.410   6.845   3.141
80157W        W81022  11.059   4.406   3.104
80158W        W81023  11.821   3.686   2.906
80159W        W81024  13.515   4.074   1.793
80160W        W81025  13.164   4.945   0.363
80161W        W81026  13.734   4.379   3.454
80162W        W81027  11.100   4.171   2.579
80163W        W81028  11.199   6.790   3.600
80164W        W81029  12.721   6.180   0.332
80165W        W81030  11.153   4.963   2.025
80166W        W81031  12.046   4.854   3.262
80167W        W81032  14.505   4.713   1.761
80168W        W81033  14.269   5.756   2.620
80169W        W81034  12.577   5.089   1.647
80170W        W81035  13.123   6.428   2.016
80171W        W81036  11.623   5.862   2.248
80172W        W81037  10.982   5.390   1.819
80173W        W81038  12.018   5.362   3.011
80174W        W81039  14.289   5.145   3.265
80175W        W81040  11.905   6.589   1.710
80176W        W81041  13.026   6.278   2.844
80177W        W81042  12.246   4.918   2.069
80178W        W81043  12.538   5.702   1.712
80179W        W81044  13.535   6.475   3.560
80180W        W81045  12.614   5.795   3.570
80181W        W81046  12.595   5.511   3.048
80182W        W81047  11.004   4.902   3.570
80183W        W81048  13.836   6.437   3.169
80184W        W81049  11.417   4.019   1.167
80185W        W81050  11.944   6.277   2.166
80186W        W81051  14.407   6.060   1.456
80187W        W81052  13.820   4.460   2.023
80188W        W81053  14.105   4.413   0.118
80189W        W81054  14.570   5.214   2.424
80190W        W81055  12.537   6.921   2.177
80191W        W81056  14.311   6.387   0.615
80192W        W81057  11.440   7.173   0.369
80193W        W81058  11.833   7.219   1.045
80194W        W81059  11.630   3.973   2.471
80195W        W81060  14.253   4.991   2.746
80196W        W81061  13.658   5.413   1.205
80197W        W81062  13.624   5.101   0.232
80198W        W81063  12.832   6.245   2.372
80199W        W81064  12.638   4.575   1.571
80200W        W81065  13.238   6.662   2.565
80201W        W81066  14.109   5.453   0.987
80202W        W81067  13.011   4.111   1.003
80203W        W81068  11.668   6.805   0.686
80204W        W81069  11.039   4.304   1.285
80205W        W81070  13.825   4.911   1.759
80206W        W81071  11.283   6.528   1.674
80207W        W81072  12.624   6.878   0.544
80208W        W81073  14.016   4.904   0.008
80209W        W81074  11.039   6.662   2.172
80210W        W81075  11.830   6.234   2.652
80211W        W81076  12.203   5.594   1.271
80212W        W81077  12.225   3.999   2.364
80213W        W81078  14.454   3.761   1.661
80214W        W81079  11.673   5.633   0.129
80215W        W81080  11.328   4.666   0.308
80216W        W81081  11.390   6.622   1.102
80217W        W81082  12.521   6.105   1.350
80218W        W81083  13.853   6.964   3.064
80219W        W81084  12.779   4.606   0.748
80220W        W81085  14.162   7.004   1.520
80221W        W81086  13.839   4.857   3.118
80222W        W81087  14.552   6.513   1.252
80223W        W81088  13.179   5.805   2.736
80224W        W81089  10.945   5.356   0.942
80225W        W81090  12.056   5.771   2.515
80226W        W81091  13.260   5.035   0.893
80227W        W81092  13.137   5.525   0.997
80228W        W81093  11.480   4.945   2.471
80229W        W81094  11.465   4.821   3.393
80230W        W81095  11.355   3.738   1.552
80231W        W81096  13.123   4.085   2.113
80232W        W81097  12.771   4.270   3.276
80233W        W81098  13.126   4.419   0.454
80234W        W81099  14.309   6.812   3.208
80235W        W81100  14.295   6.194   3.369
80236W        W81101  13.725   4.361   2.965
80237W        W81102  13.525   4.299   1.235
80238W        W81103  13.918   5.433   3.639
80239W        W81104  11.658   7.009   1.625
80240W        W81105  12.316   4.726   0.611
80241W        W81106  11.885   4.010   3.275
80242W        W81107  13.937   4.494   0.956
80243W        W81108  14.304   4.976   0.901
80244W        W81109  12.047   7.193   3.372
80245W        W81110  11.973   3.729   0.607
80246W        W81111  14.294   4.263   1.642
80247W        W81112  14.444   6.512   0.087
80248W        W81113  11.351   5.715   1.789
80249W        W81114  13.268   4.302   0.019
80250W        W81115  14.402   6.634   1.739
80251W        W81116  14.441   3.828   2.489
80252W        W81117  12.886   5.040   3.043
80253W        W81118  12.979   6.379   0.746
80254W        W81119  13.379   5.673   3.486
80255W        W81120  13.053   3.650   1.795
80256W        W81121  11.665   4.553   1.858
80257W        W81122  11.219   5.753   2.632
80258W        W81123  13.078   6.946   1.338
80259W        W81124  14.272   4.543   2.210
80260W        W81125  12.909   6.890   2.977
80261W        W81126  14.252   5.949   0.182
80262W        W81127  12.687   5.432   1.243
80263W        W81128  14.539   3.943   2.984
80264W        W81129  12.688   5.778   2.578
80265W        W81130  12.905   4.664   2.023
80266W        W81131  13.757   4.962   0.861
80267W        W81132  14.044   4.695   0.503
80268W        W81133  13.853   6.735   0.892
80269W        W81134  13.687   6.338   1.688
80270W        W81135  13.583   5.417   0.666
80271W        W81136  13.016   5.627   1.652
80272W        W81137  13.897   5.415   1.719
80273W        W81138  11.272   4.430   2.143
80274W        W81139  14.050   5.482   2.970
80275W        W81140  14.401   7.100   2.116
80276W        W81141  12.331   6.544   1.518
80277W        W81142  13.338   7.077   2.842
80278W        W81143  13.332   4.407   2.606
80279W        W81144  12.539   7.115   2.667
80280W        W81145  14.236   4.069   1.133
80281W        W81146  14.027   5.388   2.434
80282W        W81147  11.010   4.709   2.472
80283W        W81148  13.870   4.504   1.490
80284W        W81149  14.281   4.655   3.267
80285W        W81150  13.166   6.354   1.485
80286W        W81151  12.422   6.945   1.098
80287W        W81152  11.537   4.125   0.356
80288W        W81153  12.641   3.779   2.166
80289W        W81154  11.669   6.899   0.014
80290W        W81155  12.043   5.365   0.765
80291W        W81156  12.697   5.994   3.078
80292W        W81157  12.527   4.352   1.068
80293W        W81158  13.883   3.949   1.496
80294W        W81159  13.603   7.231   1.824
80295W        W81160  13.015   6.879   2.164
80296W        W81161  12.411   5.916   2.125
80297W        W81162  14.181   6.639   2.251
80298W        W81163  11.875   4.142   1.020
80299W        W81164  12.397   6.439   1.980
80300W        W81165  11.880   4.370   0.045
80301W        W81166  12.681   4.979   2.439
80302W        W81167  13.529   3.845   2.309
80303W        W81168  10.949   5.688   2.194
80304W        W81169  12.653   5.506   0.352
80305W        W81170  11.921   3.821   0.122
80306W        W81171  12.659   4.902   1.173
80307W        W81172  13.629   3.878   2.872
80308W        W81173  12.217   5.890   2.981
80309W        W81174  13.021   5.672   3.198
80310W        W81175  13.638   5.702   3.091
80311W        W81176  12.922   3.842   3.596
80312W        W81177  12.144   4.458   1.989
80313W        W81178  11.570   4.414   1.387
80314W        W81179  11.356   7.126   1.063
80315W        W81180  12.688   6.456   3.188
80316W        W81181  11.723   5.941   0.547
80317W        W81182  13.403   5.326   1.768
80318W        W81183  13.683   5.125   2.167
80319W        W81184  12.888   5.799   2.101
80320W        W81185  13.358   6.173   0.233
80321W        W81186  13.030   4.194   1.561
80322W        W81187  14.509   4.472   0.829
80323W        W81188  11.003   7.061   2.860
80324W        W81189  11.420   6.287   2.392
80325W        W81190  10.987   7.133   0.624
80326W        W81191  12.886   4.403   2.430
80327W        W81192  12.249   6.426   0.279
80328W        W81193  14.154   6.808   0.465
80329W        W81194  13.129   5.461   0.479
80330W        W81195  11.972   4.652   0.996
80331W        W81196  12.804   4.562   0.048
80332W        W81197  13.388   6.127   3.226
80333W        W81198  13.741   4.033   0.843
80334W        W81199  11.071   3.881   0.291
80335W        W81200  12.357   6.200   2.581
80336W        W81201  12.156   6.116   1.673
80337W        W81202  11.898   6.068   0.071
80338W        W81203  11.139   6.309   0.839
80339W        W81204  11.643   5.379   3.281
80340W        W81205  12.347   3.939   3.467
80341W        W81206  13.056   4.081   2.823
80342W        W81207  12.251   3.849   1.104
80343W        W81208  13.310   3.926   0.609
80344W        W81209  11.255   3.858   2.186
80345W        W81210  11.303   4.821   1.556
80346W        W81211  13.992   3.929   1.962
80347W        W81212  11.414   4.427   0.776
80348W        W81213  13.985   4.115   2.392
80349W        W81214  14.381   5.318   0.077
80350W        W81215  11.673   4.076   1.896
80351W        W81216  12.787   4.648   2.836
80352W        W81217  10.935   4.338   0.314
80353W        W81218  11.721   5.727   2.875
80354W        W81219  13.079   5.125   2.054
80355W        W81220  12.946   7.204   0.350
80356W        W81221  11.092   5.711   0.047
80357W        W81222  11.827   6.122   3.173
80358W        W81223  11.348   5.289   2.804
80359W        W81224  12.339   5.394   2.598
80360W        W81225  14.107   3.753   2.860
80361W        W81226  14.505   5.363   2.851
80362W        W81227  14.493   5.563   0.537
80363W        W81228  13.356   5.895   0.636
80364W        W81229  13.830   7.195   0.331
80365W        W81230  13.007   5.185   3.473
80366W        W81231  11.337   6.152   3.513
80367W        W81232  14.543   4.074   3.465
80368W        W81233  14.261   5.002   2.086
80369W        W81234  12.569   7.132   3.563
80370W        W81235  12.424   3.761   0.290
80371W        W81236  13.963   6.360   0.233
80372W        W81237  11.732   4.453   3.119
80373W        W81238  12.166   6.447   2.981
80374W        W81239  14.292   4.438   2.779
80375W        W81240  13.503   7.097   0.747
80376W        W81241  13.742   5.716   2.114
80377W        W81242  11.992   4.132   2.781
80378W        W81243  12.461   5.201   3.538
80379W        W81244  11.964   6.380   0.732
80380W        W81245  13.719   5.878   0.996
80381W        W81246  11.487   4.504   2.720
80382W        W81247  12.816   6.566   1.184
80383W        W81248  14.566   5.126   1.365
80384W        W81249  12.788   3.759   3.084
80385W        W81250  13.568   6.464   2.163
80386W        W81251  13.871   6.808   1.871
80387W        W81252  13.090   6.610   0.299
80388W        W81253  11.100   6.502   3.141
80389W        W81254  11.843   4.494   2.379
80390W        W81255  11.813   3.842   1.489
80391W        W81256  13.434   4.684   2.181
80392W        W81257  12.232   5.855   0.381
80393W        W81258  14.230   5.797   1.880
80394W        W81259  11.557   6.555   3.303
80395W        W81260  13.944   7.237   1.100
80396W        W81261  12.043   4.257   1.545
80397W        W81262  11.812   5.750   1.635
80398W        W81263  12.125   7.161   2.385
80399W        W81264  14.192   7.257   3.417
80400W        W81265  13.351   5.445   2.350
80401W        W81266  11.200   5.243   0.265
80402W        W81267  14.334   6.901   0.962
80403W        W81268  14.171   4.225   0.581
80404W        W81269  12.310   3.744   2.984
80405W        W81270  14.016   6.546   1.442
80406W        W81271  14.045   5.102   1.347
80407W        W81272  12.162   4.775   1.563
80408W        W81273  12.407   5.037   2.887
80409W        W81274  13.518   6.190   2.750
80410W        W81275  12.168   4.644   2.862
80411W        W81276  12.147   7.110   1.478
80412W        W81277  11.464   7.069   3.112
80413W        W81278  11.576   6.430   0.242
80414W        W81279  14.093   6.188   1.052
80415W        W81280  11.697   4.980   2.938
80416W        W81281  14.470   4.910   0.419
80417W        W81282  12.215   5.967   0.890
80418W        W81283  13.314   5.349   2.971
80419W        W81284  13.205   4.977   2.515
80420W        W81285  11.765   5.349   2.544
80421W        W81286  13.975   7.237   2.373
80422W        W81287  13.766   3.871   3.367
80423W        W81288  11.430   4.021   2.954
80424W        W81289  11.769   5.044   2.007
80425W        W81290  12.138   4.858   0.129
80426W        W81291  10.941   6.617   2.674
80427W        W81292  12.526   5.326   2.117
80428W        W81293  12.349   4.351   0.222
80429W        W81294  11.484   5.167   1.003
80430W        W81295  11.255   7.019   2.440
80431W        W81296  14.050   5.245   0.548
80432W        W81297  14.145   4.161   3.234
80433W        W81298  13.581   6.370   1.197
80434W        W81299  11.179   5.294   3.374
80435W        W81300  14.145   3.758   0.670
80436W        W81301  13.665   6.233   0.681
80437W        W81302  12.567   5.291   0.766
80438W        W81303  13.754   4.095   0.289
80439W        W81304  13.819   4.702   2.475
80440W        W81305  11.528   5.295   1.682
80441W        W81306  11.822   6.234   1.331
80442W        W81307  13.585   4.854   1.296
80443W        W81308  12.608   4.233   1.992
80444W        W81309  14.570   6.144   2.503
80445W        W81310  14.488   4.131   2.064
80446W        W81311  11.027   6.961   1.440
80447W        W81312  11.536   6.148   0.976
80448W        W81313  11.451   3.765   3.529
80449W        W81314  12.570   6.618   3.631
80450W        W81315  14.325   5.586   1.421
80451W        W81316  13.679   5.763   0.301
80452W        W81317  12.974   7.284   2.513
80453W        W81318  13.831   6.006   3.550
80454W        W81319  12.646   3.716   0.830
80455W        W81320  13.359   4.585   1.689
80456W        W81321  11.045   6.172   2.021
80457W        W81322  12.298   4.134   0.662
80458W        W81323  12.102   5.618   3.511
80459W        W81324  13.096   4.599   1.225
80460W        W81325  13.301   6.009   2.347
80461W        W81326  11.455   6.614   2.782
80462W        W81327  12.046   6.597   3.505
80463W        W81328  11.897   4.394   0.519
80464W        W81329  13.414   4.536   0.844
80465W        W81330  13.372   6.644   3.081
80466W        W81331  12.057   5.236   1.680
80467W        W81332  11.712   6.934   2.545
80468W        W81333  14.457   7.051   0.146
80469W        W81334  11.320   5.723   3.142
80470W        W81335  13.315   5.985   1.830
80471W        W81336  11.751   5.634   1.072
80472W        W81337  12.122   6.641   2.467
80473W        W81338  12.500   4.060   1.508
80474W        W81339  11.111   6.044   0.438
80475W        W81340  12.630   4.995   0.308
80476W        W81341  11.276   5.544   1.327
80477W        W81342  12.566   4.186   2.791
80478W        W81343  14.238   3.895   0.218
80479W        W81344  14.331   5.641   3.317
80480W        W81345  12.985   6.898   3.469
80481W        W81346  14.543   5.992   2.991
80482W        W81347  13.951   6.790   3.602
80483W        W81348  11.690   7.246   2.080
80484W        W81349  14.549   5.868   0.954
80485W        W81350  13.079   5.135   1.467
80486W        W81351  12.846   3.747   1.357
80487W        W81352  11.905   6.731   1.194
80488W        W81353  12.404   4.472   2.419
80489W        W81354  12.104   3.841   1.888
80490W        W81355  11.167   6.663   0.436
80491W        W81356  12.983   6.027   1.154
80492W        W81357  11.858   6.822   3.033
80493W        W81358  11.335   5.645   0.729
80494W        W81359  11.220   4.188   1.728
80495W        W81360  12.768   6.153   1.785
80496W        W81361  11.020   4.007   0.805
80497W        W81362  13.684   5.213   2.732
80498W        W81363  13.561   4.599   0.304
80499W        W81364  14.078   6.271   1.952
80500W        W81365  12.739   6.755   1.783
80501W        W81366  12.151   6.859   0.694
80502W        W81367  13.433   3.762   0.124
80503W        W81368  11.233   7.022   1.865
80504W        W81369  13.430   4.780   3.500
80505W        W81370  11.413   4.310   3.499
80506W        W81371  11.144   4.910   0.832
80507W        W81372  11.835   4.899   0.557
80508W        W81373  13.598   5.226   3.374
80509W        W81374  11.941   5.507   2.083
80510W        W81375  13.415   3.793   1.203
80511W        W81376  12.546   7.224   1.706
80512W        W81377  13.760   6.686   2.643
80513W        W81378  13.344   6.835   1.754
80514W        W81379  13.363   5.815   1.348
80515W        W81380  12.825   4.040   0.419
80516W        W81381  14.506   3.668   1.141
80517W        W81382  12.194   5.303   0.304
80518W        W81383  14.360   4.640   1.294
80519W        W81384  13.052   5.810   0.171
80520W        W81385  13.988   6.010   2.919
80521W        W81386  13.642   6.711   0.386
80522W        W81387  12.257   4.386   3.292
80523W        W81388  12.077   4.970   2.533
80524W        W81389  14.169   6.465   2.810
80525W        W81390  13.269   4.415   3.187
80526W        W81391  11.113   4.886   2.964
80527W        W81392  12.873   5.363   2.690
80528W        W81393  11.230   6.121   1.347
80529W        W81394  11.377   5.418   2.237
80530W        W81395  13.694   5.704   2.587
80531W        W81396  13.466   7.084   3.398
80532W        W81397  13.362   4.823   2.951
80533W        W81398  13.639   6.877   1.356
80534W        W81399  12.641   6.597   2.679
80535W        W81400  12.126   6.952   1.948
80536W        W81401  13.931   6.123   2.367
80537W        W81402  12.981   6.195   3.504
80538W        W81403  11.586   6.148   1.843
80539W        W81404  13.932   5.907   1.488
80540W        W81405  13.573   6.973   2.239
80541W        W81406  11.551   6.702   2.109
80542W        W81407  12.572   4.754   3.319
80543W        W81408  13.023   6.920   0.830
80544W        W81409  12.331   6.175   3.468
80545W        W81410  12.457   6.413   0.845
80546W        W81411  11.678   5.153   0.104
80547W        W81412  11.017   7.239   7.003
80548W        W81413  11.393   6.132   6.526
80549W        W81414  14.098   5.862   4.296
80550W        W81415  14.228   6.947   6.323
80551W        W81416  12.146   6.938   3.849
80552W        W81417  12.229   5.090   4.832
80553W        W81418  11.744   4.938   4.996
80554W        W81419  12.735   5.753   4.430
80555W        W81420  12.410   6.845   6.785
80556W        W81421  11.059   4.406   6.748
80557W        W81422  11.821   3.686   6.550
80558W        W81423  13.515   4.074   5.437
80559W        W81424  13.164   4.945   4.007
80560W        W81425  13.734   4.379   7.098
80561W        W81426  11.100   4.171   6.223
80562W        W81427  11.199   6.790   7.244
80563W        W81428  12.721   6.180   3.976
80564W        W81429  11.153   4.963   5.669
80565W        W81430  12.046   4.854   6.906
80566W        W81431  14.505   4.713   5.405
80567W        W81432  14.269   5.756   6.264
80568W        W81433  12.577   5.089   5.291
80569W        W81434  13.123   6.428   5.660
80570W        W81435  11.623   5.862   5.892
80571W        W81436  10.982   5.390   5.463
80572W        W81437  12.018   5.362   6.655
80573W        W81438  14.289   5.145   6.909
80574W        W81439  11.905   6.589   5.354
80575W        W81440  13.026   6.278   6.488
80576W        W81441  12.246   4.918   5.713
80577W        W81442  12.538   5.702   5.356
80578W        W81443  13.535   6.475   7.204
80579W        W81444  12.614   5.795   7.214
80580W        W81445  12.595   5.511   6.692
80581W        W81446  11.004   4.902   7.214
80582W        W81447  13.836   6.437   6.813
80583W        W81448  11.417   4.019   4.811
80584W        W81449  11.944   6.277   5.810
80585W        W81450  14.407   6.060   5.100
80586W        W81451  13.820   4.460   5.667
80587W        W81452  14.105   4.413   3.762
80588W        W81453  14.570   5.214   6.068
80589W        W81454  12.537   6.921   5.821
80590W        W81455  14.311   6.387   4.259
80591W        W81456  11.440   7.173   4.013
80592W        W81457  11.833   7.219   4.689
80593W        W81458  11.630   3.973   6.115
80594W        W81459  14.253   4.991   6.390
80595W        W81460  13.658   5.413   4.849
80596W        W81461  13.624   5.101   3.876
80597W        W81462  12.832   6.245   6.016
80598W        W81463  12.638   4.575   5.215
80599W        W81464  13.238   6.662   6.209
80600W        W81465  14.109   5.453   4.631
80601W        W81466  13.011   4.111   4.647
80602W        W81467  11.668   6.805   4.330
80603W        W81468  11.039   4.304   4.929
80604W        W81469  13.825   4.911   5.403
80605W        W81470  11.283   6.528   5.318
80606W        W81471  12.624   6.878   4.188
80607W        W81472  14.016   4.904   3.652
80608W        W81473  11.039   6.662   5.816
80609W        W81474  11.830   6.234   6.296
80610W        W81475  12.203   5.594   4.915
80611W        W81476  12.225   3.999   6.008
80612W        W81477  14.454   3.761   5.305
80613W        W81478  11.673   5.633   3.773
80614W        W81479  11.328   4.666   3.952
80615W        W81480  11.390   6.622   4.746
80616W        W81481  12.521   6.105   4.994
80617W        W81482  13.853   6.964   6.708
80618W        W81483  12.779   4.606   4.392
80619W        W81484  14.162   7.004   5.164
80620W        W81485  13.839   4.857   6.762
80621W        W81486  14.552   6.513   4.896
80622W        W81487  13.179   5.805   6.380
80623W        W81488  10.945   5.356   4.586
80624W        W81489  12.056   5.771   6.159
80625W        W81490  13.260   5.035   4.537
80626W        W81491  13.137   5.525   4.641
80627W        W81492  11.480   4.945   6.115
80628W        W81493  11.465   4.821   7.037
80629W        W81494  11.355   3.738   5.196
80630W        W81495  13.123   4.085   5.757
80631W        W81496  12.771   4.270   6.920
80632W        W81497  13.126   4.419   4.098
80633W        W81498  14.309   6.812   6.852
80634W        W81499  13.276   3.893   6.891
80635W        W81500  14.295   6.194   7.013
80636W        W81501  13.725   4.361   6.609
80637W        W81502  13.525   4.299   4.879
80638W        W81503  13.918   5.433   7.283
80639W        W81504  11.658   7.009   5.269
80640W        W81505  12.316   4.726   4.255
80641W        W81506  11.885   4.010   6.919
80642W        W81507  13.937   4.494   4.600
80643W        W81508  14.304   4.976   4.545
80644W        W81509  12.047   7.193   7.016
80645W        W81510  11.973   3.729   4.251
80646W        W81511  14.294   4.263   5.286
80647W        W81512  14.444   6.512   3.731
80648W        W81513  11.351   5.715   5.433
80649W        W81514  13.268   4.302   3.663
80650W        W81515  14.402   6.634   5.383
80651W        W81516  14.441   3.828   6.133
80652W        W81517  12.886   5.040   6.687
80653W        W81518  12.979   6.379   4.390
80654W        W81519  13.379   5.673   7.130
80655W        W81520  13.053   3.650   5.439
80656W        W81521  11.665   4.553   5.502
80657W        W81522  11.219   5.753   6.276
80658W        W81523  13.078   6.946   4.982
80659W        W81524  14.272   4.543   5.854
80660W        W81525  12.909   6.890   6.621
80661W        W81526  14.252   5.949   3.826
80662W        W81527  12.687   5.432   4.887
80663W        W81528  14.539   3.943   6.628
80664W        W81529  12.688   5.778   6.222
80665W        W81530  12.905   4.664   5.667
80666W        W81531  13.757   4.962   4.505
80667W        W81532  14.044   4.695   4.147
80668W        W81533  13.853   6.735   4.536
80669W        W81534  13.687   6.338   5.332
80670W        W81535  13.583   5.417   4.310
80671W        W81536  13.016   5.627   5.296
80672W        W81537  13.897   5.415   5.363
80673W        W81538  11.272   4.430   5.787
80674W        W81539  14.050   5.482   6.614
80675W        W81540  14.401   7.100   5.760
80676W        W81541  12.331   6.544   5.162
80677W        W81542  13.338   7.077   6.486
80678W        W81543  13.332   4.407   6.250
80679W        W81544  12.539   7.115   6.311
80680W        W81545  14.236   4.069   4.777
80681W        W81546  14.027   5.388   6.078
80682W        W81547  11.010   4.709   6.116
80683W        W81548  13.870   4.504   5.134
80684W        W81549  14.281   4.655   6.911
80685W        W81550  13.166   6.354   5.129
80686W        W81551  12.422   6.945   4.742
80687W        W81552  11.537   4.125   4.000
80688W        W81553  12.641   3.779   5.810
80689W        W81554  11.669   6.899   3.658
80690W        W81555  12.043   5.365   4.409
80691W        W81556  12.697   5.994   6.722
80692W        W81557  12.527   4.352   4.712
80693W        W81558  13.883   3.949   5.140
80694W        W81559  13.603   7.231   5.468
80695W        W81560  13.015   6.879   5.808
80696W        W81561  12.411   5.916   5.769
80697W        W81562  14.181   6.639   5.895
80698W        W81563  11.875   4.142   4.664
80699W        W81564  12.397   6.439   5.624
80700W        W81565  11.880   4.370   3.689
80701W        W81566  12.681   4.979   6.083
80702W        W81567  13.529   3.845   5.953
80703W        W81568  10.949   5.688   5.838
80704W        W81569  12.653   5.506   3.996
80705W        W81570  11.921   3.821   3.766
80706W        W81571  12.659   4.902   4.817
80707W        W81572  13.629   3.878   6.516
80708W        W81573  12.217   5.890   6.625
80709W        W81574  13.021   5.672   6.842
80710W        W81575  13.638   5.702   6.735
80711W        W81576  12.922   3.842   7.240
80712W        W81577  12.144   4.458   5.633
80713W        W81578  11.570   4.414   5.031
80714W        W81579  11.356   7.126   4.707
80715W        W81580  12.688   6.456   6.832
80716W        W81581  11.723   5.941   4.191
80717W        W81582  13.403   5.326   5.412
80718W        W81583  13.683   5.125   5.811
80719W        W81584  12.888   5.799   5.745
80720W        W81585  13.358   6.173   3.877
80721W        W81586  13.030   4.194   5.205
80722W        W81587  14.509   4.472   4.473
80723W        W81588  11.003   7.061   6.504
80724W        W81589  11.420   6.287   6.036
80725W        W81590  10.987   7.133   4.268
80726W        W81591  12.886   4.403   6.074
80727W        W81592  12.249   6.426   3.923
80728W        W81593  14.154   6.808   4.109
80729W        W81594  13.129   5.461   4.123
80730W        W81595  11.972   4.652   4.640
80731W        W81596  12.804   4.562   3.692
80732W        W81597  13.388   6.127   6.870
80733W        W81598  13.741   4.033   4.487
80734W        W81599  11.071   3.881   3.935
80735W        W81600  12.357   6.200   6.225
80736W        W81601  12.156   6.116   5.317
80737W        W81602  11.898   6.068   3.715
80738W        W81603  11.139   6.309   4.483
80739W        W81604  11.643   5.379   6.925
80740W        W81605  12.347   3.939   7.111
80741W        W81606  13.056   4.081   6.467
80742W        W81607  12.251   3.849   4.748
80743W        W81608  13.310   3.926   4.253
80744W        W81609  11.255   3.858   5.830
80745W        W81610  11.303   4.821   5.200
80746W        W81611  13.992   3.929   5.606
80747W        W81612  11.414   4.427   4.420
80748W        W81613  13.985   4.115   6.036
80749W        W81614  14.381   5.318   3.721
80750W        W81615  11.673   4.076   5.540
80751W        W81616  12.787   4.648   6.480
80752W        W81617  10.935   4.338   3.958
80753W        W81618  11.721   5.727   6.519
80754W        W81619  13.079   5.125   5.698
80755W        W81620  12.946   7.204   3.994
80756W        W81621  11.092   5.711   3.691
80757W        W81622  11.827   6.122   6.817
80758W        W81623  11.348   5.289   6.448
80759W        W81624  12.339   5.394   6.242
80760W        W81625  14.107   3.753   6.504
80761W        W81626  14.505   5.363   6.495
80762W        W81627  14.493   5.563   4.181
80763W        W81628  13.356   5.895   4.280
80764W        W81629  13.830   7.195   3.975
80765W        W81630  13.007   5.185   7.117
80766W        W81631  11.337   6.152   7.157
80767W        W81632  14.543   4.074   7.109
80768W        W81633  14.261   5.002   5.730
80769W        W81634  12.569   7.132   7.207
80770W        W81635  12.424   3.761   3.934
80771W        W81636  13.963   6.360   3.877
80772W        W81637  11.732   4.453   6.763
80773W        W81638  12.166   6.447   6.625
80774W        W81639  14.292   4.438   6.423
80775W        W81640  13.503   7.097   4.391
80776W        W81641  13.742   5.716   5.758
80777W        W81642  11.992   4.132   6.425
80778W        W81643  12.461   5.201   7.182
80779W        W81644  11.964   6.380   4.376
80780W        W81645  13.719   5.878   4.640
80781W        W81646  11.487   4.504   6.364
80782W        W81647  12.816   6.566   4.828
80783W        W81648  14.566   5.126   5.009
80784W        W81649  12.788   3.759   6.728
80785W        W81650  13.568   6.464   5.807
80786W        W81651  13.871   6.808   5.515
80787W        W81652  13.090   6.610   3.943
80788W        W81653  11.100   6.502   6.785
80789W        W81654  11.843   4.494   6.023
80790W        W81655  11.813   3.842   5.133
80791W        W81656  13.434   4.684   5.825
80792W        W81657  12.232   5.855   4.025
80793W        W81658  14.230   5.797   5.524
80794W        W81659  11.557   6.555   6.947
80795W        W81660  13.944   7.237   4.744
80796W        W81661  12.043   4.257   5.189
80797W        W81662  11.812   5.750   5.279
80798W        W81663  12.125   7.161   6.029
80799W        W81664  14.192   7.257   7.061
80800W        W81665  13.351   5.445   5.994
80801W        W81666  11.200   5.243   3.909
80802W        W81667  14.334   6.901   4.606
80803W        W81668  14.171   4.225   4.225
80804W        W81669  12.310   3.744   6.628
80805W        W81670  14.016   6.546   5.086
80806W        W81671  14.045   5.102   4.991
80807W        W81672  12.162   4.775   5.207
80808W        W81673  12.407   5.037   6.531
80809W        W81674  13.518   6.190   6.394
80810W        W81675  12.168   4.644   6.506
80811W        W81676  12.147   7.110   5.122
80812W        W81677  11.464   7.069   6.756
80813W        W81678  11.576   6.430   3.886
80814W        W81679  14.093   6.188   4.696
80815W        W81680  11.697   4.980   6.582
80816W        W81681  14.470   4.910   4.063
80817W        W81682  12.215   5.967   4.534
80818W        W81683  13.314   5.349   6.615
80819W        W81684  13.205   4.977   6.159
80820W        W81685  11.765   5.349   6.188
80821W        W81686  13.975   7.237   6.017
80822W        W81687  13.766   3.871   7.011
80823W        W81688  11.430   4.021   6.598
80824W        W81689  11.769   5.044   5.651
80825W        W81690  12.138   4.858   3.773
80826W        W81691  10.941   6.617   6.318
80827W        W81692  12.526   5.326   5.761
80828W        W81693  12.349   4.351   3.866
80829W        W81694  11.484   5.167   4.647
80830W        W81695  11.255   7.019   6.084
80831W        W81696  14.050   5.245   4.192
80832W        W81697  14.145   4.161   6.878
80833W        W81698  13.581   6.370   4.841
80834W        W81699  11.179   5.294   7.018
80835W        W81700  14.145   3.758   4.314
80836W        W81701  13.665   6.233   4.325
80837W        W81702  12.567   5.291   4.410
80838W        W81703  13.754   4.095   3.933
80839W        W81704  13.819   4.702   6.119
80840W        W81705  11.528   5.295   5.326
80841W        W81706  11.822   6.234   4.975
80842W        W81707  13.585   4.854   4.940
80843W        W81708  12.608   4.233   5.636
80844W        W81709  14.570   6.144   6.147
80845W        W81710  14.488   4.131   5.708
80846W        W81711  11.027   6.961   5.084
80847W        W81712  11.536   6.148   4.620
80848W        W81713  11.451   3.765   7.173
80849W        W81714  12.570   6.618   7.275
80850W        W81715  14.325   5.586   5.065
80851W        W81716  13.679   5.763   3.945
80852W        W81717  12.974   7.284   6.157
80853W        W81718  13.831   6.006   7.194
80854W        W81719  12.646   3.716   4.474
80855W        W81720  13.359   4.585   5.333
80856W        W81721  11.045   6.172   5.665
80857W        W81722  12.298   4.134   4.306
80858W        W81723  12.102   5.618   7.155
80859W        W81724  13.096   4.599   4.869
80860W        W81725  13.301   6.009   5.991
80861W        W81726  11.455   6.614   6.426
80862W        W81727  12.046   6.597   7.149
80863W        W81728  11.897   4.394   4.163
80864W        W81729  13.414   4.536   4.488
80865W        W81730  13.372   6.644   6.725
80866W        W81731  12.057   5.236   5.324
80867W        W81732  11.712   6.934   6.189
80868W        W81733  14.457   7.051   3.790
80869W        W81734  11.320   5.723   6.786
80870W        W81735  13.315   5.985   5.474
80871W        W81736  11.751   5.634   4.716
80872W        W81737  12.122   6.641   6.111
80873W        W81738  12.500   4.060   5.152
80874W        W81739  11.111   6.044   4.082
80875W        W81740  12.630   4.995   3.952
80876W        W81741  11.276   5.544   4.971
80877W        W81742  12.566   4.186   6.435
80878W        W81743  14.238   3.895   3.862
80879W        W81744  14.331   5.641   6.961
80880W        W81745  12.985   6.898   7.113
80881W        W81746  14.543   5.992   6.635
80882W        W81747  13.951   6.790   7.246
80883W        W81748  11.690   7.246   5.724
80884W        W81749  14.549   5.868   4.598
80885W        W81750  13.079   5.135   5.111
80886W        W81751  12.846   3.747   5.001
80887W        W81752  11.905   6.731   4.838
80888W        W81753  12.404   4.472   6.063
80889W        W81754  12.104   3.841   5.532
80890W        W81755  11.167   6.663   4.080
80891W        W81756  12.983   6.027   4.798
80892W        W81757  11.858   6.822   6.677
80893W        W81758  11.335   5.645   4.373
80894W        W81759  11.220   4.188   5.372
80895W        W81760  12.768   6.153   5.429
80896W        W81761  11.020   4.007   4.449
80897W        W81762  13.684   5.213   6.376
80898W        W81763  13.561   4.599   3.948
80899W        W81764  14.078   6.271   5.596
80900W        W81765  12.739   6.755   5.427
80901W        W81766  12.151   6.859   4.338
80902W        W81767  13.433   3.762   3.768
80903W        W81768  11.233   7.022   5.509
80904W        W81769  13.430   4.780   7.144
80905W        W81770  11.413   4.310   7.143
80906W        W81771  11.144   4.910   4.476
80907W        W81772  11.835   4.899   4.201
80908W        W81773  13.598   5.226   7.018
80909W        W81774  11.941   5.507   5.727
80910W        W81775  13.415   3.793   4.847
80911W        W81776  12.546   7.224   5.350
80912W        W81777  13.760   6.686   6.287
80913W        W81778  13.344   6.835   5.398
80914W        W81779  13.363   5.815   4.992
80915W        W81780  12.825   4.040   4.063
80916W        W81781  14.506   3.668   4.785
80917W        W81782  12.194   5.303   3.948
80918W        W81783  14.360   4.640   4.938
80919W        W81784  13.052   5.810   3.815
80920W        W81785  13.988   6.010   6.563
80921W        W81786  13.642   6.711   4.030
80922W        W81787  12.257   4.386   6.936
80923W        W81788  12.077   4.970   6.177
80924W        W81789  14.169   6.465   6.454
80925W        W81790  13.269   4.415   6.831
80926W        W81791  11.113   4.886   6.608
80927W        W81792  12.873   5.363   6.334
80928W        W81793  11.230   6.121   4.991
80929W        W81794  11.377   5.418   5.881
80930W        W81795  13.694   5.704   6.231
80931W        W81796  13.466   7.084   7.042
80932W        W81797  13.362   4.823   6.595
80933W        W81798  13.639   6.877   5.000
80934W        W81799  12.641   6.597   6.323
80935W        W81800  12.126   6.952   5.592
80936W        W81801  13.931   6.123   6.011
80937W        W81802  12.981   6.195   7.148
80938W        W81803  11.586   6.148   5.487
80939W        W81804  13.932   5.907   5.132
80940W        W81805  13.573   6.973   5.883
80941W        W81806  11.551   6.702   5.753
80942W        W81807  12.572   4.754   6.963
80943W        W81808  13.023   6.920   4.474
80944W        W81809  12.331   6.175   7.112
80945W        W81810  12.457   6.413   4.489
80946W        W81811  11.678   5.153   3.748
80947W        W81812  11.017   7.239  10.648
80948W        W81813  11.393   6.132  10.171
80949W        W81814  14.098   5.862   7.941
80950W        W81815  14.228   6.947   9.968
80951W        W81816  12.146   6.938   7.494
80952W        W81817  12.229   5.090   8.477
80953W        W81818  11.744   4.938   8.641
80954W        W81819  12.735   5.753   8.075
80955W        W81820  12.410   6.845  10.430
80956W        W81821  11.059   4.406  10.393
80957W        W81822  11.821   3.686  10.195
80958W        W81823  13.515   4.074   9.082
80959W        W81824  13.164   4.945   7.652
80960W        W81825  13.734   4.379  10.743
80961W        W81826  11.100   4.171   9.868
80962W        W81827  11.199   6.790  10.889
80963W        W81828  12.721   6.180   7.621
80964W        W81829  11.153   4.963   9.314
80965W        W81830  12.046   4.854  10.551
80966W        W81831  14.505   4.713   9.050
80967W        W81832  14.269   5.756   9.909
80968W        W81833  12.577   5.089   8.936
80969W        W81834  13.123   6.428   9.305
80970W        W81835  11.623   5.862   9.537
80971W        W81836  10.982   5.390   9.108
80972W        W81837  12.018   5.362  10.300
80973W        W81838  14.289   5.145  10.554
80974W        W81839  11.905   6.589   8.999
80975W        W81840  13.026   6.278  10.133
80976W        W81841  12.246   4.918   9.358
80977W        W81842  12.538   5.702   9.001
80978W        W81843  13.535   6.475  10.849
80979W        W81844  12.614   5.795  10.859
80980W        W81845  12.595   5.511  10.337
80981W        W81846  11.004   4.902  10.859
80982W        W81847  13.836   6.437  10.458
80983W        W81848  11.417   4.019   8.456
80984W        W81849  11.944   6.277   9.455
80985W        W81850  14.407   6.060   8.745
80986W        W81851  13.820   4.460   9.312
80987W        W81852  14.105   4.413   7.407
80988W        W81853  14.570   5.214   9.713
80989W        W81854  12.537   6.921   9.466
80990W        W81855  14.311   6.387   7.904
80991W        W81856  11.440   7.173   7.658
80992W        W81857  11.833   7.219   8.334
80993W        W81858  11.630   3.973   9.760
80994W        W81859  14.253   4.991  10.035
80995W        W81860  13.658   5.413   8.494
80996W        W81861  13.624   5.101   7.521
80997W        W81862  12.832   6.245   9.661
80998W        W81863  12.638   4.575   8.860
80999W        W81864  13.238   6.662   9.854
81000W        W81865  14.109   5.453   8.276
81001W        W81866  13.011   4.111   8.292
81002W        W81867  11.668   6.805   7.975
81003W        W81868  11.039   4.304   8.574
81004W        W81869  13.825   4.911   9.048
81005W        W81870  11.283   6.528   8.963
81006W        W81871  12.624   6.878   7.833
81007W        W81872  14.016   4.904   7.297
81008W        W81873  11.039   6.662   9.461
81009W        W81874  11.830   6.234   9.941
81010W        W81875  12.203   5.594   8.560
81011W        W81876  12.225   3.999   9.653
81012W        W81877  14.454   3.761   8.950
81013W        W81878  11.673   5.633   7.418
81014W        W81879  11.328   4.666   7.597
81015W        W81880  11.390   6.622   8.391
81016W        W81881  12.521   6.105   8.639
81017W        W81882  13.853   6.964  10.353
81018W        W81883  12.779   4.606   8.037
81019W        W81884  14.162   7.004   8.809
81020W        W81885  13.839   4.857  10.407
81021W        W81886  14.552   6.513   8.541
81022W        W81887  13.179   5.805  10.025
81023W        W81888  10.945   5.356   8.231
81024W        W81889  12.056   5.771   9.804
81025W        W81890  13.260   5.035   8.182
81026W        W81891  13.137   5.525   8.286
81027W        W81892  11.480   4.945   9.760
81028W        W81893  11.465   4.821  10.682
81029W        W81894  11.355   3.738   8.841
81030W        W81895  13.123   4.085   9.402
81031W        W81896  12.771   4.270  10.565
81032W        W81897  13.126   4.419   7.743
81033W        W81898  14.309   6.812  10.497
81034W        W81899  13.276   3.893  10.536
81035W        W81900  14.295   6.194  10.658
81036W        W81901  13.725   4.361  10.254
81037W        W81902  13.525   4.299   8.524
81038W        W81903  13.918   5.433  10.928
81039W        W81904  11.658   7.009   8.914
81040W        W81905  12.316   4.726   7.900
81041W        W81906  11.885   4.010  10.564
81042W        W81907  13.937   4.494   8.245
81043W        W81908  14.304   4.976   8.190
81044W        W81909  12.047   7.193  10.661
81045W        W81910  11.973   3.729   7.896
81046W        W81911  14.294   4.263   8.931
81047W        W81912  14.444   6.512   7.376
81048W        W81913  11.351   5.715   9.078
81049W        W81914  13.268   4.302   7.308
81050W        W81915  14.402   6.634   9.028
81051W        W81916  14.441   3.828   9.778
81052W        W81917  12.886   5.040  10.332
81053W        W81918  12.979   6.379   8.035
81054W        W81919  13.379   5.673  10.775
81055W        W81920  13.053   3.650   9.084
81056W        W81921  11.665   4.553   9.147
81057W        W81922  11.219   5.753   9.921
81058W        W81923  13.078   6.946   8.627
81059W        W81924  14.272   4.543   9.499
81060W        W81925  12.909   6.890  10.266
81061W        W81926  14.252   5.949   7.471
81062W        W81927  12.687   5.432   8.532
81063W        W81928  14.539   3.943  10.273
81064W        W81929  12.688   5.778   9.867
81065W        W81930  12.905   4.664   9.312
81066W        W81931  13.757   4.962   8.150
81067W        W81932  14.044   4.695   7.792
81068W        W81933  13.853   6.735   8.181
81069W        W81934  13.687   6.338   8.977
81070W        W81935  13.583   5.417   7.955
81071W        W81936  13.016   5.627   8.941
81072W        W81937  13.897   5.415   9.008
81073W        W81938  11.272   4.430   9.432
81074W        W81939  14.050   5.482  10.259
81075W        W81940  14.401   7.100   9.405
81076W        W81941  12.331   6.544   8.807
81077W        W81942  13.338   7.077  10.131
81078W        W81943  13.332   4.407   9.895
81079W        W81944  12.539   7.115   9.956
81080W        W81945  14.236   4.069   8.422
81081W        W81946  14.027   5.388   9.723
81082W        W81947  11.010   4.709   9.761
81083W        W81948  13.870   4.504   8.779
81084W        W81949  14.281   4.655  10.556
81085W        W81950  13.166   6.354   8.774
81086W        W81951  12.422   6.945   8.387
81087W        W81952  11.537   4.125   7.645
81088W        W81953  12.641   3.779   9.455
81089W        W81954  11.669   6.899   7.303
81090W        W81955  12.043   5.365   8.054
81091W        W81956  12.697   5.994  10.367
81092W        W81957  12.527   4.352   8.357
81093W        W81958  13.883   3.949   8.785
81094W        W81959  13.603   7.231   9.113
81095W        W81960  13.015   6.879   9.453
81096W        W81961  12.411   5.916   9.414
81097W        W81962  14.181   6.639   9.540
81098W        W81963  11.875   4.142   8.309
81099W        W81964  12.397   6.439   9.269
81100W        W81965  11.880   4.370   7.334
81101W        W81966  12.681   4.979   9.728
81102W        W81967  13.529   3.845   9.598
81103W        W81968  10.949   5.688   9.483
81104W        W81969  12.653   5.506   7.641
81105W        W81970  11.921   3.821   7.411
81106W        W81971  12.659   4.902   8.462
81107W        W81972  13.629   3.878  10.161
81108W        W81973  12.217   5.890  10.270
81109W        W81974  13.021   5.672  10.487
81110W        W81975  13.638   5.702  10.380
81111W        W81976  12.922   3.842  10.885
81112W        W81977  12.144   4.458   9.278
81113W        W81978  11.570   4.414   8.676
81114W        W81979  11.356   7.126   8.352
81115W        W81980  12.688   6.456  10.477
81116W        W81981  11.723   5.941   7.836
81117W        W81982  13.403   5.326   9.057
81118W        W81983  13.683   5.125   9.456
81119W        W81984  12.888   5.799   9.390
81120W        W81985  13.358   6.173   7.522
81121W        W81986  13.030   4.194   8.850
81122W        W81987  14.509   4.472   8.118
81123W        W81988  11.003   7.061  10.149
81124W        W81989  11.420   6.287   9.681
81125W        W81990  10.987   7.133   7.913
81126W        W81991  12.886   4.403   9.719
81127W        W81992  12.249   6.426   7.568
81128W        W81993  14.154   6.808   7.754
81129W        W81994  13.129   5.461   7.768
81130W        W81995  11.972   4.652   8.285
81131W        W81996  12.804   4.562   7.337
81132W        W81997  13.388   6.127  10.515
81133W        W81998  13.741   4.033   8.132
81134W        W81999  11.071   3.881   7.580
81135W        W82000  12.357   6.200   9.870
81136W        W82001  12.156   6.116   8.962
81137W        W82002  11.898   6.068   7.360
81138W        W82003  11.139   6.309   8.128
81139W        W82004  11.643   5.379  10.570
81140W        W82005  12.347   3.939  10.756
81141W        W82006  13.056   4.081  10.112
81142W        W82007  12.251   3.849   8.393
81143W        W82008  13.310   3.926   7.898
81144W        W82009  11.255   3.858   9.475
81145W        W82010  11.303   4.821   8.845
81146W        W82011  13.992   3.929   9.251
81147W        W82012  11.414   4.427   8.065
81148W        W82013  13.985   4.115   9.681
81149W        W82014  14.381   5.318   7.366
81150W        W82015  11.673   4.076   9.185
81151W        W82016  12.787   4.648  10.125
81152W        W82017  10.935   4.338   7.603
81153W        W82018  11.721   5.727  10.164
81154W        W82019  13.079   5.125   9.343
81155W        W82020  12.946   7.204   7.639
81156W        W82021  11.092   5.711   7.336
81157W        W82022  11.827   6.122  10.462
81158W        W82023  11.348   5.289  10.093
81159W        W82024  12.339   5.394   9.887
81160W        W82025  14.107   3.753  10.149
81161W        W82026  14.505   5.363  10.140
81162W        W82027  14.493   5.563   7.826
81163W        W82028  13.356   5.895   7.925
81164W        W82029  13.830   7.195   7.620
81165W        W82030  13.007   5.185  10.762
81166W        W82031  11.337   6.152  10.802
81167W        W82032  14.543   4.074  10.754
81168W        W82033  14.261   5.002   9.375
81169W        W82034  12.569   7.132  10.852
81170W        W82035  12.424   3.761   7.579
81171W        W82036  13.963   6.360   7.522
81172W        W82037  11.732   4.453  10.408
81173W        W82038  12.166   6.447  10.270
81174W        W82039  14.292   4.438  10.068
81175W        W82040  13.503   7.097   8.036
81176W        W82041  13.742   5.716   9.403
81177W        W82042  11.992   4.132  10.070
81178W        W82043  12.461   5.201  10.827
81179W        W82044  11.964   6.380   8.021
81180W        W82045  13.719   5.878   8.285
81181W        W82046  11.487   4.504  10.009
81182W        W82047  12.816   6.566   8.473
81183W        W82048  14.566   5.126   8.654
81184W        W82049  12.788   3.759  10.373
81185W        W82050  13.568   6.464   9.452
81186W        W82051  13.871   6.808   9.160
81187W        W82052  13.090   6.610   7.588
81188W        W82053  11.100   6.502  10.430
81189W        W82054  11.843   4.494   9.668
81190W        W82055  11.813   3.842   8.778
81191W        W82056  13.434   4.684   9.470
81192W        W82057  12.232   5.855   7.670
81193W        W82058  14.230   5.797   9.169
81194W        W82059  11.557   6.555  10.592
81195W        W82060  13.944   7.237   8.389
81196W        W82061  12.043   4.257   8.834
81197W        W82062  11.812   5.750   8.924
81198W        W82063  12.125   7.161   9.674
81199W        W82064  14.192   7.257  10.706
81200W        W82065  13.351   5.445   9.639
81201W        W82066  11.200   5.243   7.554
81202W        W82067  14.334   6.901   8.251
81203W        W82068  14.171   4.225   7.870
81204W        W82069  12.310   3.744  10.273
81205W        W82070  14.016   6.546   8.731
81206W        W82071  14.045   5.102   8.636
81207W        W82072  12.162   4.775   8.852
81208W        W82073  12.407   5.037  10.176
81209W        W82074  13.518   6.190  10.039
81210W        W82075  12.168   4.644  10.151
81211W        W82076  12.147   7.110   8.767
81212W        W82077  11.464   7.069  10.401
81213W        W82078  11.576   6.430   7.531
81214W        W82079  14.093   6.188   8.341
81215W        W82080  11.697   4.980  10.227
81216W        W82081  14.470   4.910   7.708
81217W        W82082  12.215   5.967   8.179
81218W        W82083  13.314   5.349  10.260
81219W        W82084  13.205   4.977   9.804
81220W        W82085  11.765   5.349   9.833
81221W        W82086  13.975   7.237   9.662
81222W        W82087  13.766   3.871  10.656
81223W        W82088  11.430   4.021  10.243
81224W        W82089  11.769   5.044   9.296
81225W        W82090  12.138   4.858   7.418
81226W        W82091  10.941   6.617   9.963
81227W        W82092  12.526   5.326   9.406
81228W        W82093  12.349   4.351   7.511
81229W        W82094  11.484   5.167   8.292
81230W        W82095  11.255   7.019   9.729
81231W        W82096  14.050   5.245   7.837
81232W        W82097  14.145   4.161  10.523
81233W        W82098  13.581   6.370   8.486
81234W        W82099  11.179   5.294  10.663
81235W        W82100  14.145   3.758   7.959
81236W        W82101  13.665   6.233   7.970
81237W        W82102  12.567   5.291   8.055
81238W        W82103  13.754   4.095   7.578
81239W        W82104  13.819   4.702   9.764
81240W        W82105  11.528   5.295   8.971
81241W        W82106  11.822   6.234   8.620
81242W        W82107  13.585   4.854   8.585
81243W        W82108  12.608   4.233   9.281
81244W        W82109  14.570   6.144   9.792
81245W        W82110  14.488   4.131   9.353
81246W        W82111  11.027   6.961   8.729
81247W        W82112  11.536   6.148   8.265
81248W        W82113  11.451   3.765  10.818
81249W        W82114  12.570   6.618  10.920
81250W        W82115  14.325   5.586   8.710
81251W        W82116  13.679   5.763   7.590
81252W        W82117  12.974   7.284   9.802
81253W        W82118  13.831   6.006  10.839
81254W        W82119  12.646   3.716   8.119
81255W        W82120  13.359   4.585   8.978
81256W        W82121  11.045   6.172   9.310
81257W        W82122  12.298   4.134   7.951
81258W        W82123  12.102   5.618  10.800
81259W        W82124  13.096   4.599   8.514
81260W        W82125  13.301   6.009   9.636
81261W        W82126  11.455   6.614  10.071
81262W        W82127  12.046   6.597  10.794
81263W        W82128  11.897   4.394   7.808
81264W        W82129  13.414   4.536   8.133
81265W        W82130  13.372   6.644  10.370
81266W        W82131  12.057   5.236   8.969
81267W        W82132  11.712   6.934   9.834
81268W        W82133  14.457   7.051   7.435
81269W        W82134  11.320   5.723  10.431
81270W        W82135  13.315   5.985   9.119
81271W        W82136  11.751   5.634   8.361
81272W        W82137  12.122   6.641   9.756
81273W        W82138  12.500   4.060   8.797
81274W        W82139  11.111   6.044   7.727
81275W        W82140  12.630   4.995   7.597
81276W        W82141  11.276   5.544   8.616
81277W        W82142  12.566   4.186  10.080
81278W        W82143  14.238   3.895   7.507
81279W        W82144  14.331   5.641  10.606
81280W        W82145  12.985   6.898  10.758
81281W        W82146  14.543   5.992  10.280
81282W        W82147  13.951   6.790  10.891
81283W        W82148  11.690   7.246   9.369
81284W        W82149  14.549   5.868   8.243
81285W        W82150  13.079   5.135   8.756
81286W        W82151  12.846   3.747   8.646
81287W        W82152  11.905   6.731   8.483
81288W        W82153  12.404   4.472   9.708
81289W        W82154  12.104   3.841   9.177
81290W        W82155  11.167   6.663   7.725
81291W        W82156  12.983   6.027   8.443
81292W        W82157  11.858   6.822  10.322
81293W        W82158  11.335   5.645   8.018
81294W        W82159  11.220   4.188   9.017
81295W        W82160  12.768   6.153   9.074
81296W        W82161  11.020   4.007   8.094
81297W        W82162  13.684   5.213  10.021
81298W        W82163  13.561   4.599   7.593
81299W        W82164  14.078   6.271   9.241
81300W        W82165  12.739   6.755   9.072
81301W        W82166  12.151   6.859   7.983
81302W        W82167  13.433   3.762   7.413
81303W        W82168  11.233   7.022   9.154
81304W        W82169  13.430   4.780  10.789
81305W        W82170  11.413   4.310  10.788
81306W        W82171  11.144   4.910   8.121
81307W        W82172  11.835   4.899   7.846
81308W        W82173  13.598   5.226  10.663
81309W        W82174  11.941   5.507   9.372
81310W        W82175  13.415   3.793   8.492
81311W        W82176  12.546   7.224   8.995
81312W        W82177  13.760   6.686   9.932
81313W        W82178  13.344   6.835   9.043
81314W        W82179  13.363   5.815   8.637
81315W        W82180  12.825   4.040   7.708
81316W        W82181  14.506   3.668   8.430
81317W        W82182  12.194   5.303   7.593
81318W        W82183  14.360   4.640   8.583
81319W        W82184  13.052   5.810   7.460
81320W        W82185  13.988   6.010  10.208
81321W        W82186  13.642   6.711   7.675
81322W        W82187  12.257   4.386  10.581
81323W        W82188  12.077   4.970   9.822
81324W        W82189  14.169   6.465  10.099
81325W        W82190  13.269   4.415  10.476
81326W        W82191  11.113   4.886  10.253
81327W        W82192  12.873   5.363   9.979
81328W        W82193  11.230   6.121   8.636
81329W        W82194  11.377   5.418   9.526
81330W        W82195  13.694   5.704   9.876
81331W        W82196  13.466   7.084  10.687
81332W        W82197  13.362   4.823  10.240
81333W        W82198  13.639   6.877   8.645
81334W        W82199  12.641   6.597   9.968
81335W        W82200  12.126   6.952   9.237
81336W        W82201  13.931   6.123   9.656
81337W        W82202  12.981   6.195  10.793
81338W        W82203  11.586   6.148   9.132
81339W        W82204  13.932   5.907   8.777
81340W        W82205  13.573   6.973   9.528
81341W        W82206  11.551   6.702   9.398
81342W        W82207  12.572   4.754  10.608
81343W        W82208  13.023   6.920   8.119
81344W        W82209  12.331   6.175  10.757
81345W        W82210  12.457   6.413   8.134
81346W        W82211  11.678   5.153   7.393
81347W        W82212  11.017   7.239  14.292
81348W        W82213  11.393   6.132  13.815
81349W        W82214  14.098   5.862  11.585
81350W        W82215  14.228   6.947  13.612
81351W        W82216  12.146   6.938  11.138
81352W        W82217  12.229   5.090  12.121
81353W        W82218  11.744   4.938  12.285
81354W        W82219  12.735   5.753  11.719
81355W        W82220  12.410   6.845  14.074
81356W        W82221  11.059   4.406  14.037
81357W        W82222  11.821   3.686  13.839
81358W        W82223  13.515   4.074  12.726
81359W        W82224  13.164   4.945  11.296
81360W        W82225  13.734   4.379  14.387
81361W        W82226  11.100   4.171  13.512
81362W        W82227  11.199   6.790  14.533
81363W        W82228  12.721   6.180  11.265
81364W        W82229  11.153   4.963  12.958
81365W        W82230  12.046   4.854  14.195
81366W        W82231  14.505   4.713  12.694
81367W        W82232  14.269   5.756  13.553
81368W        W82233  12.577   5.089  12.580
81369W        W82234  13.123   6.428  12.949
81370W        W82235  11.623   5.862  13.181
81371W        W82236  10.982   5.390  12.752
81372W        W82237  12.018   5.362  13.944
81373W        W82238  14.289   5.145  14.198
81374W        W82239  11.905   6.589  12.643
81375W        W82240  13.026   6.278  13.777
81376W        W82241  12.246   4.918  13.002
81377W        W82242  12.538   5.702  12.645
81378W        W82243  13.535   6.475  14.493
81379W        W82244  12.614   5.795  14.503
81380W        W82245  12.595   5.511  13.981
81381W        W82246  11.004   4.902  14.503
81382W        W82247  13.836   6.437  14.102
81383W        W82248  11.417   4.019  12.100
81384W        W82249  11.944   6.277  13.099
81385W        W82250  14.407   6.060  12.389
81386W        W82251  13.820   4.460  12.956
81387W        W82252  14.105   4.413  11.051
81388W        W82253  14.570   5.214  13.357
81389W        W82254  12.537   6.921  13.110
81390W        W82255  14.311   6.387  11.548
81391W        W82256  11.440   7.173  11.302
81392W        W82257  11.833   7.219  11.978
81393W        W82258  11.630   3.973  13.404
81394W        W82259  14.253   4.991  13.679
81395W        W82260  13.658   5.413  12.138
81396W        W82261  13.624   5.101  11.165
81397W        W82262  12.832   6.245  13.305
81398W        W82263  12.638   4.575  12.504
81399W        W82264  13.238   6.662  13.498
81400W        W82265  14.109   5.453  11.920
81401W        W82266  13.011   4.111  11.936
81402W        W82267  11.668   6.805  11.619
81403W        W82268  11.039   4.304  12.218
81404W        W82269  13.825   4.911  12.692
81405W        W82270  11.283   6.528  12.607
81406W        W82271  12.624   6.878  11.477
81407W        W82272  14.016   4.904  10.941
81408W        W82273  11.039   6.662  13.105
81409W        W82274  11.830   6.234  13.585
81410W        W82275  12.203   5.594  12.204
81411W        W82276  12.225   3.999  13.297
81412W        W82277  14.454   3.761  12.594
81413W        W82278  11.673   5.633  11.062
81414W        W82279  11.328   4.666  11.241
81415W        W82280  11.390   6.622  12.035
81416W        W82281  12.521   6.105  12.283
81417W        W82282  13.853   6.964  13.997
81418W        W82283  12.779   4.606  11.681
81419W        W82284  14.162   7.004  12.453
81420W        W82285  13.839   4.857  14.051
81421W        W82286  14.552   6.513  12.185
81422W        W82287  13.179   5.805  13.669
81423W        W82288  10.945   5.356  11.875
81424W        W82289  12.056   5.771  13.448
81425W        W82290  13.260   5.035  11.826
81426W        W82291  13.137   5.525  11.930
81427W        W82292  11.480   4.945  13.404
81428W        W82293  11.465   4.821  14.326
81429W        W82294  11.355   3.738  12.485
81430W        W82295  13.123   4.085  13.046
81431W        W82296  12.771   4.270  14.209
81432W        W82297  13.126   4.419  11.387
81433W        W82298  14.309   6.812  14.141
81434W        W82299  13.276   3.893  14.180
81435W        W82300  14.295   6.194  14.302
81436W        W82301  13.725   4.361  13.898
81437W        W82302  13.525   4.299  12.168
81438W        W82303  13.918   5.433  14.572
81439W        W82304  11.658   7.009  12.558
81440W        W82305  12.316   4.726  11.544
81441W        W82306  11.885   4.010  14.208
81442W        W82307  13.937   4.494  11.889
81443W        W82308  14.304   4.976  11.834
81444W        W82309  12.047   7.193  14.305
81445W        W82310  11.973   3.729  11.540
81446W        W82311  14.294   4.263  12.575
81447W        W82312  14.444   6.512  11.020
81448W        W82313  11.351   5.715  12.722
81449W        W82314  13.268   4.302  10.952
81450W        W82315  14.402   6.634  12.672
81451W        W82316  14.441   3.828  13.422
81452W        W82317  12.886   5.040  13.976
81453W        W82318  12.979   6.379  11.679
81454W        W82319  13.379   5.673  14.419
81455W        W82320  13.053   3.650  12.728
81456W        W82321  11.665   4.553  12.791
81457W        W82322  11.219   5.753  13.565
81458W        W82323  13.078   6.946  12.271
81459W        W82324  14.272   4.543  13.143
81460W        W82325  12.909   6.890  13.910
81461W        W82326  14.252   5.949  11.115
81462W        W82327  12.687   5.432  12.176
81463W        W82328  14.539   3.943  13.917
81464W        W82329  12.688   5.778  13.511
81465W        W82330  12.905   4.664  12.956
81466W        W82331  13.757   4.962  11.794
81467W        W82332  14.044   4.695  11.436
81468W        W82333  13.853   6.735  11.825
81469W        W82334  13.687   6.338  12.621
81470W        W82335  13.583   5.417  11.599
81471W        W82336  13.016   5.627  12.585
81472W        W82337  13.897   5.415  12.652
81473W        W82338  11.272   4.430  13.076
81474W        W82339  14.050   5.482  13.903
81475W        W82340  14.401   7.100  13.049
81476W        W82341  12.331   6.544  12.451
81477W        W82342  13.338   7.077  13.775
81478W        W82343  13.332   4.407  13.539
81479W        W82344  12.539   7.115  13.600
81480W        W82345  14.236   4.069  12.066
81481W        W82346  14.027   5.388  13.367
81482W        W82347  11.010   4.709  13.405
81483W        W82348  13.870   4.504  12.423
81484W        W82349  14.281   4.655  14.200
81485W        W82350  13.166   6.354  12.418
81486W        W82351  12.422   6.945  12.031
81487W        W82352  11.537   4.125  11.289
81488W        W82353  12.641   3.779  13.099
81489W        W82354  11.669   6.899  10.947
81490W        W82355  12.043   5.365  11.698
81491W        W82356  12.697   5.994  14.011
81492W        W82357  12.527   4.352  12.001
81493W        W82358  13.883   3.949  12.429
81494W        W82359  13.603   7.231  12.757
81495W        W82360  13.015   6.879  13.097
81496W        W82361  12.411   5.916  13.058
81497W        W82362  14.181   6.639  13.184
81498W        W82363  11.875   4.142  11.953
81499W        W82364  12.397   6.439  12.913
81500W        W82365  11.880   4.370  10.978
81501W        W82366  12.681   4.979  13.372
81502W        W82367  13.529   3.845  13.242
81503W        W82368  10.949   5.688  13.127
81504W        W82369  12.653   5.506  11.285
81505W        W82370  11.921   3.821  11.055
81506W        W82371  12.659   4.902  12.106
81507W        W82372  13.629   3.878  13.805
81508W        W82373  12.217   5.890  13.914
81509W        W82374  13.021   5.672  14.131
81510W        W82375  13.638   5.702  14.024
81511W        W82376  12.922   3.842  14.529
81512W        W82377  12.144   4.458  12.922
81513W        W82378  11.570   4.414  12.320
81514W        W82379  11.356   7.126  11.996
81515W        W82380  12.688   6.456  14.121
81516W        W82381  11.723   5.941  11.480
81517W        W82382  13.403   5.326  12.701
81518W        W82383  13.683   5.125  13.100
81519W        W82384  12.888   5.799  13.034
81520W        W82385  13.358   6.173  11.166
81521W        W82386  13.030   4.194  12.494
81522W        W82387  14.509   4.472  11.762
81523W        W82388  11.003   7.061  13.793
81524W        W82389  11.420   6.287  13.325
81525W        W82390  10.987   7.133  11.557
81526W        W82391  12.886   4.403  13.363
81527W        W82392  12.249   6.426  11.212
81528W        W82393  14.154   6.808  11.398
81529W        W82394  13.129   5.461  11.412
81530W        W82395  11.972   4.652  11.929
81531W        W82396  12.804   4.562  10.981
81532W        W82397  13.388   6.127  14.159
81533W        W82398  13.741   4.033  11.776
81534W        W82399  11.071   3.881  11.224
81535W        W82400  12.357   6.200  13.514
81536W        W82401  12.156   6.116  12.606
81537W        W82402  11.898   6.068  11.004
81538W        W82403  11.139   6.309  11.772
81539W        W82404  11.643   5.379  14.214
81540W        W82405  12.347   3.939  14.400
81541W        W82406  13.056   4.081  13.756
81542W        W82407  12.251   3.849  12.037
81543W        W82408  13.310   3.926  11.542
81544W        W82409  11.255   3.858  13.119
81545W        W82410  11.303   4.821  12.489
81546W        W82411  13.992   3.929  12.895
81547W        W82412  11.414   4.427  11.709
81548W        W82413  13.985   4.115  13.325
81549W        W82414  14.381   5.318  11.010
81550W        W82415  11.673   4.076  12.829
81551W        W82416  12.787   4.648  13.769
81552W        W82417  10.935   4.338  11.247
81553W        W82418  11.721   5.727  13.808
81554W        W82419  13.079   5.125  12.987
81555W        W82420  12.946   7.204  11.283
81556W        W82421  11.092   5.711  10.980
81557W        W82422  11.827   6.122  14.106
81558W        W82423  11.348   5.289  13.737
81559W        W82424  12.339   5.394  13.531
81560W        W82425  14.107   3.753  13.793
81561W        W82426  14.505   5.363  13.784
81562W        W82427  14.493   5.563  11.470
81563W        W82428  13.356   5.895  11.569
81564W        W82429  13.830   7.195  11.264
81565W        W82430  13.007   5.185  14.406
81566W        W82431  11.337   6.152  14.446
81567W        W82432  14.543   4.074  14.398
81568W        W82433  14.261   5.002  13.019
81569W        W82434  12.569   7.132  14.496
81570W        W82435  12.424   3.761  11.223
81571W        W82436  13.963   6.360  11.166
81572W        W82437  11.732   4.453  14.052
81573W        W82438  12.166   6.447  13.914
81574W        W82439  14.292   4.438  13.712
81575W        W82440  13.503   7.097  11.680
81576W        W82441  13.742   5.716  13.047
81577W        W82442  11.992   4.132  13.714
81578W        W82443  12.461   5.201  14.471
81579W        W82444  11.964   6.380  11.665
81580W        W82445  13.719   5.878  11.929
81581W        W82446  11.487   4.504  13.653
81582W        W82447  12.816   6.566  12.117
81583W        W82448  14.566   5.126  12.298
81584W        W82449  12.788   3.759  14.017
81585W        W82450  13.568   6.464  13.096
81586W        W82451  13.871   6.808  12.804
81587W        W82452  13.090   6.610  11.232
81588W        W82453  11.100   6.502  14.074
81589W        W82454  11.843   4.494  13.312
81590W        W82455  11.813   3.842  12.422
81591W        W82456  13.434   4.684  13.114
81592W        W82457  12.232   5.855  11.314
81593W        W82458  14.230   5.797  12.813
81594W        W82459  11.557   6.555  14.236
81595W        W82460  13.944   7.237  12.033
81596W        W82461  12.043   4.257  12.478
81597W        W82462  11.812   5.750  12.568
81598W        W82463  12.125   7.161  13.318
81599W        W82464  14.192   7.257  14.350
81600W        W82465  13.351   5.445  13.283
81601W        W82466  11.200   5.243  11.198
81602W        W82467  14.334   6.901  11.895
81603W        W82468  14.171   4.225  11.514
81604W        W82469  12.310   3.744  13.917
81605W        W82470  14.016   6.546  12.375
81606W        W82471  14.045   5.102  12.280
81607W        W82472  12.162   4.775  12.496
81608W        W82473  12.407   5.037  13.820
81609W        W82474  13.518   6.190  13.683
81610W        W82475  12.168   4.644  13.795
81611W        W82476  12.147   7.110  12.411
81612W        W82477  11.464   7.069  14.045
81613W        W82478  11.576   6.430  11.175
81614W        W82479  14.093   6.188  11.985
81615W        W82480  11.697   4.980  13.871
81616W        W82481  14.470   4.910  11.352
81617W        W82482  12.215   5.967  11.823
81618W        W82483  13.314   5.349  13.904
81619W        W82484  13.205   4.977  13.448
81620W        W82485  11.765   5.349  13.477
81621W        W82486  13.975   7.237  13.306
81622W        W82487  13.766   3.871  14.300
81623W        W82488  11.430   4.021  13.887
81624W        W82489  11.769   5.044  12.940
81625W        W82490  12.138   4.858  11.062
81626W        W82491  10.941   6.617  13.607
81627W        W82492  12.526   5.326  13.050
81628W        W82493  12.349   4.351  11.155
81629W        W82494  11.484   5.167  11.936
81630W        W82495  11.255   7.019  13.373
81631W        W82496  14.050   5.245  11.481
81632W        W82497  14.145   4.161  14.167
81633W        W82498  13.581   6.370  12.130
81634W        W82499  11.179   5.294  14.307
81635W        W82500  14.145   3.758  11.603
81636W        W82501  13.665   6.233  11.614
81637W        W82502  12.567   5.291  11.699
81638W        W82503  13.754   4.095  11.222
81639W        W82504  13.819   4.702  13.408
81640W        W82505  11.528   5.295  12.615
81641W        W82506  11.822   6.234  12.264
81642W        W82507  13.585   4.854  12.229
81643W        W82508  12.608   4.233  12.925
81644W        W82509  14.570   6.144  13.436
81645W        W82510  14.488   4.131  12.997
81646W        W82511  11.027   6.961  12.373
81647W        W82512  11.536   6.148  11.909
81648W        W82513  11.451   3.765  14.462
81649W        W82514  12.570   6.618  14.564
81650W        W82515  14.325   5.586  12.354
81651W        W82516  13.679   5.763  11.234
81652W        W82517  12.974   7.284  13.446
81653W        W82518  13.831   6.006  14.483
81654W        W82519  12.646   3.716  11.763
81655W        W82520  13.359   4.585  12.622
81656W        W82521  11.045   6.172  12.954
81657W        W82522  12.298   4.134  11.595
81658W        W82523  12.102   5.618  14.444
81659W        W82524  13.096   4.599  12.158
81660W        W82525  13.301   6.009  13.280
81661W        W82526  11.455   6.614  13.715
81662W        W82527  12.046   6.597  14.438
81663W        W82528  11.897   4.394  11.452
81664W        W82529  13.414   4.536  11.777
81665W        W82530  13.372   6.644  14.014
81666W        W82531  12.057   5.236  12.613
81667W        W82532  11.712   6.934  13.478
81668W        W82533  14.457   7.051  11.079
81669W        W82534  11.320   5.723  14.075
81670W        W82535  13.315   5.985  12.763
81671W        W82536  11.751   5.634  12.005
81672W        W82537  12.122   6.641  13.400
81673W        W82538  12.500   4.060  12.441
81674W        W82539  11.111   6.044  11.371
81675W        W82540  12.630   4.995  11.241
81676W        W82541  11.276   5.544  12.260
81677W        W82542  12.566   4.186  13.724
81678W        W82543  14.238   3.895  11.151
81679W        W82544  14.331   5.641  14.250
81680W        W82545  12.985   6.898  14.402
81681W        W82546  14.543   5.992  13.924
81682W        W82547  13.951   6.790  14.535
81683W        W82548  11.690   7.246  13.013
81684W        W82549  14.549   5.868  11.887
81685W        W82550  13.079   5.135  12.400
81686W        W82551  12.846   3.747  12.290
81687W        W82552  11.905   6.731  12.127
81688W        W82553  12.404   4.472  13.352
81689W        W82554  12.104   3.841  12.821
81690W        W82555  11.167   6.663  11.369
81691W        W82556  12.983   6.027  12.087
81692W        W82557  11.858   6.822  13.966
81693W        W82558  11.335   5.645  11.662
81694W        W82559  11.220   4.188  12.661
81695W        W82560  12.768   6.153  12.718
81696W        W82561  11.020   4.007  11.738
81697W        W82562  13.684   5.213  13.665
81698W        W82563  13.561   4.599  11.237
81699W        W82564  14.078   6.271  12.885
81700W        W82565  12.739   6.755  12.716
81701W        W82566  12.151   6.859  11.627
81702W        W82567  13.433   3.762  11.057
81703W        W82568  11.233   7.022  12.798
81704W        W82569  13.430   4.780  14.433
81705W        W82570  11.413   4.310  14.432
81706W        W82571  11.144   4.910  11.765
81707W        W82572  11.835   4.899  11.490
81708W        W82573  13.598   5.226  14.307
81709W        W82574  11.941   5.507  13.016
81710W        W82575  13.415   3.793  12.136
81711W        W82576  12.546   7.224  12.639
81712W        W82577  13.760   6.686  13.576
81713W        W82578  13.344   6.835  12.687
81714W        W82579  13.363   5.815  12.281
81715W        W82580  12.825   4.040  11.352
81716W        W82581  14.506   3.668  12.074
81717W        W82582  12.194   5.303  11.237
81718W        W82583  14.360   4.640  12.227
81719W        W82584  13.052   5.810  11.104
81720W        W82585  13.988   6.010  13.852
81721W        W82586  13.642   6.711  11.319
81722W        W82587  12.257   4.386  14.225
81723W        W82588  12.077   4.970  13.466
81724W        W82589  14.169   6.465  13.743
81725W        W82590  13.269   4.415  14.120
81726W        W82591  11.113   4.886  13.897
81727W        W82592  12.873   5.363  13.623
81728W        W82593  11.230   6.121  12.280
81729W        W82594  11.377   5.418  13.170
81730W        W82595  13.694   5.704  13.520
81731W        W82596  13.466   7.084  14.331
81732W        W82597  13.362   4.823  13.884
81733W        W82598  13.639   6.877  12.289
81734W        W82599  12.641   6.597  13.612
81735W        W82600  12.126   6.952  12.881
81736W        W82601  13.931   6.123  13.300
81737W        W82602  12.981   6.195  14.437
81738W        W82603  11.586   6.148  12.776
81739W        W82604  13.932   5.907  12.421
81740W        W82605  13.573   6.973  13.172
81741W        W82606  11.551   6.702  13.042
81742W        W82607  12.572   4.754  14.252
81743W        W82608  13.023   6.920  11.763
81744W        W82609  12.331   6.175  14.401
81745W        W82610  12.457   6.413  11.778
81746W        W82611  11.678   5.153  11.037
81747W        W82612  11.017   7.239  17.936
81748W        W82613  11.393   6.132  17.459
81749W        W82614  14.098   5.862  15.229
81750W        W82615  14.228   6.947  17.256
81751W        W82616  12.146   6.938  14.782
81752W        W82617  12.229   5.090  15.765
81753W        W82618  11.744   4.938  15.929
81754W        W82619  12.735   5.753  15.363
81755W        W82620  12.410   6.845  17.718
81756W        W82621  11.059   4.406  17.681
81757W        W82622  11.821   3.686  17.483
81758W        W82623  13.515   4.074  16.370
81759W        W82624  13.164   4.945  14.940
81760W        W82625  13.734   4.379  18.031
81761W        W82626  11.100   4.171  17.156
81762W        W82627  11.199   6.790  18.177
81763W        W82628  12.721   6.180  14.909
81764W        W82629  11.153   4.963  16.602
81765W        W82630  12.046   4.854  17.839
81766W        W82631  14.505   4.713  16.338
81767W        W82632  14.269   5.756  17.197
81768W        W82633  12.577   5.089  16.224
81769W        W82634  13.123   6.428  16.593
81770W        W82635  11.623   5.862  16.825
81771W        W82636  10.982   5.390  16.396
81772W        W82637  12.018   5.362  17.588
81773W        W82638  14.289   5.145  17.842
81774W        W82639  11.905   6.589  16.287
81775W        W82640  13.026   6.278  17.421
81776W        W82641  12.246   4.918  16.646
81777W        W82642  12.538   5.702  16.289
81778W        W82643  13.535   6.475  18.137
81779W        W82644  12.614   5.795  18.147
81780W        W82645  12.595   5.511  17.625
81781W        W82646  11.004   4.902  18.147
81782W        W82647  13.836   6.437  17.746
81783W        W82648  11.417   4.019  15.744
81784W        W82649  11.944   6.277  16.743
81785W        W82650  14.407   6.060  16.033
81786W        W82651  13.820   4.460  16.600
81787W        W82652  14.105   4.413  14.695
81788W        W82653  14.570   5.214  17.001
81789W        W82654  12.537   6.921  16.754
81790W        W82655  14.311   6.387  15.192
81791W        W82656  11.440   7.173  14.946
81792W        W82657  11.833   7.219  15.622
81793W        W82658  11.630   3.973  17.048
81794W        W82659  14.253   4.991  17.323
81795W        W82660  13.658   5.413  15.782
81796W        W82661  13.624   5.101  14.809
81797W        W82662  12.832   6.245  16.949
81798W        W82663  12.638   4.575  16.148
81799W        W82664  13.238   6.662  17.142
81800W        W82665  14.109   5.453  15.564
81801W        W82666  13.011   4.111  15.580
81802W        W82667  11.668   6.805  15.263
81803W        W82668  11.039   4.304  15.862
81804W        W82669  13.825   4.911  16.336
81805W        W82670  11.283   6.528  16.251
81806W        W82671  12.624   6.878  15.121
81807W        W82672  14.016   4.904  14.585
81808W        W82673  11.039   6.662  16.749
81809W        W82674  11.830   6.234  17.229
81810W        W82675  12.203   5.594  15.848
81811W        W82676  12.225   3.999  16.941
81812W        W82677  14.454   3.761  16.238
81813W        W82678  11.673   5.633  14.706
81814W        W82679  11.328   4.666  14.885
81815W        W82680  11.390   6.622  15.679
81816W        W82681  12.521   6.105  15.927
81817W        W82682  13.853   6.964  17.641
81818W        W82683  12.779   4.606  15.325
81819W        W82684  14.162   7.004  16.097
81820W        W82685  13.839   4.857  17.695
81821W        W82686  14.552   6.513  15.829
81822W        W82687  13.179   5.805  17.313
81823W        W82688  10.945   5.356  15.519
81824W        W82689  12.056   5.771  17.092
81825W        W82690  13.260   5.035  15.470
81826W        W82691  13.137   5.525  15.574
81827W        W82692  11.480   4.945  17.048
81828W        W82693  11.465   4.821  17.970
81829W        W82694  11.355   3.738  16.129
81830W        W82695  13.123   4.085  16.690
81831W        W82696  12.771   4.270  17.853
81832W        W82697  13.126   4.419  15.031
81833W        W82698  14.309   6.812  17.785
81834W        W82699  13.276   3.893  17.824
81835W        W82700  14.295   6.194  17.946
81836W        W82701  13.725   4.361  17.542
81837W        W82702  13.525   4.299  15.812
81838W        W82703  13.918   5.433  18.216
81839W        W82704  11.658   7.009  16.202
81840W        W82705  12.316   4.726  15.188
81841W        W82706  11.885   4.010  17.852
81842W        W82707  13.937   4.494  15.533
81843W        W82708  14.304   4.976  15.478
81844W        W82709  12.047   7.193  17.949
81845W        W82710  11.973   3.729  15.184
81846W        W82711  14.294   4.263  16.219
81847W        W82712  14.444   6.512  14.664
81848W        W82713  11.351   5.715  16.366
81849W        W82714  13.268   4.302  14.596
81850W        W82715  14.402   6.634  16.316
81851W        W82716  14.441   3.828  17.066
81852W        W82717  12.886   5.040  17.620
81853W        W82718  12.979   6.379  15.323
81854W        W82719  13.379   5.673  18.063
81855W        W82720  13.053   3.650  16.372
81856W        W82721  11.665   4.553  16.435
81857W        W82722  11.219   5.753  17.209
81858W        W82723  13.078   6.946  15.915
81859W        W82724  14.272   4.543  16.787
81860W        W82725  12.909   6.890  17.554
81861W        W82726  14.252   5.949  14.759
81862W        W82727  12.687   5.432  15.820
81863W        W82728  14.539   3.943  17.561
81864W        W82729  12.688   5.778  17.155
81865W        W82730  12.905   4.664  16.600
81866W        W82731  13.757   4.962  15.438
81867W        W82732  14.044   4.695  15.080
81868W        W82733  13.853   6.735  15.469
81869W        W82734  13.687   6.338  16.265
81870W        W82735  13.583   5.417  15.243
81871W        W82736  13.016   5.627  16.229
81872W        W82737  13.897   5.415  16.296
81873W        W82738  11.272   4.430  16.720
81874W        W82739  14.050   5.482  17.547
81875W        W82740  14.401   7.100  16.693
81876W        W82741  12.331   6.544  16.095
81877W        W82742  13.338   7.077  17.419
81878W        W82743  13.332   4.407  17.183
81879W        W82744  12.539   7.115  17.244
81880W        W82745  14.236   4.069  15.710
81881W        W82746  14.027   5.388  17.011
81882W        W82747  11.010   4.709  17.049
81883W        W82748  13.870   4.504  16.067
81884W        W82749  14.281   4.655  17.844
81885W        W82750  13.166   6.354  16.062
81886W        W82751  12.422   6.945  15.675
81887W        W82752  11.537   4.125  14.933
81888W        W82753  12.641   3.779  16.743
81889W        W82754  11.669   6.899  14.591
81890W        W82755  12.043   5.365  15.342
81891W        W82756  12.697   5.994  17.655
81892W        W82757  12.527   4.352  15.645
81893W        W82758  13.883   3.949  16.073
81894W        W82759  13.603   7.231  16.401
81895W        W82760  13.015   6.879  16.741
81896W        W82761  12.411   5.916  16.702
81897W        W82762  14.181   6.639  16.828
81898W        W82763  11.875   4.142  15.597
81899W        W82764  12.397   6.439  16.557
81900W        W82765  11.880   4.370  14.622
81901W        W82766  12.681   4.979  17.016
81902W        W82767  13.529   3.845  16.886
81903W        W82768  10.949   5.688  16.771
81904W        W82769  12.653   5.506  14.929
81905W        W82770  11.921   3.821  14.699
81906W        W82771  12.659   4.902  15.750
81907W        W82772  13.629   3.878  17.449
81908W        W82773  12.217   5.890  17.558
81909W        W82774  13.021   5.672  17.775
81910W        W82775  13.638   5.702  17.668
81911W        W82776  12.922   3.842  18.173
81912W        W82777  12.144   4.458  16.566
81913W        W82778  11.570   4.414  15.964
81914W        W82779  11.356   7.126  15.640
81915W        W82780  12.688   6.456  17.765
81916W        W82781  11.723   5.941  15.124
81917W        W82782  13.403   5.326  16.345
81918W        W82783  13.683   5.125  16.744
81919W        W82784  12.888   5.799  16.678
81920W        W82785  13.358   6.173  14.810
81921W        W82786  13.030   4.194  16.138
81922W        W82787  14.509   4.472  15.406
81923W        W82788  11.003   7.061  17.437
81924W        W82789  11.420   6.287  16.969
81925W        W82790  10.987   7.133  15.201
81926W        W82791  12.886   4.403  17.007
81927W        W82792  12.249   6.426  14.856
81928W        W82793  14.154   6.808  15.042
81929W        W82794  13.129   5.461  15.056
81930W        W82795  11.972   4.652  15.573
81931W        W82796  12.804   4.562  14.625
81932W        W82797  13.388   6.127  17.803
81933W        W82798  13.741   4.033  15.420
81934W        W82799  11.071   3.881  14.868
81935W        W82800  12.357   6.200  17.158
81936W        W82801  12.156   6.116  16.250
81937W        W82802  11.898   6.068  14.648
81938W        W82803  11.139   6.309  15.416
81939W        W82804  11.643   5.379  17.858
81940W        W82805  12.347   3.939  18.044
81941W        W82806  13.056   4.081  17.400
81942W        W82807  12.251   3.849  15.681
81943W        W82808  13.310   3.926  15.186
81944W        W82809  11.255   3.858  16.763
81945W        W82810  11.303   4.821  16.133
81946W        W82811  13.992   3.929  16.539
81947W        W82812  11.414   4.427  15.353
81948W        W82813  13.985   4.115  16.969
81949W        W82814  14.381   5.318  14.654
81950W        W82815  11.673   4.076  16.473
81951W        W82816  12.787   4.648  17.413
81952W        W82817  10.935   4.338  14.891
81953W        W82818  11.721   5.727  17.452
81954W        W82819  13.079   5.125  16.631
81955W        W82820  12.946   7.204  14.927
81956W        W82821  11.092   5.711  14.624
81957W        W82822  11.827   6.122  17.750
81958W        W82823  11.348   5.289  17.381
81959W        W82824  12.339   5.394  17.175
81960W        W82825  14.107   3.753  17.437
81961W        W82826  14.505   5.363  17.428
81962W        W82827  14.493   5.563  15.114
81963W        W82828  13.356   5.895  15.213
81964W        W82829  13.830   7.195  14.908
81965W        W82830  13.007   5.185  18.050
81966W        W82831  11.337   6.152  18.090
81967W        W82832  14.543   4.074  18.042
81968W        W82833  14.261   5.002  16.663
81969W        W82834  12.569   7.132  18.140
81970W        W82835  12.424   3.761  14.867
81971W        W82836  13.963   6.360  14.810
81972W        W82837  11.732   4.453  17.696
81973W        W82838  12.166   6.447  17.558
81974W        W82839  14.292   4.438  17.356
81975W        W82840  13.503   7.097  15.324
81976W        W82841  13.742   5.716  16.691
81977W        W82842  11.992   4.132  17.358
81978W        W82843  12.461   5.201  18.115
81979W        W82844  11.964   6.380  15.309
81980W        W82845  13.719   5.878  15.573
81981W        W82846  11.487   4.504  17.297
81982W        W82847  12.816   6.566  15.761
81983W        W82848  14.566   5.126  15.942
81984W        W82849  12.788   3.759  17.661
81985W        W82850  13.568   6.464  16.740
81986W        W82851  13.871   6.808  16.448
81987W        W82852  13.090   6.610  14.876
81988W        W82853  11.100   6.502  17.718
81989W        W82854  11.843   4.494  16.956
81990W        W82855  11.813   3.842  16.066
81991W        W82856  13.434   4.684  16.758
81992W        W82857  12.232   5.855  14.958
81993W        W82858  14.230   5.797  16.457
81994W        W82859  11.557   6.555  17.880
81995W        W82860  13.944   7.237  15.677
81996W        W82861  12.043   4.257  16.122
81997W        W82862  11.812   5.750  16.212
81998W        W82863  12.125   7.161  16.962
81999W        W82864  14.192   7.257  17.994
82000W        W82865  13.351   5.445  16.927
82001W        W82866  11.200   5.243  14.842
82002W        W82867  14.334   6.901  15.539
82003W        W82868  14.171   4.225  15.158
82004W        W82869  12.310   3.744  17.561
82005W        W82870  14.016   6.546  16.019
82006W        W82871  14.045   5.102  15.924
82007W        W82872  12.162   4.775  16.140
82008W        W82873  12.407   5.037  17.464
82009W        W82874  13.518   6.190  17.327
82010W        W82875  12.168   4.644  17.439
82011W        W82876  12.147   7.110  16.055
82012W        W82877  11.464   7.069  17.689
82013W        W82878  11.576   6.430  14.819
82014W        W82879  14.093   6.188  15.629
82015W        W82880  11.697   4.980  17.515
82016W        W82881  14.470   4.910  14.996
82017W        W82882  12.215   5.967  15.467
82018W        W82883  13.314   5.349  17.548
82019W        W82884  13.205   4.977  17.092
82020W        W82885  11.765   5.349  17.121
82021W        W82886  13.975   7.237  16.950
82022W        W82887  13.766   3.871  17.944
82023W        W82888  11.430   4.021  17.531
82024W        W82889  11.769   5.044  16.584
82025W        W82890  12.138   4.858  14.706
82026W        W82891  10.941   6.617  17.251
82027W        W82892  12.526   5.326  16.694
82028W        W82893  12.349   4.351  14.799
82029W        W82894  11.484   5.167  15.580
82030W        W82895  11.255   7.019  17.017
82031W        W82896  14.050   5.245  15.125
82032W        W82897  14.145   4.161  17.811
82033W        W82898  13.581   6.370  15.774
82034W        W82899  11.179   5.294  17.951
82035W        W82900  14.145   3.758  15.247
82036W        W82901  13.665   6.233  15.258
82037W        W82902  12.567   5.291  15.343
82038W        W82903  13.754   4.095  14.866
82039W        W82904  13.819   4.702  17.052
82040W        W82905  11.528   5.295  16.259
82041W        W82906  11.822   6.234  15.908
82042W        W82907  13.585   4.854  15.873
82043W        W82908  12.608   4.233  16.569
82044W        W82909  14.570   6.144  17.080
82045W        W82910  14.488   4.131  16.641
82046W        W82911  11.027   6.961  16.017
82047W        W82912  11.536   6.148  15.553
82048W        W82913  11.451   3.765  18.106
82049W        W82914  12.570   6.618  18.208
82050W        W82915  14.325   5.586  15.998
82051W        W82916  13.679   5.763  14.878
82052W        W82917  12.974   7.284  17.090
82053W        W82918  13.831   6.006  18.127
82054W        W82919  12.646   3.716  15.407
82055W        W82920  13.359   4.585  16.266
82056W        W82921  11.045   6.172  16.598
82057W        W82922  12.298   4.134  15.239
82058W        W82923  12.102   5.618  18.088
82059W        W82924  13.096   4.599  15.802
82060W        W82925  13.301   6.009  16.924
82061W        W82926  11.455   6.614  17.359
82062W        W82927  12.046   6.597  18.082
82063W        W82928  11.897   4.394  15.096
82064W        W82929  13.414   4.536  15.421
82065W        W82930  13.372   6.644  17.658
82066W        W82931  12.057   5.236  16.257
82067W        W82932  11.712   6.934  17.122
82068W        W82933  14.457   7.051  14.723
82069W        W82934  11.320   5.723  17.719
82070W        W82935  13.315   5.985  16.407
82071W        W82936  11.751   5.634  15.649
82072W        W82937  12.122   6.641  17.044
82073W        W82938  12.500   4.060  16.085
82074W        W82939  11.111   6.044  15.015
82075W        W82940  12.630   4.995  14.885
82076W        W82941  11.276   5.544  15.904
82077W        W82942  12.566   4.186  17.368
82078W        W82943  14.238   3.895  14.795
82079W        W82944  14.331   5.641  17.894
82080W        W82945  12.985   6.898  18.046
82081W        W82946  14.543   5.992  17.568
82082W        W82947  13.951   6.790  18.179
82083W        W82948  11.690   7.246  16.657
82084W        W82949  14.549   5.868  15.531
82085W        W82950  13.079   5.135  16.044
82086W        W82951  12.846   3.747  15.934
82087W        W82952  11.905   6.731  15.771
82088W        W82953  12.404   4.472  16.996
82089W        W82954  12.104   3.841  16.465
82090W        W82955  11.167   6.663  15.013
82091W        W82956  12.983   6.027  15.731
82092W        W82957  11.858   6.822  17.610
82093W        W82958  11.335   5.645  15.306
82094W        W82959  11.220   4.188  16.305
82095W        W82960  12.768   6.153  16.362
82096W        W82961  11.020   4.007  15.382
82097W        W82962  13.684   5.213  17.309
82098W        W82963  13.561   4.599  14.881
82099W        W82964  14.078   6.271  16.529
82100W        W82965  12.739   6.755  16.360
82101W        W82966  12.151   6.859  15.271
82102W        W82967  13.433   3.762  14.701
82103W        W82968  11.233   7.022  16.442
82104W        W82969  13.430   4.780  18.077
82105W        W82970  11.413   4.310  18.076
82106W        W82971  11.144   4.910  15.409
82107W        W82972  11.835   4.899  15.134
82108W        W82973  13.598   5.226  17.951
82109W        W82974  11.941   5.507  16.660
82110W        W82975  13.415   3.793  15.780
82111W        W82976  12.546   7.224  16.283
82112W        W82977  13.760   6.686  17.220
82113W        W82978  13.344   6.835  16.331
82114W        W82979  13.363   5.815  15.925
82115W        W82980  12.825   4.040  14.996
82116W        W82981  14.506   3.668  15.718
82117W        W82982  12.194   5.303  14.881
82118W        W82983  14.360   4.640  15.871
82119W        W82984  13.052   5.810  14.748
82120W        W82985  13.988   6.010  17.496
82121W        W82986  13.642   6.711  14.963
82122W        W82987  12.257   4.386  17.869
82123W        W82988  12.077   4.970  17.110
82124W        W82989  14.169   6.465  17.387
82125W        W82990  13.269   4.415  17.764
82126W        W82991  11.113   4.886  17.541
82127W        W82992  12.873   5.363  17.267
82128W        W82993  11.230   6.121  15.924
82129W        W82994  11.377   5.418  16.814
82130W        W82995  13.694   5.704  17.164
82131W        W82996  13.466   7.084  17.975
82132W        W82997  13.362   4.823  17.528
82133W        W82998  13.639   6.877  15.933
82134W        W82999  12.641   6.597  17.256
82135W        W83000  12.126   6.952  16.525
82136W        W83001  13.931   6.123  16.944
82137W        W83002  12.981   6.195  18.081
82138W        W83003  11.586   6.148  16.420
82139W        W83004  13.932   5.907  16.065
82140W        W83005  13.573   6.973  16.816
82141W        W83006  11.551   6.702  16.686
82142W        W83007  12.572   4.754  17.896
82143W        W83008  13.023   6.920  15.407
82144W        W83009  12.331   6.175  18.045
82145W        W83010  12.457   6.413  15.422
82146W        W83011  11.678   5.153  14.681
82147W        W83012  11.017   7.239  21.580
82148W        W83013  11.393   6.132  21.103
82149W        W83014  14.098   5.862  18.873
82150W        W83015  14.228   6.947  20.900
82151W        W83016  12.146   6.938  18.426
82152W        W83017  12.229   5.090  19.409
82153W        W83018  11.744   4.938  19.573
82154W        W83019  12.735   5.753  19.007
82155W        W83020  12.410   6.845  21.362
82156W        W83021  11.059   4.406  21.325
82157W        W83022  11.821   3.686  21.127
82158W        W83023  13.515   4.074  20.014
82159W        W83024  13.164   4.945  18.584
82160W        W83025  13.734   4.379  21.675
82161W        W83026  11.100   4.171  20.800
82162W        W83027  11.199   6.790  21.821
82163W        W83028  12.721   6.180  18.553
82164W        W83029  11.153   4.963  20.246
82165W        W83030  12.046   4.854  21.483
82166W        W83031  14.505   4.713  19.982
82167W        W83032  14.269   5.756  20.841
82168W        W83033  12.577   5.089  19.868
82169W        W83034  13.123   6.428  20.237
82170W        W83035  11.623   5.862  20.469
82171W        W83036  10.982   5.390  20.040
82172W        W83037  12.018   5.362  21.232
82173W        W83038  14.289   5.145  21.486
82174W        W83039  11.905   6.589  19.931
82175W        W83040  13.026   6.278  21.065
82176W        W83041  12.246   4.918  20.290
82177W        W83042  12.538   5.702  19.933
82178W        W83043  13.535   6.475  21.781
82179W        W83044  12.614   5.795  21.791
82180W        W83045  12.595   5.511  21.269
82181W        W83046  11.004   4.902  21.791
82182W        W83047  13.836   6.437  21.390
82183W        W83048  11.417   4.019  19.388
82184W        W83049  11.944   6.277  20.387
82185W        W83050  14.407   6.060  19.677
82186W        W83051  13.820   4.460  20.244
82187W        W83052  14.105   4.413  18.339
82188W        W83053  14.570   5.214  20.645
82189W        W83054  12.537   6.921  20.398
82190W        W83055  14.311   6.387  18.836
82191W        W83056  11.440   7.173  18.590
82192W        W83057  11.833   7.219  19.266
82193W        W83058  11.630   3.973  20.692
82194W        W83059  14.253   4.991  20.967
82195W        W83060  13.658   5.413  19.426
82196W        W83061  13.624   5.101  18.453
82197W        W83062  12.832   6.245  20.593
82198W        W83063  12.638   4.575  19.792
82199W        W83064  13.238   6.662  20.786
82200W        W83065  14.109   5.453  19.208
82201W        W83066  13.011   4.111  19.224
82202W        W83067  11.668   6.805  18.907
82203W        W83068  11.039   4.304  19.506
82204W        W83069  13.825   4.911  19.980
82205W        W83070  11.283   6.528  19.895
82206W        W83071  12.624   6.878  18.765
82207W        W83072  14.016   4.904  18.229
82208W        W83073  11.039   6.662  20.393
82209W        W83074  11.830   6.234  20.873
82210W        W83075  12.203   5.594  19.492
82211W        W83076  12.225   3.999  20.585
82212W        W83077  14.454   3.761  19.882
82213W        W83078  11.673   5.633  18.350
82214W        W83079  11.328   4.666  18.529
82215W        W83080  11.390   6.622  19.323
82216W        W83081  12.521   6.105  19.571
82217W        W83082  13.853   6.964  21.285
82218W        W83083  12.779   4.606  18.969
82219W        W83084  14.162   7.004  19.741
82220W        W83085  13.839   4.857  21.339
82221W        W83086  14.552   6.513  19.473
82222W        W83087  13.179   5.805  20.957
82223W        W83088  10.945   5.356  19.163
82224W        W83089  12.056   5.771  20.736
82225W        W83090  13.260   5.035  19.114
82226W        W83091  13.137   5.525  19.218
82227W        W83092  11.480   4.945  20.692
82228W        W83093  11.465   4.821  21.614
82229W        W83094  11.355   3.738  19.773
82230W        W83095  13.123   4.085  20.334
82231W        W83096  12.771   4.270  21.497
82232W        W83097  13.126   4.419  18.675
82233W        W83098  14.309   6.812  21.429
82234W        W83099  13.276   3.893  21.468
82235W        W83100  14.295   6.194  21.590
82236W        W83101  13.725   4.361  21.186
82237W        W83102  13.525   4.299  19.456
82238W        W83103  13.918   5.433  21.860
82239W        W83104  11.658   7.009  19.846
82240W        W83105  12.316   4.726  18.832
82241W        W83106  11.885   4.010  21.496
82242W        W83107  13.937   4.494  19.177
82243W        W83108  14.304   4.976  19.122
82244W        W83109  12.047   7.193  21.593
82245W        W83110  11.973   3.729  18.828
82246W        W83111  14.294   4.263  19.863
82247W        W83112  14.444   6.512  18.308
82248W        W83113  11.351   5.715  20.010
82249W        W83114  13.268   4.302  18.240
82250W        W83115  14.402   6.634  19.960
82251W        W83116  14.441   3.828  20.710
82252W        W83117  12.886   5.040  21.264
82253W        W83118  12.979   6.379  18.967
82254W        W83119  13.379   5.673  21.707
82255W        W83120  13.053   3.650  20.016
82256W        W83121  11.665   4.553  20.079
82257W        W83122  11.219   5.753  20.853
82258W        W83123  13.078   6.946  19.559
82259W        W83124  14.272   4.543  20.431
82260W        W83125  12.909   6.890  21.198
82261W        W83126  14.252   5.949  18.403
82262W        W83127  12.687   5.432  19.464
82263W        W83128  14.539   3.943  21.205
82264W        W83129  12.688   5.778  20.799
82265W        W83130  12.905   4.664  20.244
82266W        W83131  13.757   4.962  19.082
82267W        W83132  14.044   4.695  18.724
82268W        W83133  13.853   6.735  19.113
82269W        W83134  13.687   6.338  19.909
82270W        W83135  13.583   5.417  18.887
82271W        W83136  13.016   5.627  19.873
82272W        W83137  13.897   5.415  19.940
82273W        W83138  11.272   4.430  20.364
82274W        W83139  14.050   5.482  21.191
82275W        W83140  14.401   7.100  20.337
82276W        W83141  12.331   6.544  19.739
82277W        W83142  13.338   7.077  21.063
82278W        W83143  13.332   4.407  20.827
82279W        W83144  12.539   7.115  20.888
82280W        W83145  14.236   4.069  19.354
82281W        W83146  14.027   5.388  20.655
82282W        W83147  11.010   4.709  20.693
82283W        W83148  13.870   4.504  19.711
82284W        W83149  14.281   4.655  21.488
82285W        W83150  13.166   6.354  19.706
82286W        W83151  12.422   6.945  19.319
82287W        W83152  11.537   4.125  18.577
82288W        W83153  12.641   3.779  20.387
82289W        W83154  11.669   6.899  18.235
82290W        W83155  12.043   5.365  18.986
82291W        W83156  12.697   5.994  21.299
82292W        W83157  12.527   4.352  19.289
82293W        W83158  13.883   3.949  19.717
82294W        W83159  13.603   7.231  20.045
82295W        W83160  13.015   6.879  20.385
82296W        W83161  12.411   5.916  20.346
82297W        W83162  14.181   6.639  20.472
82298W        W83163  11.875   4.142  19.241
82299W        W83164  12.397   6.439  20.201
82300W        W83165  11.880   4.370  18.266
82301W        W83166  12.681   4.979  20.660
82302W        W83167  13.529   3.845  20.530
82303W        W83168  10.949   5.688  20.415
82304W        W83169  12.653   5.506  18.573
82305W        W83170  11.921   3.821  18.343
82306W        W83171  12.659   4.902  19.394
82307W        W83172  13.629   3.878  21.093
82308W        W83173  12.217   5.890  21.202
82309W        W83174  13.021   5.672  21.419
82310W        W83175  13.638   5.702  21.312
82311W        W83176  12.922   3.842  21.817
82312W        W83177  12.144   4.458  20.210
82313W        W83178  11.570   4.414  19.608
82314W        W83179  11.356   7.126  19.284
82315W        W83180  12.688   6.456  21.409
82316W        W83181  11.723   5.941  18.768
82317W        W83182  13.403   5.326  19.989
82318W        W83183  13.683   5.125  20.388
82319W        W83184  12.888   5.799  20.322
82320W        W83185  13.358   6.173  18.454
82321W        W83186  13.030   4.194  19.782
82322W        W83187  14.509   4.472  19.050
82323W        W83188  11.003   7.061  21.081
82324W        W83189  11.420   6.287  20.613
82325W        W83190  10.987   7.133  18.845
82326W        W83191  12.886   4.403  20.651
82327W        W83192  12.249   6.426  18.500
82328W        W83193  14.154   6.808  18.686
82329W        W83194  13.129   5.461  18.700
82330W        W83195  11.972   4.652  19.217
82331W        W83196  12.804   4.562  18.269
82332W        W83197  13.388   6.127  21.447
82333W        W83198  13.741   4.033  19.064
82334W        W83199  11.071   3.881  18.512
82335W        W83200  12.357   6.200  20.802
82336W        W83201  12.156   6.116  19.894
82337W        W83202  11.898   6.068  18.292
82338W        W83203  11.139   6.309  19.060
82339W        W83204  11.643   5.379  21.502
82340W        W83205  12.347   3.939  21.688
82341W        W83206  13.056   4.081  21.044
82342W        W83207  12.251   3.849  19.325
82343W        W83208  13.310   3.926  18.830
82344W        W83209  11.255   3.858  20.407
82345W        W83210  11.303   4.821  19.777
82346W        W83211  13.992   3.929  20.183
82347W        W83212  11.414   4.427  18.997
82348W        W83213  13.985   4.115  20.613
82349W        W83214  14.381   5.318  18.298
82350W        W83215  11.673   4.076  20.117
82351W        W83216  12.787   4.648  21.057
82352W        W83217  10.935   4.338  18.535
82353W        W83218  11.721   5.727  21.096
82354W        W83219  13.079   5.125  20.275
82355W        W83220  12.946   7.204  18.571
82356W        W83221  11.092   5.711  18.268
82357W        W83222  11.827   6.122  21.394
82358W        W83223  11.348   5.289  21.025
82359W        W83224  12.339   5.394  20.819
82360W        W83225  14.107   3.753  21.081
82361W        W83226  14.505   5.363  21.072
82362W        W83227  14.493   5.563  18.758
82363W        W83228  13.356   5.895  18.857
82364W        W83229  13.830   7.195  18.552
82365W        W83230  13.007   5.185  21.694
82366W        W83231  11.337   6.152  21.734
82367W        W83232  14.543   4.074  21.686
82368W        W83233  14.261   5.002  20.307
82369W        W83234  12.569   7.132  21.784
82370W        W83235  12.424   3.761  18.511
82371W        W83236  13.963   6.360  18.454
82372W        W83237  11.732   4.453  21.340
82373W        W83238  12.166   6.447  21.202
82374W        W83239  14.292   4.438  21.000
82375W        W83240  13.503   7.097  18.968
82376W        W83241  13.742   5.716  20.335
82377W        W83242  11.992   4.132  21.002
82378W        W83243  12.461   5.201  21.759
82379W        W83244  11.964   6.380  18.953
82380W        W83245  13.719   5.878  19.217
82381W        W83246  11.487   4.504  20.941
82382W        W83247  12.816   6.566  19.405
82383W        W83248  14.566   5.126  19.586
82384W        W83249  12.788   3.759  21.305
82385W        W83250  13.568   6.464  20.384
82386W        W83251  13.871   6.808  20.092
82387W        W83252  13.090   6.610  18.520
82388W        W83253  11.100   6.502  21.362
82389W        W83254  11.843   4.494  20.600
82390W        W83255  11.813   3.842  19.710
82391W        W83256  13.434   4.684  20.402
82392W        W83257  12.232   5.855  18.602
82393W        W83258  14.230   5.797  20.101
82394W        W83259  11.557   6.555  21.524
82395W        W83260  13.944   7.237  19.321
82396W        W83261  12.043   4.257  19.766
82397W        W83262  11.812   5.750  19.856
82398W        W83263  12.125   7.161  20.606
82399W        W83264  14.192   7.257  21.638
82400W        W83265  13.351   5.445  20.571
82401W        W83266  11.200   5.243  18.486
82402W        W83267  14.334   6.901  19.183
82403W        W83268  14.171   4.225  18.802
82404W        W83269  12.310   3.744  21.205
82405W        W83270  14.016   6.546  19.663
82406W        W83271  14.045   5.102  19.568
82407W        W83272  12.162   4.775  19.784
82408W        W83273  12.407   5.037  21.108
82409W        W83274  13.518   6.190  20.971
82410W        W83275  12.168   4.644  21.083
82411W        W83276  12.147   7.110  19.699
82412W        W83277  11.464   7.069  21.333
82413W        W83278  11.576   6.430  18.463
82414W        W83279  14.093   6.188  19.273
82415W        W83280  11.697   4.980  21.159
82416W        W83281  14.470   4.910  18.640
82417W        W83282  12.215   5.967  19.111
82418W        W83283  13.314   5.349  21.192
82419W        W83284  13.205   4.977  20.736
82420W        W83285  11.765   5.349  20.765
82421W        W83286  13.975   7.237  20.594
82422W        W83287  13.766   3.871  21.588
82423W        W83288  11.430   4.021  21.175
82424W        W83289  11.769   5.044  20.228
82425W        W83290  12.138   4.858  18.350
82426W        W83291  10.941   6.617  20.895
82427W        W83292  12.526   5.326  20.338
82428W        W83293  12.349   4.351  18.443
82429W        W83294  11.484   5.167  19.224
82430W        W83295  11.255   7.019  20.661
82431W        W83296  14.050   5.245  18.769
82432W        W83297  14.145   4.161  21.455
82433W        W83298  13.581   6.370  19.418
82434W        W83299  11.179   5.294  21.595
82435W        W83300  14.145   3.758  18.891
82436W        W83301  13.665   6.233  18.902
82437W        W83302  12.567   5.291  18.987
82438W        W83303  13.754   4.095  18.510
82439W        W83304  13.819   4.702  20.696
82440W        W83305  11.528   5.295  19.903
82441W        W83306  11.822   6.234  19.552
82442W        W83307  13.585   4.854  19.517
82443W        W83308  12.608   4.233  20.213
82444W        W83309  14.570   6.144  20.724
82445W        W83310  14.488   4.131  20.285
82446W        W83311  11.027   6.961  19.661
82447W        W83312  11.536   6.148  19.197
82448W        W83313  11.451   3.765  21.750
82449W        W83314  12.570   6.618  21.852
82450W        W83315  14.325   5.586  19.642
82451W        W83316  13.679   5.763  18.522
82452W        W83317  12.974   7.284  20.734
82453W        W83318  13.831   6.006  21.771
82454W        W83319  12.646   3.716  19.051
82455W        W83320  13.359   4.585  19.910
82456W        W83321  11.045   6.172  20.242
82457W        W83322  12.298   4.134  18.883
82458W        W83323  12.102   5.618  21.732
82459W        W83324  13.096   4.599  19.446
82460W        W83325  13.301   6.009  20.568
82461W        W83326  11.455   6.614  21.003
82462W        W83327  12.046   6.597  21.726
82463W        W83328  11.897   4.394  18.740
82464W        W83329  13.414   4.536  19.065
82465W        W83330  13.372   6.644  21.302
82466W        W83331  12.057   5.236  19.901
82467W        W83332  11.712   6.934  20.766
82468W        W83333  14.457   7.051  18.367
82469W        W83334  11.320   5.723  21.363
82470W        W83335  13.315   5.985  20.051
82471W        W83336  11.751   5.634  19.293
82472W        W83337  12.122   6.641  20.688
82473W        W83338  12.500   4.060  19.729
82474W        W83339  11.111   6.044  18.659
82475W        W83340  12.630   4.995  18.529
82476W        W83341  11.276   5.544  19.548
82477W        W83342  12.566   4.186  21.012
82478W        W83343  14.238   3.895  18.439
82479W        W83344  14.331   5.641  21.538
82480W        W83345  12.985   6.898  21.690
82481W        W83346  14.543   5.992  21.212
82482W        W83347  13.951   6.790  21.823
82483W        W83348  11.690   7.246  20.301
82484W        W83349  14.549   5.868  19.175
82485W        W83350  13.079   5.135  19.688
82486W        W83351  12.846   3.747  19.578
82487W        W83352  11.905   6.731  19.415
82488W        W83353  12.404   4.472  20.640
82489W        W83354  12.104   3.841  20.109
82490W        W83355  11.167   6.663  18.657
82491W        W83356  12.983   6.027  19.375
82492W        W83357  11.858   6.822  21.254
82493W        W83358  11.335   5.645  18.950
82494W        W83359  11.220   4.188  19.949
82495W        W83360  12.768   6.153  20.006
82496W        W83361  11.020   4.007  19.026
82497W        W83362  13.684   5.213  20.953
82498W        W83363  13.561   4.599  18.525
82499W        W83364  14.078   6.271  20.173
82500W        W83365  12.739   6.755  20.004
82501W        W83366  12.151   6.859  18.915
82502W        W83367  13.433   3.762  18.345
82503W        W83368  11.233   7.022  20.086
82504W        W83369  13.430   4.780  21.721
82505W        W83370  11.413   4.310  21.720
82506W        W83371  11.144   4.910  19.053
82507W        W83372  11.835   4.899  18.778
82508W        W83373  13.598   5.226  21.595
82509W        W83374  11.941   5.507  20.304
82510W        W83375  13.415   3.793  19.424
82511W        W83376  12.546   7.224  19.927
82512W        W83377  13.760   6.686  20.864
82513W        W83378  13.344   6.835  19.975
82514W        W83379  13.363   5.815  19.569
82515W        W83380  12.825   4.040  18.640
82516W        W83381  14.506   3.668  19.362
82517W        W83382  12.194   5.303  18.525
82518W        W83383  14.360   4.640  19.515
82519W        W83384  13.052   5.810  18.392
82520W        W83385  13.988   6.010  21.140
82521W        W83386  13.642   6.711  18.607
82522W        W83387  12.257   4.386  21.513
82523W        W83388  12.077   4.970  20.754
82524W        W83389  14.169   6.465  21.031
82525W        W83390  13.269   4.415  21.408
82526W        W83391  11.113   4.886  21.185
82527W        W83392  12.873   5.363  20.911
82528W        W83393  11.230   6.121  19.568
82529W        W83394  11.377   5.418  20.458
82530W        W83395  13.694   5.704  20.808
82531W        W83396  13.466   7.084  21.619
82532W        W83397  13.362   4.823  21.172
82533W        W83398  13.639   6.877  19.577
82534W        W83399  12.641   6.597  20.900
82535W        W83400  12.126   6.952  20.169
82536W        W83401  13.931   6.123  20.588
82537W        W83402  12.981   6.195  21.725
82538W        W83403  11.586   6.148  20.064
82539W        W83404  13.932   5.907  19.709
82540W        W83405  13.573   6.973  20.460
82541W        W83406  11.551   6.702  20.330
82542W        W83407  12.572   4.754  21.540
82543W        W83408  13.023   6.920  19.051
82544W        W83409  12.331   6.175  21.689
82545W        W83410  12.457   6.413  19.066
82546W        W83411  11.678   5.153  18.325
82547W        W83412  11.017   7.239  25.225
82548W        W83413  11.393   6.132  24.748
82549W        W83414  14.098   5.862  22.518
82550W        W83415  14.228   6.947  24.545
82551W        W83416  12.146   6.938  22.071
82552W        W83417  12.229   5.090  23.054
82553W        W83418  11.744   4.938  23.218
82554W        W83419  12.735   5.753  22.652
82555W        W83420  12.410   6.845  25.007
82556W        W83421  11.059   4.406  24.970
82557W        W83422  11.821   3.686  24.772
82558W        W83423  13.515   4.074  23.659
82559W        W83424  13.164   4.945  22.229
82560W        W83425  13.734   4.379  25.320
82561W        W83426  11.100   4.171  24.445
82562W        W83427  11.199   6.790  25.466
82563W        W83428  12.721   6.180  22.198
82564W        W83429  11.153   4.963  23.891
82565W        W83430  12.046   4.854  25.128
82566W        W83431  14.505   4.713  23.627
82567W        W83432  14.269   5.756  24.486
82568W        W83433  12.577   5.089  23.513
82569W        W83434  13.123   6.428  23.882
82570W        W83435  11.623   5.862  24.114
82571W        W83436  10.982   5.390  23.685
82572W        W83437  12.018   5.362  24.877
82573W        W83438  14.289   5.145  25.131
82574W        W83439  11.905   6.589  23.576
82575W        W83440  13.026   6.278  24.710
82576W        W83441  12.246   4.918  23.935
82577W        W83442  12.538   5.702  23.578
82578W        W83443  13.535   6.475  25.426
82579W        W83444  12.614   5.795  25.436
82580W        W83445  12.595   5.511  24.914
82581W        W83446  11.004   4.902  25.436
82582W        W83447  13.836   6.437  25.035
82583W        W83448  11.417   4.019  23.033
82584W        W83449  11.944   6.277  24.032
82585W        W83450  14.407   6.060  23.322
82586W        W83451  13.820   4.460  23.889
82587W        W83452  14.105   4.413  21.984
82588W        W83453  14.570   5.214  24.290
82589W        W83454  12.537   6.921  24.043
82590W        W83455  14.311   6.387  22.481
82591W        W83456  11.440   7.173  22.235
82592W        W83457  11.833   7.219  22.911
82593W        W83458  11.630   3.973  24.337
82594W        W83459  14.253   4.991  24.612
82595W        W83460  13.658   5.413  23.071
82596W        W83461  13.624   5.101  22.098
82597W        W83462  12.832   6.245  24.238
82598W        W83463  12.638   4.575  23.437
82599W        W83464  13.238   6.662  24.431
82600W        W83465  14.109   5.453  22.853
82601W        W83466  13.011   4.111  22.869
82602W        W83467  11.668   6.805  22.552
82603W        W83468  11.039   4.304  23.151
82604W        W83469  13.825   4.911  23.625
82605W        W83470  11.283   6.528  23.540
82606W        W83471  12.624   6.878  22.410
82607W        W83472  14.016   4.904  21.874
82608W        W83473  11.039   6.662  24.038
82609W        W83474  11.830   6.234  24.518
82610W        W83475  12.203   5.594  23.137
82611W        W83476  12.225   3.999  24.230
82612W        W83477  14.454   3.761  23.527
82613W        W83478  11.673   5.633  21.995
82614W        W83479  11.328   4.666  22.174
82615W        W83480  11.390   6.622  22.968
82616W        W83481  12.521   6.105  23.216
82617W        W83482  13.853   6.964  24.930
82618W        W83483  12.779   4.606  22.614
82619W        W83484  14.162   7.004  23.386
82620W        W83485  13.839   4.857  24.984
82621W        W83486  14.552   6.513  23.118
82622W        W83487  13.179   5.805  24.602
82623W        W83488  10.945   5.356  22.808
82624W        W83489  12.056   5.771  24.381
82625W        W83490  13.260   5.035  22.759
82626W        W83491  13.137   5.525  22.863
82627W        W83492  11.480   4.945  24.337
82628W        W83493  11.465   4.821  25.259
82629W        W83494  11.355   3.738  23.418
82630W        W83495  13.123   4.085  23.979
82631W        W83496  12.771   4.270  25.142
82632W        W83497  13.126   4.419  22.320
82633W        W83498  14.309   6.812  25.074
82634W        W83499  13.276   3.893  25.113
82635W        W83500  14.295   6.194  25.235
82636W        W83501  13.725   4.361  24.831
82637W        W83502  13.525   4.299  23.101
82638W        W83503  13.918   5.433  25.505
82639W        W83504  11.658   7.009  23.491
82640W        W83505  12.316   4.726  22.477
82641W        W83506  11.885   4.010  25.141
82642W        W83507  13.937   4.494  22.822
82643W        W83508  14.304   4.976  22.767
82644W        W83509  12.047   7.193  25.238
82645W        W83510  11.973   3.729  22.473
82646W        W83511  14.294   4.263  23.508
82647W        W83512  14.444   6.512  21.953
82648W        W83513  11.351   5.715  23.655
82649W        W83514  13.268   4.302  21.885
82650W        W83515  14.402   6.634  23.605
82651W        W83516  14.441   3.828  24.355
82652W        W83517  12.886   5.040  24.909
82653W        W83518  12.979   6.379  22.612
82654W        W83519  13.379   5.673  25.352
82655W        W83520  13.053   3.650  23.661
82656W        W83521  11.665   4.553  23.724
82657W        W83522  11.219   5.753  24.498
82658W        W83523  13.078   6.946  23.204
82659W        W83524  14.272   4.543  24.076
82660W        W83525  12.909   6.890  24.843
82661W        W83526  14.252   5.949  22.048
82662W        W83527  12.687   5.432  23.109
82663W        W83528  14.539   3.943  24.850
82664W        W83529  12.688   5.778  24.444
82665W        W83530  12.905   4.664  23.889
82666W        W83531  13.757   4.962  22.727
82667W        W83532  14.044   4.695  22.369
82668W        W83533  13.853   6.735  22.758
82669W        W83534  13.687   6.338  23.554
82670W        W83535  13.583   5.417  22.532
82671W        W83536  13.016   5.627  23.518
82672W        W83537  13.897   5.415  23.585
82673W        W83538  11.272   4.430  24.009
82674W        W83539  14.050   5.482  24.836
82675W        W83540  14.401   7.100  23.982
82676W        W83541  12.331   6.544  23.384
82677W        W83542  13.338   7.077  24.708
82678W        W83543  13.332   4.407  24.472
82679W        W83544  12.539   7.115  24.533
82680W        W83545  14.236   4.069  22.999
82681W        W83546  14.027   5.388  24.300
82682W        W83547  11.010   4.709  24.338
82683W        W83548  13.870   4.504  23.356
82684W        W83549  14.281   4.655  25.133
82685W        W83550  13.166   6.354  23.351
82686W        W83551  12.422   6.945  22.964
82687W        W83552  11.537   4.125  22.222
82688W        W83553  12.641   3.779  24.032
82689W        W83554  11.669   6.899  21.880
82690W        W83555  12.043   5.365  22.631
82691W        W83556  12.697   5.994  24.944
82692W        W83557  12.527   4.352  22.934
82693W        W83558  13.883   3.949  23.362
82694W        W83559  13.603   7.231  23.690
82695W        W83560  13.015   6.879  24.030
82696W        W83561  12.411   5.916  23.991
82697W        W83562  14.181   6.639  24.117
82698W        W83563  11.875   4.142  22.886
82699W        W83564  12.397   6.439  23.846
82700W        W83565  11.880   4.370  21.911
82701W        W83566  12.681   4.979  24.305
82702W        W83567  13.529   3.845  24.175
82703W        W83568  10.949   5.688  24.060
82704W        W83569  12.653   5.506  22.218
82705W        W83570  11.921   3.821  21.988
82706W        W83571  12.659   4.902  23.039
82707W        W83572  13.629   3.878  24.738
82708W        W83573  12.217   5.890  24.847
82709W        W83574  13.021   5.672  25.064
82710W        W83575  13.638   5.702  24.957
82711W        W83576  12.922   3.842  25.462
82712W        W83577  12.144   4.458  23.855
82713W        W83578  11.570   4.414  23.253
82714W        W83579  11.356   7.126  22.929
82715W        W83580  12.688   6.456  25.054
82716W        W83581  11.723   5.941  22.413
82717W        W83582  13.403   5.326  23.634
82718W        W83583  13.683   5.125  24.033
82719W        W83584  12.888   5.799  23.967
82720W        W83585  13.358   6.173  22.099
82721W        W83586  13.030   4.194  23.427
82722W        W83587  14.509   4.472  22.695
82723W        W83588  11.003   7.061  24.726
82724W        W83589  11.420   6.287  24.258
82725W        W83590  10.987   7.133  22.490
82726W        W83591  12.886   4.403  24.296
82727W        W83592  12.249   6.426  22.145
82728W        W83593  14.154   6.808  22.331
82729W        W83594  13.129   5.461  22.345
82730W        W83595  11.972   4.652  22.862
82731W        W83596  12.804   4.562  21.914
82732W        W83597  13.388   6.127  25.092
82733W        W83598  13.741   4.033  22.709
82734W        W83599  11.071   3.881  22.157
82735W        W83600  12.357   6.200  24.447
82736W        W83601  12.156   6.116  23.539
82737W        W83602  11.898   6.068  21.937
82738W        W83603  11.139   6.309  22.705
82739W        W83604  11.643   5.379  25.147
82740W        W83605  12.347   3.939  25.333
82741W        W83606  13.056   4.081  24.689
82742W        W83607  12.251   3.849  22.970
82743W        W83608  13.310   3.926  22.475
82744W        W83609  11.255   3.858  24.052
82745W        W83610  11.303   4.821  23.422
82746W        W83611  13.992   3.929  23.828
82747W        W83612  11.414   4.427  22.642
82748W        W83613  13.985   4.115  24.258
82749W        W83614  14.381   5.318  21.943
82750W        W83615  11.673   4.076  23.762
82751W        W83616  12.787   4.648  24.702
82752W        W83617  10.935   4.338  22.180
82753W        W83618  11.721   5.727  24.741
82754W        W83619  13.079   5.125  23.920
82755W        W83620  12.946   7.204  22.216
82756W        W83621  11.092   5.711  21.913
82757W        W83622  11.827   6.122  25.039
82758W        W83623  11.348   5.289  24.670
82759W        W83624  12.339   5.394  24.464
82760W        W83625  14.107   3.753  24.726
82761W        W83626  14.505   5.363  24.717
82762W        W83627  14.493   5.563  22.403
82763W        W83628  13.356   5.895  22.502
82764W        W83629  13.830   7.195  22.197
82765W        W83630  13.007   5.185  25.339
82766W        W83631  11.337   6.152  25.379
82767W        W83632  14.543   4.074  25.331
82768W        W83633  14.261   5.002  23.952
82769W        W83634  12.569   7.132  25.429
82770W        W83635  12.424   3.761  22.156
82771W        W83636  13.963   6.360  22.099
82772W        W83637  11.732   4.453  24.985
82773W        W83638  12.166   6.447  24.847
82774W        W83639  14.292   4.438  24.645
82775W        W83640  13.503   7.097  22.613
82776W        W83641  13.742   5.716  23.980
82777W        W83642  11.992   4.132  24.647
82778W        W83643  12.461   5.201  25.404
82779W        W83644  11.964   6.380  22.598
82780W        W83645  13.719   5.878  22.862
82781W        W83646  11.487   4.504  24.586
82782W        W83647  12.816   6.566  23.050
82783W        W83648  14.566   5.126  23.231
82784W        W83649  12.788   3.759  24.950
82785W        W83650  13.568   6.464  24.029
82786W        W83651  13.871   6.808  23.737
82787W        W83652  13.090   6.610  22.165
82788W        W83653  11.100   6.502  25.007
82789W        W83654  11.843   4.494  24.245
82790W        W83655  11.813   3.842  23.355
82791W        W83656  13.434   4.684  24.047
82792W        W83657  12.232   5.855  22.247
82793W        W83658  14.230   5.797  23.746
82794W        W83659  11.557   6.555  25.169
82795W        W83660  13.944   7.237  22.966
82796W        W83661  12.043   4.257  23.411
82797W        W83662  11.812   5.750  23.501
82798W        W83663  12.125   7.161  24.251
82799W        W83664  14.192   7.257  25.283
82800W        W83665  13.351   5.445  24.216
82801W        W83666  11.200   5.243  22.131
82802W        W83667  14.334   6.901  22.828
82803W        W83668  14.171   4.225  22.447
82804W        W83669  12.310   3.744  24.850
82805W        W83670  14.016   6.546  23.308
82806W        W83671  14.045   5.102  23.213
82807W        W83672  12.162   4.775  23.429
82808W        W83673  12.407   5.037  24.753
82809W        W83674  13.518   6.190  24.616
82810W        W83675  12.168   4.644  24.728
82811W        W83676  12.147   7.110  23.344
82812W        W83677  11.464   7.069  24.978
82813W        W83678  11.576   6.430  22.108
82814W        W83679  14.093   6.188  22.918
82815W        W83680  11.697   4.980  24.804
82816W        W83681  14.470   4.910  22.285
82817W        W83682  12.215   5.967  22.756
82818W        W83683  13.314   5.349  24.837
82819W        W83684  13.205   4.977  24.381
82820W        W83685  11.765   5.349  24.410
82821W        W83686  13.975   7.237  24.239
82822W        W83687  13.766   3.871  25.233
82823W        W83688  11.430   4.021  24.820
82824W        W83689  11.769   5.044  23.873
82825W        W83690  12.138   4.858  21.995
82826W        W83691  10.941   6.617  24.540
82827W        W83692  12.526   5.326  23.983
82828W        W83693  12.349   4.351  22.088
82829W        W83694  11.484   5.167  22.869
82830W        W83695  11.255   7.019  24.306
82831W        W83696  14.050   5.245  22.414
82832W        W83697  14.145   4.161  25.100
82833W        W83698  13.581   6.370  23.063
82834W        W83699  11.179   5.294  25.240
82835W        W83700  14.145   3.758  22.536
82836W        W83701  13.665   6.233  22.547
82837W        W83702  12.567   5.291  22.632
82838W        W83703  13.754   4.095  22.155
82839W        W83704  13.819   4.702  24.341
82840W        W83705  11.528   5.295  23.548
82841W        W83706  11.822   6.234  23.197
82842W        W83707  13.585   4.854  23.162
82843W        W83708  12.608   4.233  23.858
82844W        W83709  14.570   6.144  24.369
82845W        W83710  14.488   4.131  23.930
82846W        W83711  11.027   6.961  23.306
82847W        W83712  11.536   6.148  22.842
82848W        W83713  11.451   3.765  25.395
82849W        W83714  12.570   6.618  25.497
82850W        W83715  14.325   5.586  23.287
82851W        W83716  13.679   5.763  22.167
82852W        W83717  12.974   7.284  24.379
82853W        W83718  13.831   6.006  25.416
82854W        W83719  12.646   3.716  22.696
82855W        W83720  13.359   4.585  23.555
82856W        W83721  11.045   6.172  23.887
82857W        W83722  12.298   4.134  22.528
82858W        W83723  12.102   5.618  25.377
82859W        W83724  13.096   4.599  23.091
82860W        W83725  13.301   6.009  24.213
82861W        W83726  11.455   6.614  24.648
82862W        W83727  12.046   6.597  25.371
82863W        W83728  11.897   4.394  22.385
82864W        W83729  13.414   4.536  22.710
82865W        W83730  13.372   6.644  24.947
82866W        W83731  12.057   5.236  23.546
82867W        W83732  11.712   6.934  24.411
82868W        W83733  14.457   7.051  22.012
82869W        W83734  11.320   5.723  25.008
82870W        W83735  13.315   5.985  23.696
82871W        W83736  11.751   5.634  22.938
82872W        W83737  12.122   6.641  24.333
82873W        W83738  12.500   4.060  23.374
82874W        W83739  11.111   6.044  22.304
82875W        W83740  12.630   4.995  22.174
82876W        W83741  11.276   5.544  23.193
82877W        W83742  12.566   4.186  24.657
82878W        W83743  14.238   3.895  22.084
82879W        W83744  14.331   5.641  25.183
82880W        W83745  12.985   6.898  25.335
82881W        W83746  14.543   5.992  24.857
82882W        W83747  13.951   6.790  25.468
82883W        W83748  11.690   7.246  23.946
82884W        W83749  14.549   5.868  22.820
82885W        W83750  13.079   5.135  23.333
82886W        W83751  12.846   3.747  23.223
82887W        W83752  11.905   6.731  23.060
82888W        W83753  12.404   4.472  24.285
82889W        W83754  12.104   3.841  23.754
82890W        W83755  11.167   6.663  22.302
82891W        W83756  12.983   6.027  23.020
82892W        W83757  11.858   6.822  24.899
82893W        W83758  11.335   5.645  22.595
82894W        W83759  11.220   4.188  23.594
82895W        W83760  12.768   6.153  23.651
82896W        W83761  11.020   4.007  22.671
82897W        W83762  13.684   5.213  24.598
82898W        W83763  13.561   4.599  22.170
82899W        W83764  14.078   6.271  23.818
82900W        W83765  12.739   6.755  23.649
82901W        W83766  12.151   6.859  22.560
82902W        W83767  13.433   3.762  21.990
82903W        W83768  11.233   7.022  23.731
82904W        W83769  13.430   4.780  25.366
82905W        W83770  11.413   4.310  25.365
82906W        W83771  11.144   4.910  22.698
82907W        W83772  11.835   4.899  22.423
82908W        W83773  13.598   5.226  25.240
82909W        W83774  11.941   5.507  23.949
82910W        W83775  13.415   3.793  23.069
82911W        W83776  12.546   7.224  23.572
82912W        W83777  13.760   6.686  24.509
82913W        W83778  13.344   6.835  23.620
82914W        W83779  13.363   5.815  23.214
82915W        W83780  12.825   4.040  22.285
82916W        W83781  14.506   3.668  23.007
82917W        W83782  12.194   5.303  22.170
82918W        W83783  14.360   4.640  23.160
82919W        W83784  13.052   5.810  22.037
82920W        W83785  13.988   6.010  24.785
82921W        W83786  13.642   6.711  22.252
82922W        W83787  12.257   4.386  25.158
82923W        W83788  12.077   4.970  24.399
82924W        W83789  14.169   6.465  24.676
82925W        W83790  13.269   4.415  25.053
82926W        W83791  11.113   4.886  24.830
82927W        W83792  12.873   5.363  24.556
82928W        W83793  11.230   6.121  23.213
82929W        W83794  11.377   5.418  24.103
82930W        W83795  13.694   5.704  24.453
82931W        W83796  13.466   7.084  25.264
82932W        W83797  13.362   4.823  24.817
82933W        W83798  13.639   6.877  23.222
82934W        W83799  12.641   6.597  24.545
82935W        W83800  12.126   6.952  23.814
82936W        W83801  13.931   6.123  24.233
82937W        W83802  12.981   6.195  25.370
82938W        W83803  11.586   6.148  23.709
82939W        W83804  13.932   5.907  23.354
82940W        W83805  13.573   6.973  24.105
82941W        W83806  11.551   6.702  23.975
82942W        W83807  12.572   4.754  25.185
82943W        W83808  13.023   6.920  22.696
82944W        W83809  12.331   6.175  25.334
82945W        W83810  12.457   6.413  22.711
82946W        W83811  11.678   5.153  21.970
82947W        W83812  11.017   7.239  28.869
82948W        W83813  11.393   6.132  28.392
82949W        W83814  14.098   5.862  26.162
82950W        W83815  14.228   6.947  28.189
82951W        W83816  12.146   6.938  25.715
82952W        W83817  12.229   5.090  26.698
82953W        W83818  11.744   4.938  26.862
82954W        W83819  12.735   5.753  26.296
82955W        W83820  12.410   6.845  28.651
82956W        W83821  11.059   4.406  28.614
82957W        W83822  11.821   3.686  28.416
82958W        W83823  13.515   4.074  27.303
82959W        W83824  13.164   4.945  25.873
82960W        W83825  13.734   4.379  28.964
82961W        W83826  11.100   4.171  28.089
82962W        W83827  11.199   6.790  29.110
82963W        W83828  12.721   6.180  25.842
82964W        W83829  11.153   4.963  27.535
82965W        W83830  12.046   4.854  28.772
82966W        W83831  14.505   4.713  27.271
82967W        W83832  14.269   5.756  28.130
82968W        W83833  12.577   5.089  27.157
82969W        W83834  13.123   6.428  27.526
82970W        W83835  11.623   5.862  27.758
82971W        W83836  10.982   5.390  27.329
82972W        W83837  12.018   5.362  28.521
82973W        W83838  14.289   5.145  28.775
82974W        W83839  11.905   6.589  27.220
82975W        W83840  13.026   6.278  28.354
82976W        W83841  12.246   4.918  27.579
82977W        W83842  12.538   5.702  27.222
82978W        W83843  13.535   6.475  29.070
82979W        W83844  12.614   5.795  29.080
82980W        W83845  12.595   5.511  28.558
82981W        W83846  11.004   4.902  29.080
82982W        W83847  13.836   6.437  28.679
82983W        W83848  11.417   4.019  26.677
82984W        W83849  11.944   6.277  27.676
82985W        W83850  14.407   6.060  26.966
82986W        W83851  13.820   4.460  27.533
82987W        W83852  14.105   4.413  25.628
82988W        W83853  14.570   5.214  27.934
82989W        W83854  12.537   6.921  27.687
82990W        W83855  14.311   6.387  26.125
82991W        W83856  11.440   7.173  25.879
82992W        W83857  11.833   7.219  26.555
82993W        W83858  11.630   3.973  27.981
82994W        W83859  14.253   4.991  28.256
82995W        W83860  13.658   5.413  26.715
82996W        W83861  13.624   5.101  25.742
82997W        W83862  12.832   6.245  27.882
82998W        W83863  12.638   4.575  27.081
82999W        W83864  13.238   6.662  28.075
83000W        W83865  14.109   5.453  26.497
83001W        W83866  13.011   4.111  26.513
83002W        W83867  11.668   6.805  26.196
83003W        W83868  11.039   4.304  26.795
83004W        W83869  13.825   4.911  27.269
83005W        W83870  11.283   6.528  27.184
83006W        W83871  12.624   6.878  26.054
83007W        W83872  14.016   4.904  25.518
83008W        W83873  11.039   6.662  27.682
83009W        W83874  11.830   6.234  28.162
83010W        W83875  12.203   5.594  26.781
83011W        W83876  12.225   3.999  27.874
83012W        W83877  14.454   3.761  27.171
83013W        W83878  11.673   5.633  25.639
83014W        W83879  11.328   4.666  25.818
83015W        W83880  11.390   6.622  26.612
83016W        W83881  12.521   6.105  26.860
83017W        W83882  13.853   6.964  28.574
83018W        W83883  12.779   4.606  26.258
83019W        W83884  14.162   7.004  27.030
83020W        W83885  13.839   4.857  28.628
83021W        W83886  14.552   6.513  26.762
83022W        W83887  13.179   5.805  28.246
83023W        W83888  10.945   5.356  26.452
83024W        W83889  12.056   5.771  28.025
83025W        W83890  13.260   5.035  26.403
83026W        W83891  13.137   5.525  26.507
83027W        W83892  11.480   4.945  27.981
83028W        W83893  11.465   4.821  28.903
83029W        W83894  11.355   3.738  27.062
83030W        W83895  13.123   4.085  27.623
83031W        W83896  12.771   4.270  28.786
83032W        W83897  13.126   4.419  25.964
83033W        W83898  14.309   6.812  28.718
83034W        W83899  13.276   3.893  28.757
83035W        W83900  14.295   6.194  28.879
83036W        W83901  13.725   4.361  28.475
83037W        W83902  13.525   4.299  26.745
83038W        W83903  13.918   5.433  29.149
83039W        W83904  11.658   7.009  27.135
83040W        W83905  12.316   4.726  26.121
83041W        W83906  11.885   4.010  28.785
83042W        W83907  13.937   4.494  26.466
83043W        W83908  14.304   4.976  26.411
83044W        W83909  12.047   7.193  28.882
83045W        W83910  11.973   3.729  26.117
83046W        W83911  14.294   4.263  27.152
83047W        W83912  14.444   6.512  25.597
83048W        W83913  11.351   5.715  27.299
83049W        W83914  13.268   4.302  25.529
83050W        W83915  14.402   6.634  27.249
83051W        W83916  14.441   3.828  27.999
83052W        W83917  12.886   5.040  28.553
83053W        W83918  12.979   6.379  26.256
83054W        W83919  13.379   5.673  28.996
83055W        W83920  13.053   3.650  27.305
83056W        W83921  11.665   4.553  27.368
83057W        W83922  11.219   5.753  28.142
83058W        W83923  13.078   6.946  26.848
83059W        W83924  14.272   4.543  27.720
83060W        W83925  12.909   6.890  28.487
83061W        W83926  14.252   5.949  25.692
83062W        W83927  12.687   5.432  26.753
83063W        W83928  14.539   3.943  28.494
83064W        W83929  12.688   5.778  28.088
83065W        W83930  12.905   4.664  27.533
83066W        W83931  13.757   4.962  26.371
83067W        W83932  14.044   4.695  26.013
83068W        W83933  13.853   6.735  26.402
83069W        W83934  13.687   6.338  27.198
83070W        W83935  13.583   5.417  26.176
83071W        W83936  13.016   5.627  27.162
83072W        W83937  13.897   5.415  27.229
83073W        W83938  11.272   4.430  27.653
83074W        W83939  14.050   5.482  28.480
83075W        W83940  14.401   7.100  27.626
83076W        W83941  12.331   6.544  27.028
83077W        W83942  13.338   7.077  28.352
83078W        W83943  13.332   4.407  28.116
83079W        W83944  12.539   7.115  28.177
83080W        W83945  14.236   4.069  26.643
83081W        W83946  14.027   5.388  27.944
83082W        W83947  11.010   4.709  27.982
83083W        W83948  13.870   4.504  27.000
83084W        W83949  14.281   4.655  28.777
83085W        W83950  13.166   6.354  26.995
83086W        W83951  12.422   6.945  26.608
83087W        W83952  11.537   4.125  25.866
83088W        W83953  12.641   3.779  27.676
83089W        W83954  11.669   6.899  25.524
83090W        W83955  12.043   5.365  26.275
83091W        W83956  12.697   5.994  28.588
83092W        W83957  12.527   4.352  26.578
83093W        W83958  13.883   3.949  27.006
83094W        W83959  13.603   7.231  27.334
83095W        W83960  13.015   6.879  27.674
83096W        W83961  12.411   5.916  27.635
83097W        W83962  14.181   6.639  27.761
83098W        W83963  11.875   4.142  26.530
83099W        W83964  12.397   6.439  27.490
83100W        W83965  11.880   4.370  25.555
83101W        W83966  12.681   4.979  27.949
83102W        W83967  13.529   3.845  27.819
83103W        W83968  10.949   5.688  27.704
83104W        W83969  12.653   5.506  25.862
83105W        W83970  11.921   3.821  25.632
83106W        W83971  12.659   4.902  26.683
83107W        W83972  13.629   3.878  28.382
83108W        W83973  12.217   5.890  28.491
83109W        W83974  13.021   5.672  28.708
83110W        W83975  13.638   5.702  28.601
83111W        W83976  12.922   3.842  29.106
83112W        W83977  12.144   4.458  27.499
83113W        W83978  11.570   4.414  26.897
83114W        W83979  11.356   7.126  26.573
83115W        W83980  12.688   6.456  28.698
83116W        W83981  11.723   5.941  26.057
83117W        W83982  13.403   5.326  27.278
83118W        W83983  13.683   5.125  27.677
83119W        W83984  12.888   5.799  27.611
83120W        W83985  13.358   6.173  25.743
83121W        W83986  13.030   4.194  27.071
83122W        W83987  14.509   4.472  26.339
83123W        W83988  11.003   7.061  28.370
83124W        W83989  11.420   6.287  27.902
83125W        W83990  10.987   7.133  26.134
83126W        W83991  12.886   4.403  27.940
83127W        W83992  12.249   6.426  25.789
83128W        W83993  14.154   6.808  25.975
83129W        W83994  13.129   5.461  25.989
83130W        W83995  11.972   4.652  26.506
83131W        W83996  12.804   4.562  25.558
83132W        W83997  13.388   6.127  28.736
83133W        W83998  13.741   4.033  26.353
83134W        W83999  11.071   3.881  25.801
83135W        W84000  12.357   6.200  28.091
83136W        W84001  12.156   6.116  27.183
83137W        W84002  11.898   6.068  25.581
83138W        W84003  11.139   6.309  26.349
83139W        W84004  11.643   5.379  28.791
83140W        W84005  12.347   3.939  28.977
83141W        W84006  13.056   4.081  28.333
83142W        W84007  12.251   3.849  26.614
83143W        W84008  13.310   3.926  26.119
83144W        W84009  11.255   3.858  27.696
83145W        W84010  11.303   4.821  27.066
83146W        W84011  13.992   3.929  27.472
83147W        W84012  11.414   4.427  26.286
83148W        W84013  13.985   4.115  27.902
83149W        W84014  14.381   5.318  25.587
83150W        W84015  11.673   4.076  27.406
83151W        W84016  12.787   4.648  28.346
83152W        W84017  10.935   4.338  25.824
83153W        W84018  11.721   5.727  28.385
83154W        W84019  13.079   5.125  27.564
83155W        W84020  12.946   7.204  25.860
83156W        W84021  11.092   5.711  25.557
83157W        W84022  11.827   6.122  28.683
83158W        W84023  11.348   5.289  28.314
83159W        W84024  12.339   5.394  28.108
83160W        W84025  14.107   3.753  28.370
83161W        W84026  14.505   5.363  28.361
83162W        W84027  14.493   5.563  26.047
83163W        W84028  13.356   5.895  26.146
83164W        W84029  13.830   7.195  25.841
83165W        W84030  13.007   5.185  28.983
83166W        W84031  11.337   6.152  29.023
83167W        W84032  14.543   4.074  28.975
83168W        W84033  14.261   5.002  27.596
83169W        W84034  12.569   7.132  29.073
83170W        W84035  12.424   3.761  25.800
83171W        W84036  13.963   6.360  25.743
83172W        W84037  11.732   4.453  28.629
83173W        W84038  12.166   6.447  28.491
83174W        W84039  14.292   4.438  28.289
83175W        W84040  13.503   7.097  26.257
83176W        W84041  13.742   5.716  27.624
83177W        W84042  11.992   4.132  28.291
83178W        W84043  12.461   5.201  29.048
83179W        W84044  11.964   6.380  26.242
83180W        W84045  13.719   5.878  26.506
83181W        W84046  11.487   4.504  28.230
83182W        W84047  12.816   6.566  26.694
83183W        W84048  14.566   5.126  26.875
83184W        W84049  12.788   3.759  28.594
83185W        W84050  13.568   6.464  27.673
83186W        W84051  13.871   6.808  27.381
83187W        W84052  13.090   6.610  25.809
83188W        W84053  11.100   6.502  28.651
83189W        W84054  11.843   4.494  27.889
83190W        W84055  11.813   3.842  26.999
83191W        W84056  13.434   4.684  27.691
83192W        W84057  12.232   5.855  25.891
83193W        W84058  14.230   5.797  27.390
83194W        W84059  11.557   6.555  28.813
83195W        W84060  13.944   7.237  26.610
83196W        W84061  12.043   4.257  27.055
83197W        W84062  11.812   5.750  27.145
83198W        W84063  12.125   7.161  27.895
83199W        W84064  14.192   7.257  28.927
83200W        W84065  13.351   5.445  27.860
83201W        W84066  11.200   5.243  25.775
83202W        W84067  14.334   6.901  26.472
83203W        W84068  14.171   4.225  26.091
83204W        W84069  12.310   3.744  28.494
83205W        W84070  14.016   6.546  26.952
83206W        W84071  14.045   5.102  26.857
83207W        W84072  12.162   4.775  27.073
83208W        W84073  12.407   5.037  28.397
83209W        W84074  13.518   6.190  28.260
83210W        W84075  12.168   4.644  28.372
83211W        W84076  12.147   7.110  26.988
83212W        W84077  11.464   7.069  28.622
83213W        W84078  11.576   6.430  25.752
83214W        W84079  14.093   6.188  26.562
83215W        W84080  11.697   4.980  28.448
83216W        W84081  14.470   4.910  25.929
83217W        W84082  12.215   5.967  26.400
83218W        W84083  13.314   5.349  28.481
83219W        W84084  13.205   4.977  28.025
83220W        W84085  11.765   5.349  28.054
83221W        W84086  13.975   7.237  27.883
83222W        W84087  13.766   3.871  28.877
83223W        W84088  11.430   4.021  28.464
83224W        W84089  11.769   5.044  27.517
83225W        W84090  12.138   4.858  25.639
83226W        W84091  10.941   6.617  28.184
83227W        W84092  12.526   5.326  27.627
83228W        W84093  12.349   4.351  25.732
83229W        W84094  11.484   5.167  26.513
83230W        W84095  11.255   7.019  27.950
83231W        W84096  14.050   5.245  26.058
83232W        W84097  14.145   4.161  28.744
83233W        W84098  13.581   6.370  26.707
83234W        W84099  11.179   5.294  28.884
83235W        W84100  14.145   3.758  26.180
83236W        W84101  13.665   6.233  26.191
83237W        W84102  12.567   5.291  26.276
83238W        W84103  13.754   4.095  25.799
83239W        W84104  13.819   4.702  27.985
83240W        W84105  11.528   5.295  27.192
83241W        W84106  11.822   6.234  26.841
83242W        W84107  13.585   4.854  26.806
83243W        W84108  12.608   4.233  27.502
83244W        W84109  14.570   6.144  28.013
83245W        W84110  14.488   4.131  27.574
83246W        W84111  11.027   6.961  26.950
83247W        W84112  11.536   6.148  26.486
83248W        W84113  11.451   3.765  29.039
83249W        W84114  12.570   6.618  29.141
83250W        W84115  14.325   5.586  26.931
83251W        W84116  13.679   5.763  25.811
83252W        W84117  12.974   7.284  28.023
83253W        W84118  13.831   6.006  29.060
83254W        W84119  12.646   3.716  26.340
83255W        W84120  13.359   4.585  27.199
83256W        W84121  11.045   6.172  27.531
83257W        W84122  12.298   4.134  26.172
83258W        W84123  12.102   5.618  29.021
83259W        W84124  13.096   4.599  26.735
83260W        W84125  13.301   6.009  27.857
83261W        W84126  11.455   6.614  28.292
83262W        W84127  12.046   6.597  29.015
83263W        W84128  11.897   4.394  26.029
83264W        W84129  13.414   4.536  26.354
83265W        W84130  13.372   6.644  28.591
83266W        W84131  12.057   5.236  27.190
83267W        W84132  11.712   6.934  28.055
83268W        W84133  14.457   7.051  25.656
83269W        W84134  11.320   5.723  28.652
83270W        W84135  13.315   5.985  27.340
83271W        W84136  11.751   5.634  26.582
83272W        W84137  12.122   6.641  27.977
83273W        W84138  12.500   4.060  27.018
83274W        W84139  11.111   6.044  25.948
83275W        W84140  12.630   4.995  25.818
83276W        W84141  11.276   5.544  26.837
83277W        W84142  12.566   4.186  28.301
83278W        W84143  14.238   3.895  25.728
83279W        W84144  14.331   5.641  28.827
83280W        W84145  12.985   6.898  28.979
83281W        W84146  14.543   5.992  28.501
83282W        W84147  13.951   6.790  29.112
83283W        W84148  11.690   7.246  27.590
83284W        W84149  14.549   5.868  26.464
83285W        W84150  13.079   5.135  26.977
83286W        W84151  12.846   3.747  26.867
83287W        W84152  11.905   6.731  26.704
83288W        W84153  12.404   4.472  27.929
83289W        W84154  12.104   3.841  27.398
83290W        W84155  11.167   6.663  25.946
83291W        W84156  12.983   6.027  26.664
83292W        W84157  11.858   6.822  28.543
83293W        W84158  11.335   5.645  26.239
83294W        W84159  11.220   4.188  27.238
83295W        W84160  12.768   6.153  27.295
83296W        W84161  11.020   4.007  26.315
83297W        W84162  13.684   5.213  28.242
83298W        W84163  13.561   4.599  25.814
83299W        W84164  14.078   6.271  27.462
83300W        W84165  12.739   6.755  27.293
83301W        W84166  12.151   6.859  26.204
83302W        W84167  13.433   3.762  25.634
83303W        W84168  11.233   7.022  27.375
83304W        W84169  13.430   4.780  29.010
83305W        W84170  11.413   4.310  29.009
83306W        W84171  11.144   4.910  26.342
83307W        W84172  11.835   4.899  26.067
83308W        W84173  13.598   5.226  28.884
83309W        W84174  11.941   5.507  27.593
83310W        W84175  13.415   3.793  26.713
83311W        W84176  12.546   7.224  27.216
83312W        W84177  13.760   6.686  28.153
83313W        W84178  13.344   6.835  27.264
83314W        W84179  13.363   5.815  26.858
83315W        W84180  12.825   4.040  25.929
83316W        W84181  14.506   3.668  26.651
83317W        W84182  12.194   5.303  25.814
83318W        W84183  14.360   4.640  26.804
83319W        W84184  13.052   5.810  25.681
83320W        W84185  13.988   6.010  28.429
83321W        W84186  13.642   6.711  25.896
83322W        W84187  12.257   4.386  28.802
83323W        W84188  12.077   4.970  28.043
83324W        W84189  14.169   6.465  28.320
83325W        W84190  13.269   4.415  28.697
83326W        W84191  11.113   4.886  28.474
83327W        W84192  12.873   5.363  28.200
83328W        W84193  11.230   6.121  26.857
83329W        W84194  11.377   5.418  27.747
83330W        W84195  13.694   5.704  28.097
83331W        W84196  13.466   7.084  28.908
83332W        W84197  13.362   4.823  28.461
83333W        W84198  13.639   6.877  26.866
83334W        W84199  12.641   6.597  28.189
83335W        W84200  12.126   6.952  27.458
83336W        W84201  13.931   6.123  27.877
83337W        W84202  12.981   6.195  29.014
83338W        W84203  11.586   6.148  27.353
83339W        W84204  13.932   5.907  26.998
83340W        W84205  13.573   6.973  27.749
83341W        W84206  11.551   6.702  27.619
83342W        W84207  12.572   4.754  28.829
83343W        W84208  13.023   6.920  26.340
83344W        W84209  12.331   6.175  28.978
83345W        W84210  12.457   6.413  26.355
83346W        W84211  11.678   5.153  25.614
83347W        W84212  11.017  10.884   3.359
83348W        W84213  11.393   9.777   2.882
83349W        W84214  14.098   9.507   0.652
83350W        W84215  14.228  10.592   2.679
83351W        W84216  12.146  10.583   0.205
83352W        W84217  12.229   8.735   1.188
83353W        W84218  11.744   8.583   1.352
83354W        W84219  12.735   9.398   0.786
83355W        W84220  12.410  10.490   3.141
83356W        W84221  11.059   8.051   3.104
83357W        W84222  11.821   7.331   2.906
83358W        W84223  13.515   7.719   1.793
83359W        W84224  13.164   8.590   0.363
83360W        W84225  13.734   8.024   3.454
83361W        W84226  11.100   7.816   2.579
83362W        W84227  11.199  10.435   3.600
83363W        W84228  12.721   9.825   0.332
83364W        W84229  11.153   8.608   2.025
83365W        W84230  12.046   8.499   3.262
83366W        W84231  14.505   8.358   1.761
83367W        W84232  14.269   9.401   2.620
83368W        W84233  12.577   8.734   1.647
83369W        W84234  13.123  10.073   2.016
83370W        W84235  11.623   9.507   2.248
83371W        W84236  10.982   9.035   1.819
83372W        W84237  12.018   9.007   3.011
83373W        W84238  14.289   8.790   3.265
83374W        W84239  11.905  10.234   1.710
83375W        W84240  13.026   9.923   2.844
83376W        W84241  12.246   8.563   2.069
83377W        W84242  12.538   9.347   1.712
83378W        W84243  13.535  10.120   3.560
83379W        W84244  12.614   9.440   3.570
83380W        W84245  12.595   9.156   3.048
83381W        W84246  11.004   8.547   3.570
83382W        W84247  13.836  10.082   3.169
83383W        W84248  11.417   7.664   1.167
83384W        W84249  11.944   9.922   2.166
83385W        W84250  14.407   9.705   1.456
83386W        W84251  13.820   8.105   2.023
83387W        W84252  14.105   8.058   0.118
83388W        W84253  14.570   8.859   2.424
83389W        W84254  12.537  10.566   2.177
83390W        W84255  14.311  10.032   0.615
83391W        W84256  11.440  10.818   0.369
83392W        W84257  11.833  10.864   1.045
83393W        W84258  11.630   7.618   2.471
83394W        W84259  14.253   8.636   2.746
83395W        W84260  13.658   9.058   1.205
83396W        W84261  13.624   8.746   0.232
83397W        W84262  12.832   9.890   2.372
83398W        W84263  12.638   8.220   1.571
83399W        W84264  13.238  10.307   2.565
83400W        W84265  14.109   9.098   0.987
83401W        W84266  13.011   7.756   1.003
83402W        W84267  11.668  10.450   0.686
83403W        W84268  11.039   7.949   1.285
83404W        W84269  13.825   8.556   1.759
83405W        W84270  11.283  10.173   1.674
83406W        W84271  12.624  10.523   0.544
83407W        W84272  14.016   8.549   0.008
83408W        W84273  11.039  10.307   2.172
83409W        W84274  11.830   9.879   2.652
83410W        W84275  12.203   9.239   1.271
83411W        W84276  12.225   7.644   2.364
83412W        W84277  14.454   7.406   1.661
83413W        W84278  11.673   9.278   0.129
83414W        W84279  11.328   8.311   0.308
83415W        W84280  11.390  10.267   1.102
83416W        W84281  12.521   9.750   1.350
83417W        W84282  13.853  10.609   3.064
83418W        W84283  12.779   8.251   0.748
83419W        W84284  14.162  10.649   1.520
83420W        W84285  13.839   8.502   3.118
83421W        W84286  14.552  10.158   1.252
83422W        W84287  13.179   9.450   2.736
83423W        W84288  10.945   9.001   0.942
83424W        W84289  12.056   9.416   2.515
83425W        W84290  13.260   8.680   0.893
83426W        W84291  13.137   9.170   0.997
83427W        W84292  11.480   8.590   2.471
83428W        W84293  11.465   8.466   3.393
83429W        W84294  11.355   7.383   1.552
83430W        W84295  13.123   7.730   2.113
83431W        W84296  12.771   7.915   3.276
83432W        W84297  13.126   8.064   0.454
83433W        W84298  14.309  10.457   3.208
83434W        W84299  13.276   7.538   3.247
83435W        W84300  14.295   9.839   3.369
83436W        W84301  13.725   8.006   2.965
83437W        W84302  13.525   7.944   1.235
83438W        W84303  13.918   9.078   3.639
83439W        W84304  11.658  10.654   1.625
83440W        W84305  12.316   8.371   0.611
83441W        W84306  11.885   7.655   3.275
83442W        W84307  13.937   8.139   0.956
83443W        W84308  14.304   8.621   0.901
83444W        W84309  12.047  10.838   3.372
83445W        W84310  11.973   7.374   0.607
83446W        W84311  14.294   7.908   1.642
83447W        W84312  14.444  10.157   0.087
83448W        W84313  11.351   9.360   1.789
83449W        W84314  13.268   7.947   0.019
83450W        W84315  14.402  10.279   1.739
83451W        W84316  14.441   7.473   2.489
83452W        W84317  12.886   8.685   3.043
83453W        W84318  12.979  10.024   0.746
83454W        W84319  13.379   9.318   3.486
83455W        W84320  13.053   7.295   1.795
83456W        W84321  11.665   8.198   1.858
83457W        W84322  11.219   9.398   2.632
83458W        W84323  13.078  10.591   1.338
83459W        W84324  14.272   8.188   2.210
83460W        W84325  12.909  10.535   2.977
83461W        W84326  14.252   9.594   0.182
83462W        W84327  12.687   9.077   1.243
83463W        W84328  14.539   7.588   2.984
83464W        W84329  12.688   9.423   2.578
83465W        W84330  12.905   8.309   2.023
83466W        W84331  13.757   8.607   0.861
83467W        W84332  14.044   8.340   0.503
83468W        W84333  13.853  10.380   0.892
83469W        W84334  13.687   9.983   1.688
83470W        W84335  13.583   9.062   0.666
83471W        W84336  13.016   9.272   1.652
83472W        W84337  13.897   9.060   1.719
83473W        W84338  11.272   8.075   2.143
83474W        W84339  14.050   9.127   2.970
83475W        W84340  14.401  10.745   2.116
83476W        W84341  12.331  10.189   1.518
83477W        W84342  13.338  10.722   2.842
83478W        W84343  13.332   8.052   2.606
83479W        W84344  12.539  10.760   2.667
83480W        W84345  14.236   7.714   1.133
83481W        W84346  14.027   9.033   2.434
83482W        W84347  11.010   8.354   2.472
83483W        W84348  13.870   8.149   1.490
83484W        W84349  14.281   8.300   3.267
83485W        W84350  13.166   9.999   1.485
83486W        W84351  12.422  10.590   1.098
83487W        W84352  11.537   7.770   0.356
83488W        W84353  12.641   7.424   2.166
83489W        W84354  11.669  10.544   0.014
83490W        W84355  12.043   9.010   0.765
83491W        W84356  12.697   9.639   3.078
83492W        W84357  12.527   7.997   1.068
83493W        W84358  13.883   7.594   1.496
83494W        W84359  13.603  10.876   1.824
83495W        W84360  13.015  10.524   2.164
83496W        W84361  12.411   9.561   2.125
83497W        W84362  14.181  10.284   2.251
83498W        W84363  11.875   7.787   1.020
83499W        W84364  12.397  10.084   1.980
83500W        W84365  11.880   8.015   0.045
83501W        W84366  12.681   8.624   2.439
83502W        W84367  13.529   7.490   2.309
83503W        W84368  10.949   9.333   2.194
83504W        W84369  12.653   9.151   0.352
83505W        W84370  11.921   7.466   0.122
83506W        W84371  12.659   8.547   1.173
83507W        W84372  13.629   7.523   2.872
83508W        W84373  12.217   9.535   2.981
83509W        W84374  13.021   9.317   3.198
83510W        W84375  13.638   9.347   3.091
83511W        W84376  12.922   7.487   3.596
83512W        W84377  12.144   8.103   1.989
83513W        W84378  11.570   8.059   1.387
83514W        W84379  11.356  10.771   1.063
83515W        W84380  12.688  10.101   3.188
83516W        W84381  11.723   9.586   0.547
83517W        W84382  13.403   8.971   1.768
83518W        W84383  13.683   8.770   2.167
83519W        W84384  12.888   9.444   2.101
83520W        W84385  13.358   9.818   0.233
83521W        W84386  13.030   7.839   1.561
83522W        W84387  14.509   8.117   0.829
83523W        W84388  11.003  10.706   2.860
83524W        W84389  11.420   9.932   2.392
83525W        W84390  10.987  10.778   0.624
83526W        W84391  12.886   8.048   2.430
83527W        W84392  12.249  10.071   0.279
83528W        W84393  14.154  10.453   0.465
83529W        W84394  13.129   9.106   0.479
83530W        W84395  11.972   8.297   0.996
83531W        W84396  12.804   8.207   0.048
83532W        W84397  13.388   9.772   3.226
83533W        W84398  13.741   7.678   0.843
83534W        W84399  11.071   7.526   0.291
83535W        W84400  12.357   9.845   2.581
83536W        W84401  12.156   9.761   1.673
83537W        W84402  11.898   9.713   0.071
83538W        W84403  11.139   9.954   0.839
83539W        W84404  11.643   9.024   3.281
83540W        W84405  12.347   7.584   3.467
83541W        W84406  13.056   7.726   2.823
83542W        W84407  12.251   7.494   1.104
83543W        W84408  13.310   7.571   0.609
83544W        W84409  11.255   7.503   2.186
83545W        W84410  11.303   8.466   1.556
83546W        W84411  13.992   7.574   1.962
83547W        W84412  11.414   8.072   0.776
83548W        W84413  13.985   7.760   2.392
83549W        W84414  14.381   8.963   0.077
83550W        W84415  11.673   7.721   1.896
83551W        W84416  12.787   8.293   2.836
83552W        W84417  10.935   7.983   0.314
83553W        W84418  11.721   9.372   2.875
83554W        W84419  13.079   8.770   2.054
83555W        W84420  12.946  10.849   0.350
83556W        W84421  11.092   9.356   0.047
83557W        W84422  11.827   9.767   3.173
83558W        W84423  11.348   8.934   2.804
83559W        W84424  12.339   9.039   2.598
83560W        W84425  14.107   7.398   2.860
83561W        W84426  14.505   9.008   2.851
83562W        W84427  14.493   9.208   0.537
83563W        W84428  13.356   9.540   0.636
83564W        W84429  13.830  10.840   0.331
83565W        W84430  13.007   8.830   3.473
83566W        W84431  11.337   9.797   3.513
83567W        W84432  14.543   7.719   3.465
83568W        W84433  14.261   8.647   2.086
83569W        W84434  12.569  10.777   3.563
83570W        W84435  12.424   7.406   0.290
83571W        W84436  13.963  10.005   0.233
83572W        W84437  11.732   8.098   3.119
83573W        W84438  12.166  10.092   2.981
83574W        W84439  14.292   8.083   2.779
83575W        W84440  13.503  10.742   0.747
83576W        W84441  13.742   9.361   2.114
83577W        W84442  11.992   7.777   2.781
83578W        W84443  12.461   8.846   3.538
83579W        W84444  11.964  10.025   0.732
83580W        W84445  13.719   9.523   0.996
83581W        W84446  11.487   8.149   2.720
83582W        W84447  12.816  10.211   1.184
83583W        W84448  14.566   8.771   1.365
83584W        W84449  12.788   7.404   3.084
83585W        W84450  13.568  10.109   2.163
83586W        W84451  13.871  10.453   1.871
83587W        W84452  13.090  10.255   0.299
83588W        W84453  11.100  10.147   3.141
83589W        W84454  11.843   8.139   2.379
83590W        W84455  11.813   7.487   1.489
83591W        W84456  13.434   8.329   2.181
83592W        W84457  12.232   9.500   0.381
83593W        W84458  14.230   9.442   1.880
83594W        W84459  11.557  10.200   3.303
83595W        W84460  13.944  10.882   1.100
83596W        W84461  12.043   7.902   1.545
83597W        W84462  11.812   9.395   1.635
83598W        W84463  12.125  10.806   2.385
83599W        W84464  14.192  10.902   3.417
83600W        W84465  13.351   9.090   2.350
83601W        W84466  11.200   8.888   0.265
83602W        W84467  14.334  10.546   0.962
83603W        W84468  14.171   7.870   0.581
83604W        W84469  12.310   7.389   2.984
83605W        W84470  14.016  10.191   1.442
83606W        W84471  14.045   8.747   1.347
83607W        W84472  12.162   8.420   1.563
83608W        W84473  12.407   8.682   2.887
83609W        W84474  13.518   9.835   2.750
83610W        W84475  12.168   8.289   2.862
83611W        W84476  12.147  10.755   1.478
83612W        W84477  11.464  10.714   3.112
83613W        W84478  11.576  10.075   0.242
83614W        W84479  14.093   9.833   1.052
83615W        W84480  11.697   8.625   2.938
83616W        W84481  14.470   8.555   0.419
83617W        W84482  12.215   9.612   0.890
83618W        W84483  13.314   8.994   2.971
83619W        W84484  13.205   8.622   2.515
83620W        W84485  11.765   8.994   2.544
83621W        W84486  13.975  10.882   2.373
83622W        W84487  13.766   7.516   3.367
83623W        W84488  11.430   7.666   2.954
83624W        W84489  11.769   8.689   2.007
83625W        W84490  12.138   8.503   0.129
83626W        W84491  10.941  10.262   2.674
83627W        W84492  12.526   8.971   2.117
83628W        W84493  12.349   7.996   0.222
83629W        W84494  11.484   8.812   1.003
83630W        W84495  11.255  10.664   2.440
83631W        W84496  14.050   8.890   0.548
83632W        W84497  14.145   7.806   3.234
83633W        W84498  13.581  10.015   1.197
83634W        W84499  11.179   8.939   3.374
83635W        W84500  14.145   7.403   0.670
83636W        W84501  13.665   9.878   0.681
83637W        W84502  12.567   8.936   0.766
83638W        W84503  13.754   7.740   0.289
83639W        W84504  13.819   8.347   2.475
83640W        W84505  11.528   8.940   1.682
83641W        W84506  11.822   9.879   1.331
83642W        W84507  13.585   8.499   1.296
83643W        W84508  12.608   7.878   1.992
83644W        W84509  14.570   9.789   2.503
83645W        W84510  14.488   7.776   2.064
83646W        W84511  11.027  10.606   1.440
83647W        W84512  11.536   9.793   0.976
83648W        W84513  11.451   7.410   3.529
83649W        W84514  12.570  10.263   3.631
83650W        W84515  14.325   9.231   1.421
83651W        W84516  13.679   9.408   0.301
83652W        W84517  12.974  10.929   2.513
83653W        W84518  13.831   9.651   3.550
83654W        W84519  12.646   7.361   0.830
83655W        W84520  13.359   8.230   1.689
83656W        W84521  11.045   9.817   2.021
83657W        W84522  12.298   7.779   0.662
83658W        W84523  12.102   9.263   3.511
83659W        W84524  13.096   8.244   1.225
83660W        W84525  13.301   9.654   2.347
83661W        W84526  11.455  10.259   2.782
83662W        W84527  12.046  10.242   3.505
83663W        W84528  11.897   8.039   0.519
83664W        W84529  13.414   8.181   0.844
83665W        W84530  13.372  10.289   3.081
83666W        W84531  12.057   8.881   1.680
83667W        W84532  11.712  10.579   2.545
83668W        W84533  14.457  10.696   0.146
83669W        W84534  11.320   9.368   3.142
83670W        W84535  13.315   9.630   1.830
83671W        W84536  11.751   9.279   1.072
83672W        W84537  12.122  10.286   2.467
83673W        W84538  12.500   7.705   1.508
83674W        W84539  11.111   9.689   0.438
83675W        W84540  12.630   8.640   0.308
83676W        W84541  11.276   9.189   1.327
83677W        W84542  12.566   7.831   2.791
83678W        W84543  14.238   7.540   0.218
83679W        W84544  14.331   9.286   3.317
83680W        W84545  12.985  10.543   3.469
83681W        W84546  14.543   9.637   2.991
83682W        W84547  13.951  10.435   3.602
83683W        W84548  11.690  10.891   2.080
83684W        W84549  14.549   9.513   0.954
83685W        W84550  13.079   8.780   1.467
83686W        W84551  12.846   7.392   1.357
83687W        W84552  11.905  10.376   1.194
83688W        W84553  12.404   8.117   2.419
83689W        W84554  12.104   7.486   1.888
83690W        W84555  11.167  10.308   0.436
83691W        W84556  12.983   9.672   1.154
83692W        W84557  11.858  10.467   3.033
83693W        W84558  11.335   9.290   0.729
83694W        W84559  11.220   7.833   1.728
83695W        W84560  12.768   9.798   1.785
83696W        W84561  11.020   7.652   0.805
83697W        W84562  13.684   8.858   2.732
83698W        W84563  13.561   8.244   0.304
83699W        W84564  14.078   9.916   1.952
83700W        W84565  12.739  10.400   1.783
83701W        W84566  12.151  10.504   0.694
83702W        W84567  13.433   7.407   0.124
83703W        W84568  11.233  10.667   1.865
83704W        W84569  13.430   8.425   3.500
83705W        W84570  11.413   7.955   3.499
83706W        W84571  11.144   8.555   0.832
83707W        W84572  11.835   8.544   0.557
83708W        W84573  13.598   8.871   3.374
83709W        W84574  11.941   9.152   2.083
83710W        W84575  13.415   7.438   1.203
83711W        W84576  12.546  10.869   1.706
83712W        W84577  13.760  10.331   2.643
83713W        W84578  13.344  10.480   1.754
83714W        W84579  13.363   9.460   1.348
83715W        W84580  12.825   7.685   0.419
83716W        W84581  14.506   7.313   1.141
83717W        W84582  12.194   8.948   0.304
83718W        W84583  14.360   8.285   1.294
83719W        W84584  13.052   9.455   0.171
83720W        W84585  13.988   9.655   2.919
83721W        W84586  13.642  10.356   0.386
83722W        W84587  12.257   8.031   3.292
83723W        W84588  12.077   8.615   2.533
83724W        W84589  14.169  10.110   2.810
83725W        W84590  13.269   8.060   3.187
83726W        W84591  11.113   8.531   2.964
83727W        W84592  12.873   9.008   2.690
83728W        W84593  11.230   9.766   1.347
83729W        W84594  11.377   9.063   2.237
83730W        W84595  13.694   9.349   2.587
83731W        W84596  13.466  10.729   3.398
83732W        W84597  13.362   8.468   2.951
83733W        W84598  13.639  10.522   1.356
83734W        W84599  12.641  10.242   2.679
83735W        W84600  12.126  10.597   1.948
83736W        W84601  13.931   9.768   2.367
83737W        W84602  12.981   9.840   3.504
83738W        W84603  11.586   9.793   1.843
83739W        W84604  13.932   9.552   1.488
83740W        W84605  13.573  10.618   2.239
83741W        W84606  11.551  10.347   2.109
83742W        W84607  12.572   8.399   3.319
83743W        W84608  13.023  10.565   0.830
83744W        W84609  12.331   9.820   3.468
83745W        W84610  12.457  10.058   0.845
83746W        W84611  11.678   8.798   0.104
83747W        W84612  11.017  10.884   7.003
83748W        W84613  11.393   9.777   6.526
83749W        W84614  14.098   9.507   4.296
83750W        W84615  14.228  10.592   6.323
83751W        W84616  12.146  10.583   3.849
83752W        W84617  12.229   8.735   4.832
83753W        W84618  11.744   8.583   4.996
83754W        W84619  12.735   9.398   4.430
83755W        W84620  12.410  10.490   6.785
83756W        W84621  11.059   8.051   6.748
83757W        W84622  11.821   7.331   6.550
83758W        W84623  13.515   7.719   5.437
83759W        W84624  13.164   8.590   4.007
83760W        W84625  13.734   8.024   7.098
83761W        W84626  11.100   7.816   6.223
83762W        W84627  11.199  10.435   7.244
83763W        W84628  12.721   9.825   3.976
83764W        W84629  11.153   8.608   5.669
83765W        W84630  12.046   8.499   6.906
83766W        W84631  14.505   8.358   5.405
83767W        W84632  14.269   9.401   6.264
83768W        W84633  12.577   8.734   5.291
83769W        W84634  13.123  10.073   5.660
83770W        W84635  11.623   9.507   5.892
83771W        W84636  10.982   9.035   5.463
83772W        W84637  12.018   9.007   6.655
83773W        W84638  14.289   8.790   6.909
83774W        W84639  11.905  10.234   5.354
83775W        W84640  13.026   9.923   6.488
83776W        W84641  12.246   8.563   5.713
83777W        W84642  12.538   9.347   5.356
83778W        W84643  13.535  10.120   7.204
83779W        W84644  12.614   9.440   7.214
83780W        W84645  12.595   9.156   6.692
83781W        W84646  11.004   8.547   7.214
83782W        W84647  13.836  10.082   6.813
83783W        W84648  11.417   7.664   4.811
83784W        W84649  11.944   9.922   5.810
83785W        W84650  14.407   9.705   5.100
83786W        W84651  13.820   8.105   5.667
83787W        W84652  14.105   8.058   3.762
83788W        W84653  14.570   8.859   6.068
83789W        W84654  12.537  10.566   5.821
83790W        W84655  14.311  10.032   4.259
83791W        W84656  11.440  10.818   4.013
83792W        W84657  11.833  10.864   4.689
83793W        W84658  11.630   7.618   6.115
83794W        W84659  14.253   8.636   6.390
83795W        W84660  13.658   9.058   4.849
83796W        W84661  13.624   8.746   3.876
83797W        W84662  12.832   9.890   6.016
83798W        W84663  12.638   8.220   5.215
83799W        W84664  14.109   9.098   4.631
83800W        W84665  13.011   7.756   4.647
83801W        W84666  11.668  10.450   4.330
83802W        W84667  11.039   7.949   4.929
83803W        W84668  13.825   8.556   5.403
83804W        W84669  11.283  10.173   5.318
83805W        W84670  12.624  10.523   4.188
83806W        W84671  14.016   8.549   3.652
83807W        W84672  11.039  10.307   5.816
83808W        W84673  11.830   9.879   6.296
83809W        W84674  12.203   9.239   4.915
83810W        W84675  12.225   7.644   6.008
83811W        W84676  14.454   7.406   5.305
83812W        W84677  11.673   9.278   3.773
83813W        W84678  11.328   8.311   3.952
83814W        W84679  11.390  10.267   4.746
83815W        W84680  12.521   9.750   4.994
83816W        W84681  13.853  10.609   6.708
83817W        W84682  12.779   8.251   4.392
83818W        W84683  14.162  10.649   5.164
83819W        W84684  13.839   8.502   6.762
83820W        W84685  14.552  10.158   4.896
83821W        W84686  13.179   9.450   6.380
83822W        W84687  10.945   9.001   4.586
83823W        W84688  12.056   9.416   6.159
83824W        W84689  13.260   8.680   4.537
83825W        W84690  13.137   9.170   4.641
83826W        W84691  11.480   8.590   6.115
83827W        W84692  11.465   8.466   7.037
83828W        W84693  11.355   7.383   5.196
83829W        W84694  13.123   7.730   5.757
83830W        W84695  12.771   7.915   6.920
83831W        W84696  13.126   8.064   4.098
83832W        W84697  14.309  10.457   6.852
83833W        W84698  13.276   7.538   6.891
83834W        W84699  14.295   9.839   7.013
83835W        W84700  13.725   8.006   6.609
83836W        W84701  13.525   7.944   4.879
83837W        W84702  13.918   9.078   7.283
83838W        W84703  11.658  10.654   5.269
83839W        W84704  12.316   8.371   4.255
83840W        W84705  11.885   7.655   6.919
83841W        W84706  13.937   8.139   4.600
83842W        W84707  14.304   8.621   4.545
83843W        W84708  12.047  10.838   7.016
83844W        W84709  11.973   7.374   4.251
83845W        W84710  14.294   7.908   5.286
83846W        W84711  14.444  10.157   3.731
83847W        W84712  11.351   9.360   5.433
83848W        W84713  13.268   7.947   3.663
83849W        W84714  14.402  10.279   5.383
83850W        W84715  14.441   7.473   6.133
83851W        W84716  12.886   8.685   6.687
83852W        W84717  12.979  10.024   4.390
83853W        W84718  13.379   9.318   7.130
83854W        W84719  13.053   7.295   5.439
83855W        W84720  11.665   8.198   5.502
83856W        W84721  11.219   9.398   6.276
83857W        W84722  13.078  10.591   4.982
83858W        W84723  14.272   8.188   5.854
83859W        W84724  12.909  10.535   6.621
83860W        W84725  14.252   9.594   3.826
83861W        W84726  12.687   9.077   4.887
83862W        W84727  14.539   7.588   6.628
83863W        W84728  12.688   9.423   6.222
83864W        W84729  12.905   8.309   5.667
83865W        W84730  13.757   8.607   4.505
83866W        W84731  14.044   8.340   4.147
83867W        W84732  13.853  10.380   4.536
83868W        W84733  13.687   9.983   5.332
83869W        W84734  13.583   9.062   4.310
83870W        W84735  13.016   9.272   5.296
83871W        W84736  13.897   9.060   5.363
83872W        W84737  11.272   8.075   5.787
83873W        W84738  14.050   9.127   6.614
83874W        W84739  14.401  10.745   5.760
83875W        W84740  12.331  10.189   5.162
83876W        W84741  13.338  10.722   6.486
83877W        W84742  13.332   8.052   6.250
83878W        W84743  12.539  10.760   6.311
83879W        W84744  14.236   7.714   4.777
83880W        W84745  14.027   9.033   6.078
83881W        W84746  11.010   8.354   6.116
83882W        W84747  13.870   8.149   5.134
83883W        W84748  14.281   8.300   6.911
83884W        W84749  13.166   9.999   5.129
83885W        W84750  12.422  10.590   4.742
83886W        W84751  11.537   7.770   4.000
83887W        W84752  12.641   7.424   5.810
83888W        W84753  11.669  10.544   3.658
83889W        W84754  12.043   9.010   4.409
83890W        W84755  12.697   9.639   6.722
83891W        W84756  12.527   7.997   4.712
83892W        W84757  13.883   7.594   5.140
83893W        W84758  13.603  10.876   5.468
83894W        W84759  13.015  10.524   5.808
83895W        W84760  12.411   9.561   5.769
83896W        W84761  14.181  10.284   5.895
83897W        W84762  11.875   7.787   4.664
83898W        W84763  12.397  10.084   5.624
83899W        W84764  11.880   8.015   3.689
83900W        W84765  12.681   8.624   6.083
83901W        W84766  13.529   7.490   5.953
83902W        W84767  10.949   9.333   5.838
83903W        W84768  12.653   9.151   3.996
83904W        W84769  11.921   7.466   3.766
83905W        W84770  12.659   8.547   4.817
83906W        W84771  13.629   7.523   6.516
83907W        W84772  12.217   9.535   6.625
83908W        W84773  13.021   9.317   6.842
83909W        W84774  13.638   9.347   6.735
83910W        W84775  12.922   7.487   7.240
83911W        W84776  12.144   8.103   5.633
83912W        W84777  11.570   8.059   5.031
83913W        W84778  11.356  10.771   4.707
83914W        W84779  12.688  10.101   6.832
83915W        W84780  11.723   9.586   4.191
83916W        W84781  13.403   8.971   5.412
83917W        W84782  13.683   8.770   5.811
83918W        W84783  12.888   9.444   5.745
83919W        W84784  13.358   9.818   3.877
83920W        W84785  13.030   7.839   5.205
83921W        W84786  14.509   8.117   4.473
83922W        W84787  11.003  10.706   6.504
83923W        W84788  11.420   9.932   6.036
83924W        W84789  10.987  10.778   4.268
83925W        W84790  12.886   8.048   6.074
83926W        W84791  12.249  10.071   3.923
83927W        W84792  14.154  10.453   4.109
83928W        W84793  13.129   9.106   4.123
83929W        W84794  11.972   8.297   4.640
83930W        W84795  12.804   8.207   3.692
83931W        W84796  13.388   9.772   6.870
83932W        W84797  13.741   7.678   4.487
83933W        W84798  11.071   7.526   3.935
83934W        W84799  12.357   9.845   6.225
83935W        W84800  12.156   9.761   5.317
83936W        W84801  11.898   9.713   3.715
83937W        W84802  11.139   9.954   4.483
83938W        W84803  11.643   9.024   6.925
83939W        W84804  12.347   7.584   7.111
83940W        W84805  13.056   7.726   6.467
83941W        W84806  12.251   7.494   4.748
83942W        W84807  13.310   7.571   4.253
83943W        W84808  11.255   7.503   5.830
83944W        W84809  11.303   8.466   5.200
83945W        W84810  13.992   7.574   5.606
83946W        W84811  11.414   8.072   4.420
83947W        W84812  13.985   7.760   6.036
83948W        W84813  14.381   8.963   3.721
83949W        W84814  11.673   7.721   5.540
83950W        W84815  12.787   8.293   6.480
83951W        W84816  10.935   7.983   3.958
83952W        W84817  11.721   9.372   6.519
83953W        W84818  13.079   8.770   5.698
83954W        W84819  12.946  10.849   3.994
83955W        W84820  11.092   9.356   3.691
83956W        W84821  11.827   9.767   6.817
83957W        W84822  11.348   8.934   6.448
83958W        W84823  12.339   9.039   6.242
83959W        W84824  14.107   7.398   6.504
83960W        W84825  14.505   9.008   6.495
83961W        W84826  14.493   9.208   4.181
83962W        W84827  13.356   9.540   4.280
83963W        W84828  13.830  10.840   3.975
83964W        W84829  13.007   8.830   7.117
83965W        W84830  11.337   9.797   7.157
83966W        W84831  14.543   7.719   7.109
83967W        W84832  14.261   8.647   5.730
83968W        W84833  12.569  10.777   7.207
83969W        W84834  12.424   7.406   3.934
83970W        W84835  13.963  10.005   3.877
83971W        W84836  11.732   8.098   6.763
83972W        W84837  12.166  10.092   6.625
83973W        W84838  14.292   8.083   6.423
83974W        W84839  13.503  10.742   4.391
83975W        W84840  13.742   9.361   5.758
83976W        W84841  11.992   7.777   6.425
83977W        W84842  12.461   8.846   7.182
83978W        W84843  11.964  10.025   4.376
83979W        W84844  13.719   9.523   4.640
83980W        W84845  11.487   8.149   6.364
83981W        W84846  12.816  10.211   4.828
83982W        W84847  14.566   8.771   5.009
83983W        W84848  12.788   7.404   6.728
83984W        W84849  13.568  10.109   5.807
83985W        W84850  13.871  10.453   5.515
83986W        W84851  13.090  10.255   3.943
83987W        W84852  11.100  10.147   6.785
83988W        W84853  11.843   8.139   6.023
83989W        W84854  11.813   7.487   5.133
83990W        W84855  13.434   8.329   5.825
83991W        W84856  12.232   9.500   4.025
83992W        W84857  14.230   9.442   5.524
83993W        W84858  11.557  10.200   6.947
83994W        W84859  13.944  10.882   4.744
83995W        W84860  12.043   7.902   5.189
83996W        W84861  11.812   9.395   5.279
83997W        W84862  12.125  10.806   6.029
83998W        W84863  14.192  10.902   7.061
83999W        W84864  13.351   9.090   5.994
84000W        W84865  11.200   8.888   3.909
84001W        W84866  14.334  10.546   4.606
84002W        W84867  14.171   7.870   4.225
84003W        W84868  12.310   7.389   6.628
84004W        W84869  14.016  10.191   5.086
84005W        W84870  14.045   8.747   4.991
84006W        W84871  12.162   8.420   5.207
84007W        W84872  12.407   8.682   6.531
84008W        W84873  13.518   9.835   6.394
84009W        W84874  12.168   8.289   6.506
84010W        W84875  12.147  10.755   5.122
84011W        W84876  11.464  10.714   6.756
84012W        W84877  11.576  10.075   3.886
84013W        W84878  14.093   9.833   4.696
84014W        W84879  11.697   8.625   6.582
84015W        W84880  14.470   8.555   4.063
84016W        W84881  12.215   9.612   4.534
84017W        W84882  13.314   8.994   6.615
84018W        W84883  13.205   8.622   6.159
84019W        W84884  11.765   8.994   6.188
84020W        W84885  13.975  10.882   6.017
84021W        W84886  13.766   7.516   7.011
84022W        W84887  11.430   7.666   6.598
84023W        W84888  11.769   8.689   5.651
84024W        W84889  12.138   8.503   3.773
84025W        W84890  10.941  10.262   6.318
84026W        W84891  12.526   8.971   5.761
84027W        W84892  12.349   7.996   3.866
84028W        W84893  11.484   8.812   4.647
84029W        W84894  11.255  10.664   6.084
84030W        W84895  14.050   8.890   4.192
84031W        W84896  14.145   7.806   6.878
84032W        W84897  13.581  10.015   4.841
84033W        W84898  11.179   8.939   7.018
84034W        W84899  14.145   7.403   4.314
84035W        W84900  13.665   9.878   4.325
84036W        W84901  12.567   8.936   4.410
84037W        W84902  13.754   7.740   3.933
84038W        W84903  13.819   8.347   6.119
84039W        W84904  11.528   8.940   5.326
84040W        W84905  11.822   9.879   4.975
84041W        W84906  13.585   8.499   4.940
84042W        W84907  12.608   7.878   5.636
84043W        W84908  14.570   9.789   6.147
84044W        W84909  14.488   7.776   5.708
84045W        W84910  11.027  10.606   5.084
84046W        W84911  11.536   9.793   4.620
84047W        W84912  11.451   7.410   7.173
84048W        W84913  12.570  10.263   7.275
84049W        W84914  14.325   9.231   5.065
84050W        W84915  13.679   9.408   3.945
84051W        W84916  12.974  10.929   6.157
84052W        W84917  13.831   9.651   7.194
84053W        W84918  12.646   7.361   4.474
84054W        W84919  13.359   8.230   5.333
84055W        W84920  11.045   9.817   5.665
84056W        W84921  12.298   7.779   4.306
84057W        W84922  12.102   9.263   7.155
84058W        W84923  13.096   8.244   4.869
84059W        W84924  13.301   9.654   5.991
84060W        W84925  11.455  10.259   6.426
84061W        W84926  12.046  10.242   7.149
84062W        W84927  11.897   8.039   4.163
84063W        W84928  13.414   8.181   4.488
84064W        W84929  12.057   8.881   5.324
84065W        W84930  11.712  10.579   6.189
84066W        W84931  14.457  10.696   3.790
84067W        W84932  11.320   9.368   6.786
84068W        W84933  13.315   9.630   5.474
84069W        W84934  11.751   9.279   4.716
84070W        W84935  12.122  10.286   6.111
84071W        W84936  12.500   7.705   5.152
84072W        W84937  11.111   9.689   4.082
84073W        W84938  12.630   8.640   3.952
84074W        W84939  11.276   9.189   4.971
84075W        W84940  12.566   7.831   6.435
84076W        W84941  14.238   7.540   3.862
84077W        W84942  14.331   9.286   6.961
84078W        W84943  12.985  10.543   7.113
84079W        W84944  14.543   9.637   6.635
84080W        W84945  13.951  10.435   7.246
84081W        W84946  11.690  10.891   5.724
84082W        W84947  14.549   9.513   4.598
84083W        W84948  13.079   8.780   5.111
84084W        W84949  12.846   7.392   5.001
84085W        W84950  11.905  10.376   4.838
84086W        W84951  12.404   8.117   6.063
84087W        W84952  12.104   7.486   5.532
84088W        W84953  11.167  10.308   4.080
84089W        W84954  12.983   9.672   4.798
84090W        W84955  11.858  10.467   6.677
84091W        W84956  11.335   9.290   4.373
84092W        W84957  11.220   7.833   5.372
84093W        W84958  12.768   9.798   5.429
84094W        W84959  11.020   7.652   4.449
84095W        W84960  13.684   8.858   6.376
84096W        W84961  13.561   8.244   3.948
84097W        W84962  14.078   9.916   5.596
84098W        W84963  12.739  10.400   5.427
84099W        W84964  12.151  10.504   4.338
84100W        W84965  13.433   7.407   3.768
84101W        W84966  11.233  10.667   5.509
84102W        W84967  13.430   8.425   7.144
84103W        W84968  11.413   7.955   7.143
84104W        W84969  11.144   8.555   4.476
84105W        W84970  11.835   8.544   4.201
84106W        W84971  13.598   8.871   7.018
84107W        W84972  11.941   9.152   5.727
84108W        W84973  13.415   7.438   4.847
84109W        W84974  12.546  10.869   5.350
84110W        W84975  13.760  10.331   6.287
84111W        W84976  13.344  10.480   5.398
84112W        W84977  13.363   9.460   4.992
84113W        W84978  12.825   7.685   4.063
84114W        W84979  14.506   7.313   4.785
84115W        W84980  12.194   8.948   3.948
84116W        W84981  14.360   8.285   4.938
84117W        W84982  13.052   9.455   3.815
84118W        W84983  13.988   9.655   6.563
84119W        W84984  13.642  10.356   4.030
84120W        W84985  12.257   8.031   6.936
84121W        W84986  12.077   8.615   6.177
84122W        W84987  14.169  10.110   6.454
84123W        W84988  13.269   8.060   6.831
84124W        W84989  11.113   8.531   6.608
84125W        W84990  12.873   9.008   6.334
84126W        W84991  11.230   9.766   4.991
84127W        W84992  11.377   9.063   5.881
84128W        W84993  13.694   9.349   6.231
84129W        W84994  13.466  10.729   7.042
84130W        W84995  13.362   8.468   6.595
84131W        W84996  13.639  10.522   5.000
84132W        W84997  12.641  10.242   6.323
84133W        W84998  12.126  10.597   5.592
84134W        W84999  13.931   9.768   6.011
84135W        W85000  12.981   9.840   7.148
84136W        W85001  11.586   9.793   5.487
84137W        W85002  13.932   9.552   5.132
84138W        W85003  13.573  10.618   5.883
84139W        W85004  11.551  10.347   5.753
84140W        W85005  12.572   8.399   6.963
84141W        W85006  13.023  10.565   4.474
84142W        W85007  12.331   9.820   7.112
84143W        W85008  12.457  10.058   4.489
84144W        W85009  11.678   8.798   3.748
84145W        W85010  11.017  10.884  10.648
84146W        W85011  11.393   9.777  10.171
84147W        W85012  14.098   9.507   7.941
84148W        W85013  14.228  10.592   9.968
84149W        W85014  12.146  10.583   7.494
84150W        W85015  12.229   8.735   8.477
84151W        W85016  11.744   8.583   8.641
84152W        W85017  12.735   9.398   8.075
84153W        W85018  12.410  10.490  10.430
84154W        W85019  11.059   8.051  10.393
84155W        W85020  11.821   7.331  10.195
84156W        W85021  13.515   7.719   9.082
84157W        W85022  13.164   8.590   7.652
84158W        W85023  13.734   8.024  10.743
84159W        W85024  11.100   7.816   9.868
84160W        W85025  11.199  10.435  10.889
84161W        W85026  12.721   9.825   7.621
84162W        W85027  11.153   8.608   9.314
84163W        W85028  12.046   8.499  10.551
84164W        W85029  14.505   8.358   9.050
84165W        W85030  14.269   9.401   9.909
84166W        W85031  12.577   8.734   8.936
84167W        W85032  13.123  10.073   9.305
84168W        W85033  11.623   9.507   9.537
84169W        W85034  10.982   9.035   9.108
84170W        W85035  12.018   9.007  10.300
84171W        W85036  14.289   8.790  10.554
84172W        W85037  11.905  10.234   8.999
84173W        W85038  13.026   9.923  10.133
84174W        W85039  12.246   8.563   9.358
84175W        W85040  12.538   9.347   9.001
84176W        W85041  13.535  10.120  10.849
84177W        W85042  12.614   9.440  10.859
84178W        W85043  12.595   9.156  10.337
84179W        W85044  11.004   8.547  10.859
84180W        W85045  13.836  10.082  10.458
84181W        W85046  11.417   7.664   8.456
84182W        W85047  11.944   9.922   9.455
84183W        W85048  14.407   9.705   8.745
84184W        W85049  13.820   8.105   9.312
84185W        W85050  14.105   8.058   7.407
84186W        W85051  14.570   8.859   9.713
84187W        W85052  12.537  10.566   9.466
84188W        W85053  14.311  10.032   7.904
84189W        W85054  11.440  10.818   7.658
84190W        W85055  11.833  10.864   8.334
84191W        W85056  11.630   7.618   9.760
84192W        W85057  14.253   8.636  10.035
84193W        W85058  13.658   9.058   8.494
84194W        W85059  13.624   8.746   7.521
84195W        W85060  12.832   9.890   9.661
84196W        W85061  12.638   8.220   8.860
84197W        W85062  13.238  10.307   9.854
84198W        W85063  14.109   9.098   8.276
84199W        W85064  13.011   7.756   8.292
84200W        W85065  11.668  10.450   7.975
84201W        W85066  11.039   7.949   8.574
84202W        W85067  13.825   8.556   9.048
84203W        W85068  11.283  10.173   8.963
84204W        W85069  12.624  10.523   7.833
84205W        W85070  14.016   8.549   7.297
84206W        W85071  11.039  10.307   9.461
84207W        W85072  11.830   9.879   9.941
84208W        W85073  12.203   9.239   8.560
84209W        W85074  12.225   7.644   9.653
84210W        W85075  14.454   7.406   8.950
84211W        W85076  11.673   9.278   7.418
84212W        W85077  11.328   8.311   7.597
84213W        W85078  11.390  10.267   8.391
84214W        W85079  12.521   9.750   8.639
84215W        W85080  13.853  10.609  10.353
84216W        W85081  12.779   8.251   8.037
84217W        W85082  14.162  10.649   8.809
84218W        W85083  13.839   8.502  10.407
84219W        W85084  14.552  10.158   8.541
84220W        W85085  13.179   9.450  10.025
84221W        W85086  10.945   9.001   8.231
84222W        W85087  12.056   9.416   9.804
84223W        W85088  13.260   8.680   8.182
84224W        W85089  13.137   9.170   8.286
84225W        W85090  11.480   8.590   9.760
84226W        W85091  11.465   8.466  10.682
84227W        W85092  11.355   7.383   8.841
84228W        W85093  13.123   7.730   9.402
84229W        W85094  12.771   7.915  10.565
84230W        W85095  13.126   8.064   7.743
84231W        W85096  14.309  10.457  10.497
84232W        W85097  13.276   7.538  10.536
84233W        W85098  14.295   9.839  10.658
84234W        W85099  13.725   8.006  10.254
84235W        W85100  13.525   7.944   8.524
84236W        W85101  13.918   9.078  10.928
84237W        W85102  11.658  10.654   8.914
84238W        W85103  12.316   8.371   7.900
84239W        W85104  11.885   7.655  10.564
84240W        W85105  13.937   8.139   8.245
84241W        W85106  14.304   8.621   8.190
84242W        W85107  12.047  10.838  10.661
84243W        W85108  11.973   7.374   7.896
84244W        W85109  14.294   7.908   8.931
84245W        W85110  14.444  10.157   7.376
84246W        W85111  11.351   9.360   9.078
84247W        W85112  13.268   7.947   7.308
84248W        W85113  14.402  10.279   9.028
84249W        W85114  14.441   7.473   9.778
84250W        W85115  12.886   8.685  10.332
84251W        W85116  12.979  10.024   8.035
84252W        W85117  13.379   9.318  10.775
84253W        W85118  13.053   7.295   9.084
84254W        W85119  11.665   8.198   9.147
84255W        W85120  11.219   9.398   9.921
84256W        W85121  13.078  10.591   8.627
84257W        W85122  14.272   8.188   9.499
84258W        W85123  12.909  10.535  10.266
84259W        W85124  14.252   9.594   7.471
84260W        W85125  12.687   9.077   8.532
84261W        W85126  14.539   7.588  10.273
84262W        W85127  12.688   9.423   9.867
84263W        W85128  12.905   8.309   9.312
84264W        W85129  13.757   8.607   8.150
84265W        W85130  14.044   8.340   7.792
84266W        W85131  13.853  10.380   8.181
84267W        W85132  13.687   9.983   8.977
84268W        W85133  13.583   9.062   7.955
84269W        W85134  13.016   9.272   8.941
84270W        W85135  13.897   9.060   9.008
84271W        W85136  11.272   8.075   9.432
84272W        W85137  14.050   9.127  10.259
84273W        W85138  14.401  10.745   9.405
84274W        W85139  12.331  10.189   8.807
84275W        W85140  13.338  10.722  10.131
84276W        W85141  13.332   8.052   9.895
84277W        W85142  12.539  10.760   9.956
84278W        W85143  14.236   7.714   8.422
84279W        W85144  14.027   9.033   9.723
84280W        W85145  11.010   8.354   9.761
84281W        W85146  13.870   8.149   8.779
84282W        W85147  14.281   8.300  10.556
84283W        W85148  13.166   9.999   8.774
84284W        W85149  12.422  10.590   8.387
84285W        W85150  11.537   7.770   7.645
84286W        W85151  12.641   7.424   9.455
84287W        W85152  11.669  10.544   7.303
84288W        W85153  12.043   9.010   8.054
84289W        W85154  12.697   9.639  10.367
84290W        W85155  12.527   7.997   8.357
84291W        W85156  13.883   7.594   8.785
84292W        W85157  13.603  10.876   9.113
84293W        W85158  13.015  10.524   9.453
84294W        W85159  12.411   9.561   9.414
84295W        W85160  14.181  10.284   9.540
84296W        W85161  11.875   7.787   8.309
84297W        W85162  12.397  10.084   9.269
84298W        W85163  11.880   8.015   7.334
84299W        W85164  12.681   8.624   9.728
84300W        W85165  13.529   7.490   9.598
84301W        W85166  10.949   9.333   9.483
84302W        W85167  12.653   9.151   7.641
84303W        W85168  11.921   7.466   7.411
84304W        W85169  12.659   8.547   8.462
84305W        W85170  13.629   7.523  10.161
84306W        W85171  12.217   9.535  10.270
84307W        W85172  13.021   9.317  10.487
84308W        W85173  13.638   9.347  10.380
84309W        W85174  12.922   7.487  10.885
84310W        W85175  12.144   8.103   9.278
84311W        W85176  11.570   8.059   8.676
84312W        W85177  11.356  10.771   8.352
84313W        W85178  12.688  10.101  10.477
84314W        W85179  11.723   9.586   7.836
84315W        W85180  13.403   8.971   9.057
84316W        W85181  13.683   8.770   9.456
84317W        W85182  12.888   9.444   9.390
84318W        W85183  13.358   9.818   7.522
84319W        W85184  13.030   7.839   8.850
84320W        W85185  14.509   8.117   8.118
84321W        W85186  11.003  10.706  10.149
84322W        W85187  11.420   9.932   9.681
84323W        W85188  10.987  10.778   7.913
84324W        W85189  12.886   8.048   9.719
84325W        W85190  12.249  10.071   7.568
84326W        W85191  14.154  10.453   7.754
84327W        W85192  13.129   9.106   7.768
84328W        W85193  11.972   8.297   8.285
84329W        W85194  12.804   8.207   7.337
84330W        W85195  13.388   9.772  10.515
84331W        W85196  13.741   7.678   8.132
84332W        W85197  11.071   7.526   7.580
84333W        W85198  12.357   9.845   9.870
84334W        W85199  12.156   9.761   8.962
84335W        W85200  11.898   9.713   7.360
84336W        W85201  11.139   9.954   8.128
84337W        W85202  11.643   9.024  10.570
84338W        W85203  12.347   7.584  10.756
84339W        W85204  13.056   7.726  10.112
84340W        W85205  12.251   7.494   8.393
84341W        W85206  13.310   7.571   7.898
84342W        W85207  11.255   7.503   9.475
84343W        W85208  11.303   8.466   8.845
84344W        W85209  13.992   7.574   9.251
84345W        W85210  11.414   8.072   8.065
84346W        W85211  13.985   7.760   9.681
84347W        W85212  14.381   8.963   7.366
84348W        W85213  11.673   7.721   9.185
84349W        W85214  12.787   8.293  10.125
84350W        W85215  10.935   7.983   7.603
84351W        W85216  11.721   9.372  10.164
84352W        W85217  13.079   8.770   9.343
84353W        W85218  12.946  10.849   7.639
84354W        W85219  11.092   9.356   7.336
84355W        W85220  11.827   9.767  10.462
84356W        W85221  11.348   8.934  10.093
84357W        W85222  12.339   9.039   9.887
84358W        W85223  14.107   7.398  10.149
84359W        W85224  14.505   9.008  10.140
84360W        W85225  14.493   9.208   7.826
84361W        W85226  13.356   9.540   7.925
84362W        W85227  13.830  10.840   7.620
84363W        W85228  13.007   8.830  10.762
84364W        W85229  11.337   9.797  10.802
84365W        W85230  14.543   7.719  10.754
84366W        W85231  14.261   8.647   9.375
84367W        W85232  12.569  10.777  10.852
84368W        W85233  12.424   7.406   7.579
84369W        W85234  13.963  10.005   7.522
84370W        W85235  11.732   8.098  10.408
84371W        W85236  12.166  10.092  10.270
84372W        W85237  14.292   8.083  10.068
84373W        W85238  13.503  10.742   8.036
84374W        W85239  13.742   9.361   9.403
84375W        W85240  11.992   7.777  10.070
84376W        W85241  12.461   8.846  10.827
84377W        W85242  11.964  10.025   8.021
84378W        W85243  13.719   9.523   8.285
84379W        W85244  11.487   8.149  10.009
84380W        W85245  12.816  10.211   8.473
84381W        W85246  14.566   8.771   8.654
84382W        W85247  12.788   7.404  10.373
84383W        W85248  13.568  10.109   9.452
84384W        W85249  13.871  10.453   9.160
84385W        W85250  13.090  10.255   7.588
84386W        W85251  11.100  10.147  10.430
84387W        W85252  11.843   8.139   9.668
84388W        W85253  11.813   7.487   8.778
84389W        W85254  13.434   8.329   9.470
84390W        W85255  12.232   9.500   7.670
84391W        W85256  14.230   9.442   9.169
84392W        W85257  11.557  10.200  10.592
84393W        W85258  13.944  10.882   8.389
84394W        W85259  12.043   7.902   8.834
84395W        W85260  11.812   9.395   8.924
84396W        W85261  12.125  10.806   9.674
84397W        W85262  14.192  10.902  10.706
84398W        W85263  13.351   9.090   9.639
84399W        W85264  11.200   8.888   7.554
84400W        W85265  14.334  10.546   8.251
84401W        W85266  14.171   7.870   7.870
84402W        W85267  12.310   7.389  10.273
84403W        W85268  14.016  10.191   8.731
84404W        W85269  14.045   8.747   8.636
84405W        W85270  12.162   8.420   8.852
84406W        W85271  12.407   8.682  10.176
84407W        W85272  13.518   9.835  10.039
84408W        W85273  12.168   8.289  10.151
84409W        W85274  12.147  10.755   8.767
84410W        W85275  11.464  10.714  10.401
84411W        W85276  11.576  10.075   7.531
84412W        W85277  14.093   9.833   8.341
84413W        W85278  11.697   8.625  10.227
84414W        W85279  14.470   8.555   7.708
84415W        W85280  12.215   9.612   8.179
84416W        W85281  13.314   8.994  10.260
84417W        W85282  13.205   8.622   9.804
84418W        W85283  11.765   8.994   9.833
84419W        W85284  13.975  10.882   9.662
84420W        W85285  13.766   7.516  10.656
84421W        W85286  11.430   7.666  10.243
84422W        W85287  11.769   8.689   9.296
84423W        W85288  12.138   8.503   7.418
84424W        W85289  10.941  10.262   9.963
84425W        W85290  12.526   8.971   9.406
84426W        W85291  12.349   7.996   7.511
84427W        W85292  11.484   8.812   8.292
84428W        W85293  11.255  10.664   9.729
84429W        W85294  14.050   8.890   7.837
84430W        W85295  14.145   7.806  10.523
84431W        W85296  13.581  10.015   8.486
84432W        W85297  11.179   8.939  10.663
84433W        W85298  14.145   7.403   7.959
84434W        W85299  13.665   9.878   7.970
84435W        W85300  12.567   8.936   8.055
84436W        W85301  13.754   7.740   7.578
84437W        W85302  13.819   8.347   9.764
84438W        W85303  11.528   8.940   8.971
84439W        W85304  11.822   9.879   8.620
84440W        W85305  13.585   8.499   8.585
84441W        W85306  12.608   7.878   9.281
84442W        W85307  14.570   9.789   9.792
84443W        W85308  14.488   7.776   9.353
84444W        W85309  11.027  10.606   8.729
84445W        W85310  11.536   9.793   8.265
84446W        W85311  11.451   7.410  10.818
84447W        W85312  12.570  10.263  10.920
84448W        W85313  14.325   9.231   8.710
84449W        W85314  13.679   9.408   7.590
84450W        W85315  12.974  10.929   9.802
84451W        W85316  13.831   9.651  10.839
84452W        W85317  12.646   7.361   8.119
84453W        W85318  13.359   8.230   8.978
84454W        W85319  11.045   9.817   9.310
84455W        W85320  12.298   7.779   7.951
84456W        W85321  12.102   9.263  10.800
84457W        W85322  13.096   8.244   8.514
84458W        W85323  13.301   9.654   9.636
84459W        W85324  11.455  10.259  10.071
84460W        W85325  12.046  10.242  10.794
84461W        W85326  11.897   8.039   7.808
84462W        W85327  13.414   8.181   8.133
84463W        W85328  13.372  10.289  10.370
84464W        W85329  12.057   8.881   8.969
84465W        W85330  11.712  10.579   9.834
84466W        W85331  14.457  10.696   7.435
84467W        W85332  11.320   9.368  10.431
84468W        W85333  13.315   9.630   9.119
84469W        W85334  11.751   9.279   8.361
84470W        W85335  12.122  10.286   9.756
84471W        W85336  12.500   7.705   8.797
84472W        W85337  11.111   9.689   7.727
84473W        W85338  12.630   8.640   7.597
84474W        W85339  11.276   9.189   8.616
84475W        W85340  12.566   7.831  10.080
84476W        W85341  14.238   7.540   7.507
84477W        W85342  14.331   9.286  10.606
84478W        W85343  12.985  10.543  10.758
84479W        W85344  14.543   9.637  10.280
84480W        W85345  13.951  10.435  10.891
84481W        W85346  11.690  10.891   9.369
84482W        W85347  14.549   9.513   8.243
84483W        W85348  13.079   8.780   8.756
84484W        W85349  12.846   7.392   8.646
84485W        W85350  11.905  10.376   8.483
84486W        W85351  12.404   8.117   9.708
84487W        W85352  12.104   7.486   9.177
84488W        W85353  11.167  10.308   7.725
84489W        W85354  12.983   9.672   8.443
84490W        W85355  11.858  10.467  10.322
84491W        W85356  11.335   9.290   8.018
84492W        W85357  11.220   7.833   9.017
84493W        W85358  12.768   9.798   9.074
84494W        W85359  11.020   7.652   8.094
84495W        W85360  13.684   8.858  10.021
84496W        W85361  13.561   8.244   7.593
84497W        W85362  14.078   9.916   9.241
84498W        W85363  12.739  10.400   9.072
84499W        W85364  12.151  10.504   7.983
84500W        W85365  13.433   7.407   7.413
84501W        W85366  11.233  10.667   9.154
84502W        W85367  13.430   8.425  10.789
84503W        W85368  11.413   7.955  10.788
84504W        W85369  11.144   8.555   8.121
84505W        W85370  11.835   8.544   7.846
84506W        W85371  13.598   8.871  10.663
84507W        W85372  11.941   9.152   9.372
84508W        W85373  13.415   7.438   8.492
84509W        W85374  12.546  10.869   8.995
84510W        W85375  13.760  10.331   9.932
84511W        W85376  13.344  10.480   9.043
84512W        W85377  13.363   9.460   8.637
84513W        W85378  12.825   7.685   7.708
84514W        W85379  14.506   7.313   8.430
84515W        W85380  12.194   8.948   7.593
84516W        W85381  14.360   8.285   8.583
84517W        W85382  13.052   9.455   7.460
84518W        W85383  13.988   9.655  10.208
84519W        W85384  13.642  10.356   7.675
84520W        W85385  12.257   8.031  10.581
84521W        W85386  12.077   8.615   9.822
84522W        W85387  14.169  10.110  10.099
84523W        W85388  13.269   8.060  10.476
84524W        W85389  11.113   8.531  10.253
84525W        W85390  12.873   9.008   9.979
84526W        W85391  11.230   9.766   8.636
84527W        W85392  11.377   9.063   9.526
84528W        W85393  13.694   9.349   9.876
84529W        W85394  13.466  10.729  10.687
84530W        W85395  13.362   8.468  10.240
84531W        W85396  13.639  10.522   8.645
84532W        W85397  12.641  10.242   9.968
84533W        W85398  12.126  10.597   9.237
84534W        W85399  13.931   9.768   9.656
84535W        W85400  12.981   9.840  10.793
84536W        W85401  11.586   9.793   9.132
84537W        W85402  13.932   9.552   8.777
84538W        W85403  13.573  10.618   9.528
84539W        W85404  11.551  10.347   9.398
84540W        W85405  12.572   8.399  10.608
84541W        W85406  13.023  10.565   8.119
84542W        W85407  12.331   9.820  10.757
84543W        W85408  12.457  10.058   8.134
84544W        W85409  11.678   8.798   7.393
84545W        W85410  11.017  10.884  14.292
84546W        W85411  11.393   9.777  13.815
84547W        W85412  14.098   9.507  11.585
84548W        W85413  14.228  10.592  13.612
84549W        W85414  12.146  10.583  11.138
84550W        W85415  12.229   8.735  12.121
84551W        W85416  11.744   8.583  12.285
84552W        W85417  12.735   9.398  11.719
84553W        W85418  12.410  10.490  14.074
84554W        W85419  11.059   8.051  14.037
84555W        W85420  11.821   7.331  13.839
84556W        W85421  13.515   7.719  12.726
84557W        W85422  13.164   8.590  11.296
84558W        W85423  13.734   8.024  14.387
84559W        W85424  11.100   7.816  13.512
84560W        W85425  11.199  10.435  14.533
84561W        W85426  12.721   9.825  11.265
84562W        W85427  11.153   8.608  12.958
84563W        W85428  12.046   8.499  14.195
84564W        W85429  14.505   8.358  12.694
84565W        W85430  14.269   9.401  13.553
84566W        W85431  12.577   8.734  12.580
84567W        W85432  13.123  10.073  12.949
84568W        W85433  11.623   9.507  13.181
84569W        W85434  10.982   9.035  12.752
84570W        W85435  12.018   9.007  13.944
84571W        W85436  14.289   8.790  14.198
84572W        W85437  11.905  10.234  12.643
84573W        W85438  13.026   9.923  13.777
84574W        W85439  12.246   8.563  13.002
84575W        W85440  12.538   9.347  12.645
84576W        W85441  13.535  10.120  14.493
84577W        W85442  12.614   9.440  14.503
84578W        W85443  12.595   9.156  13.981
84579W        W85444  11.004   8.547  14.503
84580W        W85445  13.836  10.082  14.102
84581W        W85446  11.417   7.664  12.100
84582W        W85447  11.944   9.922  13.099
84583W        W85448  14.407   9.705  12.389
84584W        W85449  13.820   8.105  12.956
84585W        W85450  14.105   8.058  11.051
84586W        W85451  14.570   8.859  13.357
84587W        W85452  12.537  10.566  13.110
84588W        W85453  14.311  10.032  11.548
84589W        W85454  11.440  10.818  11.302
84590W        W85455  11.833  10.864  11.978
84591W        W85456  11.630   7.618  13.404
84592W        W85457  14.253   8.636  13.679
84593W        W85458  13.658   9.058  12.138
84594W        W85459  13.624   8.746  11.165
84595W        W85460  12.832   9.890  13.305
84596W        W85461  12.638   8.220  12.504
84597W        W85462  13.238  10.307  13.498
84598W        W85463  14.109   9.098  11.920
84599W        W85464  13.011   7.756  11.936
84600W        W85465  11.668  10.450  11.619
84601W        W85466  11.039   7.949  12.218
84602W        W85467  13.825   8.556  12.692
84603W        W85468  11.283  10.173  12.607
84604W        W85469  12.624  10.523  11.477
84605W        W85470  14.016   8.549  10.941
84606W        W85471  11.039  10.307  13.105
84607W        W85472  11.830   9.879  13.585
84608W        W85473  12.203   9.239  12.204
84609W        W85474  12.225   7.644  13.297
84610W        W85475  14.454   7.406  12.594
84611W        W85476  11.673   9.278  11.062
84612W        W85477  11.328   8.311  11.241
84613W        W85478  11.390  10.267  12.035
84614W        W85479  12.521   9.750  12.283
84615W        W85480  13.853  10.609  13.997
84616W        W85481  12.779   8.251  11.681
84617W        W85482  14.162  10.649  12.453
84618W        W85483  13.839   8.502  14.051
84619W        W85484  14.552  10.158  12.185
84620W        W85485  13.179   9.450  13.669
84621W        W85486  10.945   9.001  11.875
84622W        W85487  12.056   9.416  13.448
84623W        W85488  13.260   8.680  11.826
84624W        W85489  13.137   9.170  11.930
84625W        W85490  11.480   8.590  13.404
84626W        W85491  11.465   8.466  14.326
84627W        W85492  11.355   7.383  12.485
84628W        W85493  13.123   7.730  13.046
84629W        W85494  12.771   7.915  14.209
84630W        W85495  13.126   8.064  11.387
84631W        W85496  14.309  10.457  14.141
84632W        W85497  13.276   7.538  14.180
84633W        W85498  14.295   9.839  14.302
84634W        W85499  13.725   8.006  13.898
84635W        W85500  13.525   7.944  12.168
84636W        W85501  13.918   9.078  14.572
84637W        W85502  11.658  10.654  12.558
84638W        W85503  12.316   8.371  11.544
84639W        W85504  11.885   7.655  14.208
84640W        W85505  13.937   8.139  11.889
84641W        W85506  14.304   8.621  11.834
84642W        W85507  12.047  10.838  14.305
84643W        W85508  11.973   7.374  11.540
84644W        W85509  14.294   7.908  12.575
84645W        W85510  14.444  10.157  11.020
84646W        W85511  11.351   9.360  12.722
84647W        W85512  13.268   7.947  10.952
84648W        W85513  14.402  10.279  12.672
84649W        W85514  14.441   7.473  13.422
84650W        W85515  12.886   8.685  13.976
84651W        W85516  12.979  10.024  11.679
84652W        W85517  13.379   9.318  14.419
84653W        W85518  13.053   7.295  12.728
84654W        W85519  11.665   8.198  12.791
84655W        W85520  11.219   9.398  13.565
84656W        W85521  13.078  10.591  12.271
84657W        W85522  14.272   8.188  13.143
84658W        W85523  12.909  10.535  13.910
84659W        W85524  14.252   9.594  11.115
84660W        W85525  12.687   9.077  12.176
84661W        W85526  14.539   7.588  13.917
84662W        W85527  12.688   9.423  13.511
84663W        W85528  12.905   8.309  12.956
84664W        W85529  13.757   8.607  11.794
84665W        W85530  14.044   8.340  11.436
84666W        W85531  13.853  10.380  11.825
84667W        W85532  13.687   9.983  12.621
84668W        W85533  13.583   9.062  11.599
84669W        W85534  13.016   9.272  12.585
84670W        W85535  13.897   9.060  12.652
84671W        W85536  11.272   8.075  13.076
84672W        W85537  14.050   9.127  13.903
84673W        W85538  14.401  10.745  13.049
84674W        W85539  12.331  10.189  12.451
84675W        W85540  13.338  10.722  13.775
84676W        W85541  13.332   8.052  13.539
84677W        W85542  12.539  10.760  13.600
84678W        W85543  14.236   7.714  12.066
84679W        W85544  14.027   9.033  13.367
84680W        W85545  11.010   8.354  13.405
84681W        W85546  13.870   8.149  12.423
84682W        W85547  14.281   8.300  14.200
84683W        W85548  13.166   9.999  12.418
84684W        W85549  12.422  10.590  12.031
84685W        W85550  11.537   7.770  11.289
84686W        W85551  12.641   7.424  13.099
84687W        W85552  11.669  10.544  10.947
84688W        W85553  12.043   9.010  11.698
84689W        W85554  12.697   9.639  14.011
84690W        W85555  12.527   7.997  12.001
84691W        W85556  13.883   7.594  12.429
84692W        W85557  13.603  10.876  12.757
84693W        W85558  13.015  10.524  13.097
84694W        W85559  12.411   9.561  13.058
84695W        W85560  14.181  10.284  13.184
84696W        W85561  11.875   7.787  11.953
84697W        W85562  12.397  10.084  12.913
84698W        W85563  11.880   8.015  10.978
84699W        W85564  12.681   8.624  13.372
84700W        W85565  13.529   7.490  13.242
84701W        W85566  10.949   9.333  13.127
84702W        W85567  12.653   9.151  11.285
84703W        W85568  11.921   7.466  11.055
84704W        W85569  12.659   8.547  12.106
84705W        W85570  13.629   7.523  13.805
84706W        W85571  12.217   9.535  13.914
84707W        W85572  13.021   9.317  14.131
84708W        W85573  13.638   9.347  14.024
84709W        W85574  12.922   7.487  14.529
84710W        W85575  12.144   8.103  12.922
84711W        W85576  11.570   8.059  12.320
84712W        W85577  11.356  10.771  11.996
84713W        W85578  12.688  10.101  14.121
84714W        W85579  11.723   9.586  11.480
84715W        W85580  13.403   8.971  12.701
84716W        W85581  13.683   8.770  13.100
84717W        W85582  12.888   9.444  13.034
84718W        W85583  13.358   9.818  11.166
84719W        W85584  13.030   7.839  12.494
84720W        W85585  14.509   8.117  11.762
84721W        W85586  11.003  10.706  13.793
84722W        W85587  11.420   9.932  13.325
84723W        W85588  10.987  10.778  11.557
84724W        W85589  12.886   8.048  13.363
84725W        W85590  12.249  10.071  11.212
84726W        W85591  14.154  10.453  11.398
84727W        W85592  13.129   9.106  11.412
84728W        W85593  11.972   8.297  11.929
84729W        W85594  12.804   8.207  10.981
84730W        W85595  13.388   9.772  14.159
84731W        W85596  13.741   7.678  11.776
84732W        W85597  11.071   7.526  11.224
84733W        W85598  12.357   9.845  13.514
84734W        W85599  12.156   9.761  12.606
84735W        W85600  11.898   9.713  11.004
84736W        W85601  11.139   9.954  11.772
84737W        W85602  11.643   9.024  14.214
84738W        W85603  12.347   7.584  14.400
84739W        W85604  13.056   7.726  13.756
84740W        W85605  12.251   7.494  12.037
84741W        W85606  13.310   7.571  11.542
84742W        W85607  11.255   7.503  13.119
84743W        W85608  11.303   8.466  12.489
84744W        W85609  13.992   7.574  12.895
84745W        W85610  11.414   8.072  11.709
84746W        W85611  13.985   7.760  13.325
84747W        W85612  14.381   8.963  11.010
84748W        W85613  11.673   7.721  12.829
84749W        W85614  12.787   8.293  13.769
84750W        W85615  10.935   7.983  11.247
84751W        W85616  11.721   9.372  13.808
84752W        W85617  13.079   8.770  12.987
84753W        W85618  12.946  10.849  11.283
84754W        W85619  11.092   9.356  10.980
84755W        W85620  11.827   9.767  14.106
84756W        W85621  11.348   8.934  13.737
84757W        W85622  12.339   9.039  13.531
84758W        W85623  14.107   7.398  13.793
84759W        W85624  14.505   9.008  13.784
84760W        W85625  14.493   9.208  11.470
84761W        W85626  13.356   9.540  11.569
84762W        W85627  13.830  10.840  11.264
84763W        W85628  13.007   8.830  14.406
84764W        W85629  11.337   9.797  14.446
84765W        W85630  14.543   7.719  14.398
84766W        W85631  14.261   8.647  13.019
84767W        W85632  12.569  10.777  14.496
84768W        W85633  12.424   7.406  11.223
84769W        W85634  13.963  10.005  11.166
84770W        W85635  11.732   8.098  14.052
84771W        W85636  12.166  10.092  13.914
84772W        W85637  14.292   8.083  13.712
84773W        W85638  13.503  10.742  11.680
84774W        W85639  13.742   9.361  13.047
84775W        W85640  11.992   7.777  13.714
84776W        W85641  12.461   8.846  14.471
84777W        W85642  11.964  10.025  11.665
84778W        W85643  13.719   9.523  11.929
84779W        W85644  11.487   8.149  13.653
84780W        W85645  12.816  10.211  12.117
84781W        W85646  14.566   8.771  12.298
84782W        W85647  12.788   7.404  14.017
84783W        W85648  13.568  10.109  13.096
84784W        W85649  13.871  10.453  12.804
84785W        W85650  13.090  10.255  11.232
84786W        W85651  11.100  10.147  14.074
84787W        W85652  11.843   8.139  13.312
84788W        W85653  11.813   7.487  12.422
84789W        W85654  13.434   8.329  13.114
84790W        W85655  12.232   9.500  11.314
84791W        W85656  14.230   9.442  12.813
84792W        W85657  11.557  10.200  14.236
84793W        W85658  13.944  10.882  12.033
84794W        W85659  12.043   7.902  12.478
84795W        W85660  11.812   9.395  12.568
84796W        W85661  12.125  10.806  13.318
84797W        W85662  14.192  10.902  14.350
84798W        W85663  13.351   9.090  13.283
84799W        W85664  11.200   8.888  11.198
84800W        W85665  14.334  10.546  11.895
84801W        W85666  14.171   7.870  11.514
84802W        W85667  12.310   7.389  13.917
84803W        W85668  14.016  10.191  12.375
84804W        W85669  14.045   8.747  12.280
84805W        W85670  12.162   8.420  12.496
84806W        W85671  12.407   8.682  13.820
84807W        W85672  13.518   9.835  13.683
84808W        W85673  12.168   8.289  13.795
84809W        W85674  12.147  10.755  12.411
84810W        W85675  11.464  10.714  14.045
84811W        W85676  11.576  10.075  11.175
84812W        W85677  14.093   9.833  11.985
84813W        W85678  11.697   8.625  13.871
84814W        W85679  14.470   8.555  11.352
84815W        W85680  12.215   9.612  11.823
84816W        W85681  13.314   8.994  13.904
84817W        W85682  13.205   8.622  13.448
84818W        W85683  11.765   8.994  13.477
84819W        W85684  13.975  10.882  13.306
84820W        W85685  13.766   7.516  14.300
84821W        W85686  11.430   7.666  13.887
84822W        W85687  11.769   8.689  12.940
84823W        W85688  12.138   8.503  11.062
84824W        W85689  10.941  10.262  13.607
84825W        W85690  12.526   8.971  13.050
84826W        W85691  12.349   7.996  11.155
84827W        W85692  11.484   8.812  11.936
84828W        W85693  11.255  10.664  13.373
84829W        W85694  14.050   8.890  11.481
84830W        W85695  14.145   7.806  14.167
84831W        W85696  13.581  10.015  12.130
84832W        W85697  11.179   8.939  14.307
84833W        W85698  14.145   7.403  11.603
84834W        W85699  13.665   9.878  11.614
84835W        W85700  12.567   8.936  11.699
84836W        W85701  13.754   7.740  11.222
84837W        W85702  13.819   8.347  13.408
84838W        W85703  11.528   8.940  12.615
84839W        W85704  11.822   9.879  12.264
84840W        W85705  13.585   8.499  12.229
84841W        W85706  12.608   7.878  12.925
84842W        W85707  14.570   9.789  13.436
84843W        W85708  14.488   7.776  12.997
84844W        W85709  11.027  10.606  12.373
84845W        W85710  11.536   9.793  11.909
84846W        W85711  11.451   7.410  14.462
84847W        W85712  12.570  10.263  14.564
84848W        W85713  14.325   9.231  12.354
84849W        W85714  13.679   9.408  11.234
84850W        W85715  12.974  10.929  13.446
84851W        W85716  13.831   9.651  14.483
84852W        W85717  12.646   7.361  11.763
84853W        W85718  13.359   8.230  12.622
84854W        W85719  11.045   9.817  12.954
84855W        W85720  12.298   7.779  11.595
84856W        W85721  12.102   9.263  14.444
84857W        W85722  13.096   8.244  12.158
84858W        W85723  13.301   9.654  13.280
84859W        W85724  11.455  10.259  13.715
84860W        W85725  12.046  10.242  14.438
84861W        W85726  11.897   8.039  11.452
84862W        W85727  13.414   8.181  11.777
84863W        W85728  13.372  10.289  14.014
84864W        W85729  12.057   8.881  12.613
84865W        W85730  11.712  10.579  13.478
84866W        W85731  14.457  10.696  11.079
84867W        W85732  11.320   9.368  14.075
84868W        W85733  13.315   9.630  12.763
84869W        W85734  11.751   9.279  12.005
84870W        W85735  12.122  10.286  13.400
84871W        W85736  12.500   7.705  12.441
84872W        W85737  11.111   9.689  11.371
84873W        W85738  12.630   8.640  11.241
84874W        W85739  11.276   9.189  12.260
84875W        W85740  12.566   7.831  13.724
84876W        W85741  14.238   7.540  11.151
84877W        W85742  14.331   9.286  14.250
84878W        W85743  12.985  10.543  14.402
84879W        W85744  14.543   9.637  13.924
84880W        W85745  13.951  10.435  14.535
84881W        W85746  11.690  10.891  13.013
84882W        W85747  14.549   9.513  11.887
84883W        W85748  13.079   8.780  12.400
84884W        W85749  12.846   7.392  12.290
84885W        W85750  11.905  10.376  12.127
84886W        W85751  12.404   8.117  13.352
84887W        W85752  12.104   7.486  12.821
84888W        W85753  11.167  10.308  11.369
84889W        W85754  12.983   9.672  12.087
84890W        W85755  11.858  10.467  13.966
84891W        W85756  11.335   9.290  11.662
84892W        W85757  11.220   7.833  12.661
84893W        W85758  12.768   9.798  12.718
84894W        W85759  11.020   7.652  11.738
84895W        W85760  13.684   8.858  13.665
84896W        W85761  13.561   8.244  11.237
84897W        W85762  14.078   9.916  12.885
84898W        W85763  12.739  10.400  12.716
84899W        W85764  12.151  10.504  11.627
84900W        W85765  13.433   7.407  11.057
84901W        W85766  11.233  10.667  12.798
84902W        W85767  13.430   8.425  14.433
84903W        W85768  11.413   7.955  14.432
84904W        W85769  11.144   8.555  11.765
84905W        W85770  11.835   8.544  11.490
84906W        W85771  13.598   8.871  14.307
84907W        W85772  11.941   9.152  13.016
84908W        W85773  13.415   7.438  12.136
84909W        W85774  12.546  10.869  12.639
84910W        W85775  13.760  10.331  13.576
84911W        W85776  13.344  10.480  12.687
84912W        W85777  13.363   9.460  12.281
84913W        W85778  12.825   7.685  11.352
84914W        W85779  14.506   7.313  12.074
84915W        W85780  12.194   8.948  11.237
84916W        W85781  14.360   8.285  12.227
84917W        W85782  13.052   9.455  11.104
84918W        W85783  13.988   9.655  13.852
84919W        W85784  13.642  10.356  11.319
84920W        W85785  12.257   8.031  14.225
84921W        W85786  12.077   8.615  13.466
84922W        W85787  14.169  10.110  13.743
84923W        W85788  13.269   8.060  14.120
84924W        W85789  11.113   8.531  13.897
84925W        W85790  12.873   9.008  13.623
84926W        W85791  11.230   9.766  12.280
84927W        W85792  11.377   9.063  13.170
84928W        W85793  13.694   9.349  13.520
84929W        W85794  13.466  10.729  14.331
84930W        W85795  13.362   8.468  13.884
84931W        W85796  13.639  10.522  12.289
84932W        W85797  12.641  10.242  13.612
84933W        W85798  12.126  10.597  12.881
84934W        W85799  13.931   9.768  13.300
84935W        W85800  12.981   9.840  14.437
84936W        W85801  11.586   9.793  12.776
84937W        W85802  13.932   9.552  12.421
84938W        W85803  13.573  10.618  13.172
84939W        W85804  11.551  10.347  13.042
84940W        W85805  12.572   8.399  14.252
84941W        W85806  13.023  10.565  11.763
84942W        W85807  12.331   9.820  14.401
84943W        W85808  12.457  10.058  11.778
84944W        W85809  11.678   8.798  11.037
84945W        W85810  11.017  10.884  17.936
84946W        W85811  11.393   9.777  17.459
84947W        W85812  14.098   9.507  15.229
84948W        W85813  14.228  10.592  17.256
84949W        W85814  12.146  10.583  14.782
84950W        W85815  12.229   8.735  15.765
84951W        W85816  11.744   8.583  15.929
84952W        W85817  12.735   9.398  15.363
84953W        W85818  12.410  10.490  17.718
84954W        W85819  11.059   8.051  17.681
84955W        W85820  11.821   7.331  17.483
84956W        W85821  13.515   7.719  16.370
84957W        W85822  13.164   8.590  14.940
84958W        W85823  13.734   8.024  18.031
84959W        W85824  11.100   7.816  17.156
84960W        W85825  11.199  10.435  18.177
84961W        W85826  12.721   9.825  14.909
84962W        W85827  11.153   8.608  16.602
84963W        W85828  12.046   8.499  17.839
84964W        W85829  14.505   8.358  16.338
84965W        W85830  14.269   9.401  17.197
84966W        W85831  12.577   8.734  16.224
84967W        W85832  13.123  10.073  16.593
84968W        W85833  11.623   9.507  16.825
84969W        W85834  10.982   9.035  16.396
84970W        W85835  12.018   9.007  17.588
84971W        W85836  14.289   8.790  17.842
84972W        W85837  11.905  10.234  16.287
84973W        W85838  13.026   9.923  17.421
84974W        W85839  12.246   8.563  16.646
84975W        W85840  12.538   9.347  16.289
84976W        W85841  13.535  10.120  18.137
84977W        W85842  12.614   9.440  18.147
84978W        W85843  12.595   9.156  17.625
84979W        W85844  11.004   8.547  18.147
84980W        W85845  13.836  10.082  17.746
84981W        W85846  11.417   7.664  15.744
84982W        W85847  11.944   9.922  16.743
84983W        W85848  14.407   9.705  16.033
84984W        W85849  13.820   8.105  16.600
84985W        W85850  14.105   8.058  14.695
84986W        W85851  14.570   8.859  17.001
84987W        W85852  12.537  10.566  16.754
84988W        W85853  14.311  10.032  15.192
84989W        W85854  11.440  10.818  14.946
84990W        W85855  11.833  10.864  15.622
84991W        W85856  11.630   7.618  17.048
84992W        W85857  14.253   8.636  17.323
84993W        W85858  13.658   9.058  15.782
84994W        W85859  13.624   8.746  14.809
84995W        W85860  12.832   9.890  16.949
84996W        W85861  12.638   8.220  16.148
84997W        W85862  13.238  10.307  17.142
84998W        W85863  14.109   9.098  15.564
84999W        W85864  13.011   7.756  15.580
85000W        W85865  11.668  10.450  15.263
85001W        W85866  11.039   7.949  15.862
85002W        W85867  13.825   8.556  16.336
85003W        W85868  11.283  10.173  16.251
85004W        W85869  12.624  10.523  15.121
85005W        W85870  14.016   8.549  14.585
85006W        W85871  11.039  10.307  16.749
85007W        W85872  11.830   9.879  17.229
85008W        W85873  12.203   9.239  15.848
85009W        W85874  12.225   7.644  16.941
85010W        W85875  14.454   7.406  16.238
85011W        W85876  11.673   9.278  14.706
85012W        W85877  11.328   8.311  14.885
85013W        W85878  11.390  10.267  15.679
85014W        W85879  12.521   9.750  15.927
85015W        W85880  13.853  10.609  17.641
85016W        W85881  12.779   8.251  15.325
85017W        W85882  14.162  10.649  16.097
85018W        W85883  13.839   8.502  17.695
85019W        W85884  14.552  10.158  15.829
85020W        W85885  13.179   9.450  17.313
85021W        W85886  10.945   9.001  15.519
85022W        W85887  12.056   9.416  17.092
85023W        W85888  13.260   8.680  15.470
85024W        W85889  13.137   9.170  15.574
85025W        W85890  11.480   8.590  17.048
85026W        W85891  11.465   8.466  17.970
85027W        W85892  11.355   7.383  16.129
85028W        W85893  13.123   7.730  16.690
85029W        W85894  12.771   7.915  17.853
85030W        W85895  13.126   8.064  15.031
85031W        W85896  14.309  10.457  17.785
85032W        W85897  13.276   7.538  17.824
85033W        W85898  14.295   9.839  17.946
85034W        W85899  13.725   8.006  17.542
85035W        W85900  13.525   7.944  15.812
85036W        W85901  13.918   9.078  18.216
85037W        W85902  11.658  10.654  16.202
85038W        W85903  12.316   8.371  15.188
85039W        W85904  11.885   7.655  17.852
85040W        W85905  13.937   8.139  15.533
85041W        W85906  14.304   8.621  15.478
85042W        W85907  12.047  10.838  17.949
85043W        W85908  11.973   7.374  15.184
85044W        W85909  14.294   7.908  16.219
85045W        W85910  14.444  10.157  14.664
85046W        W85911  11.351   9.360  16.366
85047W        W85912  13.268   7.947  14.596
85048W        W85913  14.402  10.279  16.316
85049W        W85914  14.441   7.473  17.066
85050W        W85915  12.886   8.685  17.620
85051W        W85916  12.979  10.024  15.323
85052W        W85917  13.379   9.318  18.063
85053W        W85918  13.053   7.295  16.372
85054W        W85919  11.665   8.198  16.435
85055W        W85920  11.219   9.398  17.209
85056W        W85921  13.078  10.591  15.915
85057W        W85922  14.272   8.188  16.787
85058W        W85923  12.909  10.535  17.554
85059W        W85924  14.252   9.594  14.759
85060W        W85925  12.687   9.077  15.820
85061W        W85926  14.539   7.588  17.561
85062W        W85927  12.688   9.423  17.155
85063W        W85928  12.905   8.309  16.600
85064W        W85929  13.757   8.607  15.438
85065W        W85930  14.044   8.340  15.080
85066W        W85931  13.853  10.380  15.469
85067W        W85932  13.687   9.983  16.265
85068W        W85933  13.583   9.062  15.243
85069W        W85934  13.016   9.272  16.229
85070W        W85935  13.897   9.060  16.296
85071W        W85936  11.272   8.075  16.720
85072W        W85937  14.050   9.127  17.547
85073W        W85938  14.401  10.745  16.693
85074W        W85939  12.331  10.189  16.095
85075W        W85940  13.338  10.722  17.419
85076W        W85941  13.332   8.052  17.183
85077W        W85942  12.539  10.760  17.244
85078W        W85943  14.236   7.714  15.710
85079W        W85944  14.027   9.033  17.011
85080W        W85945  11.010   8.354  17.049
85081W        W85946  13.870   8.149  16.067
85082W        W85947  14.281   8.300  17.844
85083W        W85948  13.166   9.999  16.062
85084W        W85949  12.422  10.590  15.675
85085W        W85950  11.537   7.770  14.933
85086W        W85951  12.641   7.424  16.743
85087W        W85952  11.669  10.544  14.591
85088W        W85953  12.043   9.010  15.342
85089W        W85954  12.697   9.639  17.655
85090W        W85955  12.527   7.997  15.645
85091W        W85956  13.883   7.594  16.073
85092W        W85957  13.603  10.876  16.401
85093W        W85958  13.015  10.524  16.741
85094W        W85959  12.411   9.561  16.702
85095W        W85960  14.181  10.284  16.828
85096W        W85961  11.875   7.787  15.597
85097W        W85962  12.397  10.084  16.557
85098W        W85963  11.880   8.015  14.622
85099W        W85964  12.681   8.624  17.016
85100W        W85965  13.529   7.490  16.886
85101W        W85966  10.949   9.333  16.771
85102W        W85967  12.653   9.151  14.929
85103W        W85968  11.921   7.466  14.699
85104W        W85969  12.659   8.547  15.750
85105W        W85970  13.629   7.523  17.449
85106W        W85971  12.217   9.535  17.558
85107W        W85972  13.021   9.317  17.775
85108W        W85973  13.638   9.347  17.668
85109W        W85974  12.922   7.487  18.173
85110W        W85975  12.144   8.103  16.566
85111W        W85976  11.570   8.059  15.964
85112W        W85977  11.356  10.771  15.640
85113W        W85978  12.688  10.101  17.765
85114W        W85979  11.723   9.586  15.124
85115W        W85980  13.403   8.971  16.345
85116W        W85981  13.683   8.770  16.744
85117W        W85982  12.888   9.444  16.678
85118W        W85983  13.358   9.818  14.810
85119W        W85984  13.030   7.839  16.138
85120W        W85985  14.509   8.117  15.406
85121W        W85986  11.003  10.706  17.437
85122W        W85987  11.420   9.932  16.969
85123W        W85988  10.987  10.778  15.201
85124W        W85989  12.886   8.048  17.007
85125W        W85990  12.249  10.071  14.856
85126W        W85991  14.154  10.453  15.042
85127W        W85992  13.129   9.106  15.056
85128W        W85993  11.972   8.297  15.573
85129W        W85994  12.804   8.207  14.625
85130W        W85995  13.388   9.772  17.803
85131W        W85996  13.741   7.678  15.420
85132W        W85997  11.071   7.526  14.868
85133W        W85998  12.357   9.845  17.158
85134W        W85999  12.156   9.761  16.250
85135W        W86000  11.898   9.713  14.648
85136W        W86001  11.139   9.954  15.416
85137W        W86002  11.643   9.024  17.858
85138W        W86003  12.347   7.584  18.044
85139W        W86004  13.056   7.726  17.400
85140W        W86005  12.251   7.494  15.681
85141W        W86006  13.310   7.571  15.186
85142W        W86007  11.255   7.503  16.763
85143W        W86008  11.303   8.466  16.133
85144W        W86009  13.992   7.574  16.539
85145W        W86010  11.414   8.072  15.353
85146W        W86011  13.985   7.760  16.969
85147W        W86012  14.381   8.963  14.654
85148W        W86013  11.673   7.721  16.473
85149W        W86014  12.787   8.293  17.413
85150W        W86015  10.935   7.983  14.891
85151W        W86016  11.721   9.372  17.452
85152W        W86017  13.079   8.770  16.631
85153W        W86018  12.946  10.849  14.927
85154W        W86019  11.092   9.356  14.624
85155W        W86020  11.827   9.767  17.750
85156W        W86021  11.348   8.934  17.381
85157W        W86022  12.339   9.039  17.175
85158W        W86023  14.107   7.398  17.437
85159W        W86024  14.505   9.008  17.428
85160W        W86025  14.493   9.208  15.114
85161W        W86026  13.356   9.540  15.213
85162W        W86027  13.830  10.840  14.908
85163W        W86028  13.007   8.830  18.050
85164W        W86029  11.337   9.797  18.090
85165W        W86030  14.543   7.719  18.042
85166W        W86031  14.261   8.647  16.663
85167W        W86032  12.569  10.777  18.140
85168W        W86033  12.424   7.406  14.867
85169W        W86034  13.963  10.005  14.810
85170W        W86035  11.732   8.098  17.696
85171W        W86036  12.166  10.092  17.558
85172W        W86037  14.292   8.083  17.356
85173W        W86038  13.503  10.742  15.324
85174W        W86039  13.742   9.361  16.691
85175W        W86040  11.992   7.777  17.358
85176W        W86041  12.461   8.846  18.115
85177W        W86042  11.964  10.025  15.309
85178W        W86043  13.719   9.523  15.573
85179W        W86044  11.487   8.149  17.297
85180W        W86045  12.816  10.211  15.761
85181W        W86046  14.566   8.771  15.942
85182W        W86047  12.788   7.404  17.661
85183W        W86048  13.568  10.109  16.740
85184W        W86049  13.871  10.453  16.448
85185W        W86050  13.090  10.255  14.876
85186W        W86051  11.100  10.147  17.718
85187W        W86052  11.843   8.139  16.956
85188W        W86053  11.813   7.487  16.066
85189W        W86054  13.434   8.329  16.758
85190W        W86055  12.232   9.500  14.958
85191W        W86056  14.230   9.442  16.457
85192W        W86057  11.557  10.200  17.880
85193W        W86058  13.944  10.882  15.677
85194W        W86059  12.043   7.902  16.122
85195W        W86060  11.812   9.395  16.212
85196W        W86061  12.125  10.806  16.962
85197W        W86062  14.192  10.902  17.994
85198W        W86063  13.351   9.090  16.927
85199W        W86064  11.200   8.888  14.842
85200W        W86065  14.334  10.546  15.539
85201W        W86066  14.171   7.870  15.158
85202W        W86067  12.310   7.389  17.561
85203W        W86068  14.016  10.191  16.019
85204W        W86069  14.045   8.747  15.924
85205W        W86070  12.162   8.420  16.140
85206W        W86071  12.407   8.682  17.464
85207W        W86072  13.518   9.835  17.327
85208W        W86073  12.168   8.289  17.439
85209W        W86074  12.147  10.755  16.055
85210W        W86075  11.464  10.714  17.689
85211W        W86076  11.576  10.075  14.819
85212W        W86077  14.093   9.833  15.629
85213W        W86078  11.697   8.625  17.515
85214W        W86079  14.470   8.555  14.996
85215W        W86080  12.215   9.612  15.467
85216W        W86081  13.314   8.994  17.548
85217W        W86082  13.205   8.622  17.092
85218W        W86083  11.765   8.994  17.121
85219W        W86084  13.975  10.882  16.950
85220W        W86085  13.766   7.516  17.944
85221W        W86086  11.430   7.666  17.531
85222W        W86087  11.769   8.689  16.584
85223W        W86088  12.138   8.503  14.706
85224W        W86089  10.941  10.262  17.251
85225W        W86090  12.526   8.971  16.694
85226W        W86091  12.349   7.996  14.799
85227W        W86092  11.484   8.812  15.580
85228W        W86093  11.255  10.664  17.017
85229W        W86094  14.050   8.890  15.125
85230W        W86095  14.145   7.806  17.811
85231W        W86096  13.581  10.015  15.774
85232W        W86097  11.179   8.939  17.951
85233W        W86098  14.145   7.403  15.247
85234W        W86099  13.665   9.878  15.258
85235W        W86100  12.567   8.936  15.343
85236W        W86101  13.754   7.740  14.866
85237W        W86102  13.819   8.347  17.052
85238W        W86103  11.528   8.940  16.259
85239W        W86104  11.822   9.879  15.908
85240W        W86105  13.585   8.499  15.873
85241W        W86106  12.608   7.878  16.569
85242W        W86107  14.570   9.789  17.080
85243W        W86108  14.488   7.776  16.641
85244W        W86109  11.027  10.606  16.017
85245W        W86110  11.536   9.793  15.553
85246W        W86111  11.451   7.410  18.106
85247W        W86112  12.570  10.263  18.208
85248W        W86113  14.325   9.231  15.998
85249W        W86114  13.679   9.408  14.878
85250W        W86115  12.974  10.929  17.090
85251W        W86116  13.831   9.651  18.127
85252W        W86117  12.646   7.361  15.407
85253W        W86118  13.359   8.230  16.266
85254W        W86119  11.045   9.817  16.598
85255W        W86120  12.298   7.779  15.239
85256W        W86121  12.102   9.263  18.088
85257W        W86122  13.096   8.244  15.802
85258W        W86123  13.301   9.654  16.924
85259W        W86124  11.455  10.259  17.359
85260W        W86125  12.046  10.242  18.082
85261W        W86126  11.897   8.039  15.096
85262W        W86127  13.414   8.181  15.421
85263W        W86128  13.372  10.289  17.658
85264W        W86129  12.057   8.881  16.257
85265W        W86130  11.712  10.579  17.122
85266W        W86131  14.457  10.696  14.723
85267W        W86132  11.320   9.368  17.719
85268W        W86133  13.315   9.630  16.407
85269W        W86134  11.751   9.279  15.649
85270W        W86135  12.122  10.286  17.044
85271W        W86136  12.500   7.705  16.085
85272W        W86137  11.111   9.689  15.015
85273W        W86138  12.630   8.640  14.885
85274W        W86139  11.276   9.189  15.904
85275W        W86140  12.566   7.831  17.368
85276W        W86141  14.238   7.540  14.795
85277W        W86142  14.331   9.286  17.894
85278W        W86143  12.985  10.543  18.046
85279W        W86144  14.543   9.637  17.568
85280W        W86145  13.951  10.435  18.179
85281W        W86146  11.690  10.891  16.657
85282W        W86147  14.549   9.513  15.531
85283W        W86148  13.079   8.780  16.044
85284W        W86149  12.846   7.392  15.934
85285W        W86150  11.905  10.376  15.771
85286W        W86151  12.404   8.117  16.996
85287W        W86152  12.104   7.486  16.465
85288W        W86153  11.167  10.308  15.013
85289W        W86154  12.983   9.672  15.731
85290W        W86155  11.858  10.467  17.610
85291W        W86156  11.335   9.290  15.306
85292W        W86157  11.220   7.833  16.305
85293W        W86158  12.768   9.798  16.362
85294W        W86159  11.020   7.652  15.382
85295W        W86160  13.684   8.858  17.309
85296W        W86161  13.561   8.244  14.881
85297W        W86162  14.078   9.916  16.529
85298W        W86163  12.739  10.400  16.360
85299W        W86164  12.151  10.504  15.271
85300W        W86165  13.433   7.407  14.701
85301W        W86166  11.233  10.667  16.442
85302W        W86167  13.430   8.425  18.077
85303W        W86168  11.413   7.955  18.076
85304W        W86169  11.144   8.555  15.409
85305W        W86170  11.835   8.544  15.134
85306W        W86171  13.598   8.871  17.951
85307W        W86172  11.941   9.152  16.660
85308W        W86173  13.415   7.438  15.780
85309W        W86174  12.546  10.869  16.283
85310W        W86175  13.760  10.331  17.220
85311W        W86176  13.344  10.480  16.331
85312W        W86177  13.363   9.460  15.925
85313W        W86178  12.825   7.685  14.996
85314W        W86179  14.506   7.313  15.718
85315W        W86180  12.194   8.948  14.881
85316W        W86181  14.360   8.285  15.871
85317W        W86182  13.052   9.455  14.748
85318W        W86183  13.988   9.655  17.496
85319W        W86184  13.642  10.356  14.963
85320W        W86185  12.257   8.031  17.869
85321W        W86186  12.077   8.615  17.110
85322W        W86187  14.169  10.110  17.387
85323W        W86188  13.269   8.060  17.764
85324W        W86189  11.113   8.531  17.541
85325W        W86190  12.873   9.008  17.267
85326W        W86191  11.230   9.766  15.924
85327W        W86192  11.377   9.063  16.814
85328W        W86193  13.694   9.349  17.164
85329W        W86194  13.466  10.729  17.975
85330W        W86195  13.362   8.468  17.528
85331W        W86196  13.639  10.522  15.933
85332W        W86197  12.641  10.242  17.256
85333W        W86198  12.126  10.597  16.525
85334W        W86199  13.931   9.768  16.944
85335W        W86200  12.981   9.840  18.081
85336W        W86201  11.586   9.793  16.420
85337W        W86202  13.932   9.552  16.065
85338W        W86203  13.573  10.618  16.816
85339W        W86204  11.551  10.347  16.686
85340W        W86205  12.572   8.399  17.896
85341W        W86206  13.023  10.565  15.407
85342W        W86207  12.331   9.820  18.045
85343W        W86208  12.457  10.058  15.422
85344W        W86209  11.678   8.798  14.681
85345W        W86210  11.017  10.884  21.580
85346W        W86211  11.393   9.777  21.103
85347W        W86212  14.098   9.507  18.873
85348W        W86213  14.228  10.592  20.900
85349W        W86214  12.146  10.583  18.426
85350W        W86215  12.229   8.735  19.409
85351W        W86216  11.744   8.583  19.573
85352W        W86217  12.735   9.398  19.007
85353W        W86218  12.410  10.490  21.362
85354W        W86219  11.059   8.051  21.325
85355W        W86220  11.821   7.331  21.127
85356W        W86221  13.515   7.719  20.014
85357W        W86222  13.164   8.590  18.584
85358W        W86223  13.734   8.024  21.675
85359W        W86224  11.100   7.816  20.800
85360W        W86225  11.199  10.435  21.821
85361W        W86226  12.721   9.825  18.553
85362W        W86227  11.153   8.608  20.246
85363W        W86228  12.046   8.499  21.483
85364W        W86229  14.505   8.358  19.982
85365W        W86230  14.269   9.401  20.841
85366W        W86231  12.577   8.734  19.868
85367W        W86232  13.123  10.073  20.237
85368W        W86233  11.623   9.507  20.469
85369W        W86234  10.982   9.035  20.040
85370W        W86235  12.018   9.007  21.232
85371W        W86236  14.289   8.790  21.486
85372W        W86237  11.905  10.234  19.931
85373W        W86238  13.026   9.923  21.065
85374W        W86239  12.246   8.563  20.290
85375W        W86240  12.538   9.347  19.933
85376W        W86241  13.535  10.120  21.781
85377W        W86242  12.614   9.440  21.791
85378W        W86243  12.595   9.156  21.269
85379W        W86244  11.004   8.547  21.791
85380W        W86245  13.836  10.082  21.390
85381W        W86246  11.417   7.664  19.388
85382W        W86247  11.944   9.922  20.387
85383W        W86248  14.407   9.705  19.677
85384W        W86249  13.820   8.105  20.244
85385W        W86250  14.105   8.058  18.339
85386W        W86251  14.570   8.859  20.645
85387W        W86252  12.537  10.566  20.398
85388W        W86253  14.311  10.032  18.836
85389W        W86254  11.440  10.818  18.590
85390W        W86255  11.833  10.864  19.266
85391W        W86256  11.630   7.618  20.692
85392W        W86257  14.253   8.636  20.967
85393W        W86258  13.658   9.058  19.426
85394W        W86259  13.624   8.746  18.453
85395W        W86260  12.832   9.890  20.593
85396W        W86261  12.638   8.220  19.792
85397W        W86262  13.238  10.307  20.786
85398W        W86263  14.109   9.098  19.208
85399W        W86264  13.011   7.756  19.224
85400W        W86265  11.668  10.450  18.907
85401W        W86266  11.039   7.949  19.506
85402W        W86267  13.825   8.556  19.980
85403W        W86268  11.283  10.173  19.895
85404W        W86269  12.624  10.523  18.765
85405W        W86270  14.016   8.549  18.229
85406W        W86271  11.039  10.307  20.393
85407W        W86272  11.830   9.879  20.873
85408W        W86273  12.203   9.239  19.492
85409W        W86274  12.225   7.644  20.585
85410W        W86275  14.454   7.406  19.882
85411W        W86276  11.673   9.278  18.350
85412W        W86277  11.328   8.311  18.529
85413W        W86278  11.390  10.267  19.323
85414W        W86279  12.521   9.750  19.571
85415W        W86280  13.853  10.609  21.285
85416W        W86281  12.779   8.251  18.969
85417W        W86282  14.162  10.649  19.741
85418W        W86283  13.839   8.502  21.339
85419W        W86284  14.552  10.158  19.473
85420W        W86285  13.179   9.450  20.957
85421W        W86286  10.945   9.001  19.163
85422W        W86287  12.056   9.416  20.736
85423W        W86288  13.260   8.680  19.114
85424W        W86289  13.137   9.170  19.218
85425W        W86290  11.480   8.590  20.692
85426W        W86291  11.465   8.466  21.614
85427W        W86292  11.355   7.383  19.773
85428W        W86293  13.123   7.730  20.334
85429W        W86294  12.771   7.915  21.497
85430W        W86295  13.126   8.064  18.675
85431W        W86296  14.309  10.457  21.429
85432W        W86297  13.276   7.538  21.468
85433W        W86298  14.295   9.839  21.590
85434W        W86299  13.725   8.006  21.186
85435W        W86300  13.525   7.944  19.456
85436W        W86301  13.918   9.078  21.860
85437W        W86302  11.658  10.654  19.846
85438W        W86303  12.316   8.371  18.832
85439W        W86304  11.885   7.655  21.496
85440W        W86305  13.937   8.139  19.177
85441W        W86306  14.304   8.621  19.122
85442W        W86307  12.047  10.838  21.593
85443W        W86308  11.973   7.374  18.828
85444W        W86309  14.294   7.908  19.863
85445W        W86310  14.444  10.157  18.308
85446W        W86311  11.351   9.360  20.010
85447W        W86312  13.268   7.947  18.240
85448W        W86313  14.402  10.279  19.960
85449W        W86314  14.441   7.473  20.710
85450W        W86315  12.886   8.685  21.264
85451W        W86316  12.979  10.024  18.967
85452W        W86317  13.379   9.318  21.707
85453W        W86318  13.053   7.295  20.016
85454W        W86319  11.665   8.198  20.079
85455W        W86320  11.219   9.398  20.853
85456W        W86321  13.078  10.591  19.559
85457W        W86322  14.272   8.188  20.431
85458W        W86323  12.909  10.535  21.198
85459W        W86324  14.252   9.594  18.403
85460W        W86325  12.687   9.077  19.464
85461W        W86326  14.539   7.588  21.205
85462W        W86327  12.688   9.423  20.799
85463W        W86328  12.905   8.309  20.244
85464W        W86329  13.757   8.607  19.082
85465W        W86330  14.044   8.340  18.724
85466W        W86331  13.853  10.380  19.113
85467W        W86332  13.687   9.983  19.909
85468W        W86333  13.583   9.062  18.887
85469W        W86334  13.016   9.272  19.873
85470W        W86335  13.897   9.060  19.940
85471W        W86336  11.272   8.075  20.364
85472W        W86337  14.050   9.127  21.191
85473W        W86338  14.401  10.745  20.337
85474W        W86339  12.331  10.189  19.739
85475W        W86340  13.338  10.722  21.063
85476W        W86341  13.332   8.052  20.827
85477W        W86342  12.539  10.760  20.888
85478W        W86343  14.236   7.714  19.354
85479W        W86344  14.027   9.033  20.655
85480W        W86345  11.010   8.354  20.693
85481W        W86346  13.870   8.149  19.711
85482W        W86347  14.281   8.300  21.488
85483W        W86348  13.166   9.999  19.706
85484W        W86349  12.422  10.590  19.319
85485W        W86350  11.537   7.770  18.577
85486W        W86351  12.641   7.424  20.387
85487W        W86352  11.669  10.544  18.235
85488W        W86353  12.043   9.010  18.986
85489W        W86354  12.697   9.639  21.299
85490W        W86355  12.527   7.997  19.289
85491W        W86356  13.883   7.594  19.717
85492W        W86357  13.603  10.876  20.045
85493W        W86358  13.015  10.524  20.385
85494W        W86359  12.411   9.561  20.346
85495W        W86360  14.181  10.284  20.472
85496W        W86361  11.875   7.787  19.241
85497W        W86362  12.397  10.084  20.201
85498W        W86363  11.880   8.015  18.266
85499W        W86364  12.681   8.624  20.660
85500W        W86365  13.529   7.490  20.530
85501W        W86366  10.949   9.333  20.415
85502W        W86367  12.653   9.151  18.573
85503W        W86368  11.921   7.466  18.343
85504W        W86369  12.659   8.547  19.394
85505W        W86370  13.629   7.523  21.093
85506W        W86371  12.217   9.535  21.202
85507W        W86372  13.021   9.317  21.419
85508W        W86373  13.638   9.347  21.312
85509W        W86374  12.922   7.487  21.817
85510W        W86375  12.144   8.103  20.210
85511W        W86376  11.570   8.059  19.608
85512W        W86377  11.356  10.771  19.284
85513W        W86378  12.688  10.101  21.409
85514W        W86379  11.723   9.586  18.768
85515W        W86380  13.403   8.971  19.989
85516W        W86381  13.683   8.770  20.388
85517W        W86382  12.888   9.444  20.322
85518W        W86383  13.358   9.818  18.454
85519W        W86384  13.030   7.839  19.782
85520W        W86385  14.509   8.117  19.050
85521W        W86386  11.003  10.706  21.081
85522W        W86387  11.420   9.932  20.613
85523W        W86388  10.987  10.778  18.845
85524W        W86389  12.886   8.048  20.651
85525W        W86390  12.249  10.071  18.500
85526W        W86391  14.154  10.453  18.686
85527W        W86392  13.129   9.106  18.700
85528W        W86393  11.972   8.297  19.217
85529W        W86394  12.804   8.207  18.269
85530W        W86395  13.388   9.772  21.447
85531W        W86396  13.741   7.678  19.064
85532W        W86397  11.071   7.526  18.512
85533W        W86398  12.357   9.845  20.802
85534W        W86399  12.156   9.761  19.894
85535W        W86400  11.898   9.713  18.292
85536W        W86401  11.139   9.954  19.060
85537W        W86402  11.643   9.024  21.502
85538W        W86403  12.347   7.584  21.688
85539W        W86404  13.056   7.726  21.044
85540W        W86405  12.251   7.494  19.325
85541W        W86406  13.310   7.571  18.830
85542W        W86407  11.255   7.503  20.407
85543W        W86408  11.303   8.466  19.777
85544W        W86409  13.992   7.574  20.183
85545W        W86410  11.414   8.072  18.997
85546W        W86411  13.985   7.760  20.613
85547W        W86412  14.381   8.963  18.298
85548W        W86413  11.673   7.721  20.117
85549W        W86414  12.787   8.293  21.057
85550W        W86415  10.935   7.983  18.535
85551W        W86416  11.721   9.372  21.096
85552W        W86417  13.079   8.770  20.275
85553W        W86418  12.946  10.849  18.571
85554W        W86419  11.092   9.356  18.268
85555W        W86420  11.827   9.767  21.394
85556W        W86421  11.348   8.934  21.025
85557W        W86422  12.339   9.039  20.819
85558W        W86423  14.107   7.398  21.081
85559W        W86424  14.505   9.008  21.072
85560W        W86425  14.493   9.208  18.758
85561W        W86426  13.356   9.540  18.857
85562W        W86427  13.830  10.840  18.552
85563W        W86428  13.007   8.830  21.694
85564W        W86429  11.337   9.797  21.734
85565W        W86430  14.543   7.719  21.686
85566W        W86431  14.261   8.647  20.307
85567W        W86432  12.569  10.777  21.784
85568W        W86433  12.424   7.406  18.511
85569W        W86434  13.963  10.005  18.454
85570W        W86435  11.732   8.098  21.340
85571W        W86436  12.166  10.092  21.202
85572W        W86437  14.292   8.083  21.000
85573W        W86438  13.503  10.742  18.968
85574W        W86439  13.742   9.361  20.335
85575W        W86440  11.992   7.777  21.002
85576W        W86441  12.461   8.846  21.759
85577W        W86442  11.964  10.025  18.953
85578W        W86443  13.719   9.523  19.217
85579W        W86444  11.487   8.149  20.941
85580W        W86445  12.816  10.211  19.405
85581W        W86446  14.566   8.771  19.586
85582W        W86447  12.788   7.404  21.305
85583W        W86448  13.568  10.109  20.384
85584W        W86449  13.871  10.453  20.092
85585W        W86450  13.090  10.255  18.520
85586W        W86451  11.100  10.147  21.362
85587W        W86452  11.843   8.139  20.600
85588W        W86453  11.813   7.487  19.710
85589W        W86454  13.434   8.329  20.402
85590W        W86455  12.232   9.500  18.602
85591W        W86456  14.230   9.442  20.101
85592W        W86457  11.557  10.200  21.524
85593W        W86458  13.944  10.882  19.321
85594W        W86459  12.043   7.902  19.766
85595W        W86460  11.812   9.395  19.856
85596W        W86461  12.125  10.806  20.606
85597W        W86462  14.192  10.902  21.638
85598W        W86463  13.351   9.090  20.571
85599W        W86464  11.200   8.888  18.486
85600W        W86465  14.334  10.546  19.183
85601W        W86466  14.171   7.870  18.802
85602W        W86467  12.310   7.389  21.205
85603W        W86468  14.016  10.191  19.663
85604W        W86469  14.045   8.747  19.568
85605W        W86470  12.162   8.420  19.784
85606W        W86471  12.407   8.682  21.108
85607W        W86472  13.518   9.835  20.971
85608W        W86473  12.168   8.289  21.083
85609W        W86474  12.147  10.755  19.699
85610W        W86475  11.464  10.714  21.333
85611W        W86476  11.576  10.075  18.463
85612W        W86477  14.093   9.833  19.273
85613W        W86478  11.697   8.625  21.159
85614W        W86479  14.470   8.555  18.640
85615W        W86480  12.215   9.612  19.111
85616W        W86481  13.314   8.994  21.192
85617W        W86482  13.205   8.622  20.736
85618W        W86483  11.765   8.994  20.765
85619W        W86484  13.975  10.882  20.594
85620W        W86485  13.766   7.516  21.588
85621W        W86486  11.430   7.666  21.175
85622W        W86487  11.769   8.689  20.228
85623W        W86488  12.138   8.503  18.350
85624W        W86489  10.941  10.262  20.895
85625W        W86490  12.526   8.971  20.338
85626W        W86491  12.349   7.996  18.443
85627W        W86492  11.484   8.812  19.224
85628W        W86493  11.255  10.664  20.661
85629W        W86494  14.050   8.890  18.769
85630W        W86495  14.145   7.806  21.455
85631W        W86496  13.581  10.015  19.418
85632W        W86497  11.179   8.939  21.595
85633W        W86498  14.145   7.403  18.891
85634W        W86499  13.665   9.878  18.902
85635W        W86500  12.567   8.936  18.987
85636W        W86501  13.754   7.740  18.510
85637W        W86502  13.819   8.347  20.696
85638W        W86503  11.528   8.940  19.903
85639W        W86504  11.822   9.879  19.552
85640W        W86505  13.585   8.499  19.517
85641W        W86506  12.608   7.878  20.213
85642W        W86507  14.570   9.789  20.724
85643W        W86508  14.488   7.776  20.285
85644W        W86509  11.027  10.606  19.661
85645W        W86510  11.536   9.793  19.197
85646W        W86511  11.451   7.410  21.750
85647W        W86512  12.570  10.263  21.852
85648W        W86513  14.325   9.231  19.642
85649W        W86514  13.679   9.408  18.522
85650W        W86515  12.974  10.929  20.734
85651W        W86516  13.831   9.651  21.771
85652W        W86517  12.646   7.361  19.051
85653W        W86518  13.359   8.230  19.910
85654W        W86519  11.045   9.817  20.242
85655W        W86520  12.298   7.779  18.883
85656W        W86521  12.102   9.263  21.732
85657W        W86522  13.096   8.244  19.446
85658W        W86523  13.301   9.654  20.568
85659W        W86524  11.455  10.259  21.003
85660W        W86525  12.046  10.242  21.726
85661W        W86526  11.897   8.039  18.740
85662W        W86527  13.414   8.181  19.065
85663W        W86528  13.372  10.289  21.302
85664W        W86529  12.057   8.881  19.901
85665W        W86530  11.712  10.579  20.766
85666W        W86531  14.457  10.696  18.367
85667W        W86532  11.320   9.368  21.363
85668W        W86533  13.315   9.630  20.051
85669W        W86534  11.751   9.279  19.293
85670W        W86535  12.122  10.286  20.688
85671W        W86536  12.500   7.705  19.729
85672W        W86537  11.111   9.689  18.659
85673W        W86538  12.630   8.640  18.529
85674W        W86539  11.276   9.189  19.548
85675W        W86540  12.566   7.831  21.012
85676W        W86541  14.238   7.540  18.439
85677W        W86542  14.331   9.286  21.538
85678W        W86543  12.985  10.543  21.690
85679W        W86544  14.543   9.637  21.212
85680W        W86545  13.951  10.435  21.823
85681W        W86546  11.690  10.891  20.301
85682W        W86547  14.549   9.513  19.175
85683W        W86548  13.079   8.780  19.688
85684W        W86549  12.846   7.392  19.578
85685W        W86550  11.905  10.376  19.415
85686W        W86551  12.404   8.117  20.640
85687W        W86552  12.104   7.486  20.109
85688W        W86553  11.167  10.308  18.657
85689W        W86554  12.983   9.672  19.375
85690W        W86555  11.858  10.467  21.254
85691W        W86556  11.335   9.290  18.950
85692W        W86557  11.220   7.833  19.949
85693W        W86558  12.768   9.798  20.006
85694W        W86559  11.020   7.652  19.026
85695W        W86560  13.684   8.858  20.953
85696W        W86561  13.561   8.244  18.525
85697W        W86562  14.078   9.916  20.173
85698W        W86563  12.739  10.400  20.004
85699W        W86564  12.151  10.504  18.915
85700W        W86565  13.433   7.407  18.345
85701W        W86566  11.233  10.667  20.086
85702W        W86567  13.430   8.425  21.721
85703W        W86568  11.413   7.955  21.720
85704W        W86569  11.144   8.555  19.053
85705W        W86570  11.835   8.544  18.778
85706W        W86571  13.598   8.871  21.595
85707W        W86572  11.941   9.152  20.304
85708W        W86573  13.415   7.438  19.424
85709W        W86574  12.546  10.869  19.927
85710W        W86575  13.760  10.331  20.864
85711W        W86576  13.344  10.480  19.975
85712W        W86577  13.363   9.460  19.569
85713W        W86578  12.825   7.685  18.640
85714W        W86579  14.506   7.313  19.362
85715W        W86580  12.194   8.948  18.525
85716W        W86581  14.360   8.285  19.515
85717W        W86582  13.052   9.455  18.392
85718W        W86583  13.988   9.655  21.140
85719W        W86584  13.642  10.356  18.607
85720W        W86585  12.257   8.031  21.513
85721W        W86586  12.077   8.615  20.754
85722W        W86587  14.169  10.110  21.031
85723W        W86588  13.269   8.060  21.408
85724W        W86589  11.113   8.531  21.185
85725W        W86590  12.873   9.008  20.911
85726W        W86591  11.230   9.766  19.568
85727W        W86592  11.377   9.063  20.458
85728W        W86593  13.694   9.349  20.808
85729W        W86594  13.466  10.729  21.619
85730W        W86595  13.362   8.468  21.172
85731W        W86596  13.639  10.522  19.577
85732W        W86597  12.641  10.242  20.900
85733W        W86598  12.126  10.597  20.169
85734W        W86599  13.931   9.768  20.588
85735W        W86600  12.981   9.840  21.725
85736W        W86601  11.586   9.793  20.064
85737W        W86602  13.932   9.552  19.709
85738W        W86603  13.573  10.618  20.460
85739W        W86604  11.551  10.347  20.330
85740W        W86605  12.572   8.399  21.540
85741W        W86606  13.023  10.565  19.051
85742W        W86607  12.331   9.820  21.689
85743W        W86608  12.457  10.058  19.066
85744W        W86609  11.678   8.798  18.325
85745W        W86610  11.017  10.884  25.225
85746W        W86611  11.393   9.777  24.748
85747W        W86612  14.098   9.507  22.518
85748W        W86613  14.228  10.592  24.545
85749W        W86614  12.146  10.583  22.071
85750W        W86615  12.229   8.735  23.054
85751W        W86616  11.744   8.583  23.218
85752W        W86617  12.735   9.398  22.652
85753W        W86618  12.410  10.490  25.007
85754W        W86619  11.059   8.051  24.970
85755W        W86620  11.821   7.331  24.772
85756W        W86621  13.515   7.719  23.659
85757W        W86622  13.164   8.590  22.229
85758W        W86623  13.734   8.024  25.320
85759W        W86624  11.100   7.816  24.445
85760W        W86625  11.199  10.435  25.466
85761W        W86626  12.721   9.825  22.198
85762W        W86627  11.153   8.608  23.891
85763W        W86628  12.046   8.499  25.128
85764W        W86629  14.505   8.358  23.627
85765W        W86630  14.269   9.401  24.486
85766W        W86631  12.577   8.734  23.513
85767W        W86632  13.123  10.073  23.882
85768W        W86633  11.623   9.507  24.114
85769W        W86634  10.982   9.035  23.685
85770W        W86635  12.018   9.007  24.877
85771W        W86636  14.289   8.790  25.131
85772W        W86637  11.905  10.234  23.576
85773W        W86638  13.026   9.923  24.710
85774W        W86639  12.246   8.563  23.935
85775W        W86640  12.538   9.347  23.578
85776W        W86641  13.535  10.120  25.426
85777W        W86642  12.614   9.440  25.436
85778W        W86643  12.595   9.156  24.914
85779W        W86644  11.004   8.547  25.436
85780W        W86645  13.836  10.082  25.035
85781W        W86646  11.417   7.664  23.033
85782W        W86647  11.944   9.922  24.032
85783W        W86648  14.407   9.705  23.322
85784W        W86649  13.820   8.105  23.889
85785W        W86650  14.105   8.058  21.984
85786W        W86651  14.570   8.859  24.290
85787W        W86652  12.537  10.566  24.043
85788W        W86653  14.311  10.032  22.481
85789W        W86654  11.440  10.818  22.235
85790W        W86655  11.833  10.864  22.911
85791W        W86656  11.630   7.618  24.337
85792W        W86657  14.253   8.636  24.612
85793W        W86658  13.658   9.058  23.071
85794W        W86659  13.624   8.746  22.098
85795W        W86660  12.832   9.890  24.238
85796W        W86661  12.638   8.220  23.437
85797W        W86662  13.238  10.307  24.431
85798W        W86663  14.109   9.098  22.853
85799W        W86664  13.011   7.756  22.869
85800W        W86665  11.668  10.450  22.552
85801W        W86666  11.039   7.949  23.151
85802W        W86667  13.825   8.556  23.625
85803W        W86668  11.283  10.173  23.540
85804W        W86669  12.624  10.523  22.410
85805W        W86670  14.016   8.549  21.874
85806W        W86671  11.039  10.307  24.038
85807W        W86672  11.830   9.879  24.518
85808W        W86673  12.203   9.239  23.137
85809W        W86674  12.225   7.644  24.230
85810W        W86675  14.454   7.406  23.527
85811W        W86676  11.673   9.278  21.995
85812W        W86677  11.328   8.311  22.174
85813W        W86678  11.390  10.267  22.968
85814W        W86679  12.521   9.750  23.216
85815W        W86680  13.853  10.609  24.930
85816W        W86681  12.779   8.251  22.614
85817W        W86682  14.162  10.649  23.386
85818W        W86683  13.839   8.502  24.984
85819W        W86684  14.552  10.158  23.118
85820W        W86685  13.179   9.450  24.602
85821W        W86686  10.945   9.001  22.808
85822W        W86687  12.056   9.416  24.381
85823W        W86688  13.260   8.680  22.759
85824W        W86689  13.137   9.170  22.863
85825W        W86690  11.480   8.590  24.337
85826W        W86691  11.465   8.466  25.259
85827W        W86692  11.355   7.383  23.418
85828W        W86693  13.123   7.730  23.979
85829W        W86694  12.771   7.915  25.142
85830W        W86695  13.126   8.064  22.320
85831W        W86696  14.309  10.457  25.074
85832W        W86697  13.276   7.538  25.113
85833W        W86698  14.295   9.839  25.235
85834W        W86699  13.725   8.006  24.831
85835W        W86700  13.525   7.944  23.101
85836W        W86701  13.918   9.078  25.505
85837W        W86702  11.658  10.654  23.491
85838W        W86703  12.316   8.371  22.477
85839W        W86704  11.885   7.655  25.141
85840W        W86705  13.937   8.139  22.822
85841W        W86706  14.304   8.621  22.767
85842W        W86707  12.047  10.838  25.238
85843W        W86708  11.973   7.374  22.473
85844W        W86709  14.294   7.908  23.508
85845W        W86710  14.444  10.157  21.953
85846W        W86711  11.351   9.360  23.655
85847W        W86712  13.268   7.947  21.885
85848W        W86713  14.402  10.279  23.605
85849W        W86714  14.441   7.473  24.355
85850W        W86715  12.886   8.685  24.909
85851W        W86716  12.979  10.024  22.612
85852W        W86717  13.379   9.318  25.352
85853W        W86718  13.053   7.295  23.661
85854W        W86719  11.665   8.198  23.724
85855W        W86720  11.219   9.398  24.498
85856W        W86721  13.078  10.591  23.204
85857W        W86722  14.272   8.188  24.076
85858W        W86723  12.909  10.535  24.843
85859W        W86724  14.252   9.594  22.048
85860W        W86725  12.687   9.077  23.109
85861W        W86726  14.539   7.588  24.850
85862W        W86727  12.688   9.423  24.444
85863W        W86728  12.905   8.309  23.889
85864W        W86729  13.757   8.607  22.727
85865W        W86730  14.044   8.340  22.369
85866W        W86731  13.853  10.380  22.758
85867W        W86732  13.687   9.983  23.554
85868W        W86733  13.583   9.062  22.532
85869W        W86734  13.016   9.272  23.518
85870W        W86735  13.897   9.060  23.585
85871W        W86736  11.272   8.075  24.009
85872W        W86737  14.050   9.127  24.836
85873W        W86738  14.401  10.745  23.982
85874W        W86739  12.331  10.189  23.384
85875W        W86740  13.338  10.722  24.708
85876W        W86741  13.332   8.052  24.472
85877W        W86742  12.539  10.760  24.533
85878W        W86743  14.236   7.714  22.999
85879W        W86744  14.027   9.033  24.300
85880W        W86745  11.010   8.354  24.338
85881W        W86746  13.870   8.149  23.356
85882W        W86747  14.281   8.300  25.133
85883W        W86748  13.166   9.999  23.351
85884W        W86749  12.422  10.590  22.964
85885W        W86750  11.537   7.770  22.222
85886W        W86751  12.641   7.424  24.032
85887W        W86752  11.669  10.544  21.880
85888W        W86753  12.043   9.010  22.631
85889W        W86754  12.697   9.639  24.944
85890W        W86755  12.527   7.997  22.934
85891W        W86756  13.883   7.594  23.362
85892W        W86757  13.603  10.876  23.690
85893W        W86758  13.015  10.524  24.030
85894W        W86759  12.411   9.561  23.991
85895W        W86760  14.181  10.284  24.117
85896W        W86761  11.875   7.787  22.886
85897W        W86762  12.397  10.084  23.846
85898W        W86763  11.880   8.015  21.911
85899W        W86764  12.681   8.624  24.305
85900W        W86765  13.529   7.490  24.175
85901W        W86766  10.949   9.333  24.060
85902W        W86767  12.653   9.151  22.218
85903W        W86768  11.921   7.466  21.988
85904W        W86769  12.659   8.547  23.039
85905W        W86770  13.629   7.523  24.738
85906W        W86771  12.217   9.535  24.847
85907W        W86772  13.021   9.317  25.064
85908W        W86773  13.638   9.347  24.957
85909W        W86774  12.922   7.487  25.462
85910W        W86775  12.144   8.103  23.855
85911W        W86776  11.570   8.059  23.253
85912W        W86777  11.356  10.771  22.929
85913W        W86778  12.688  10.101  25.054
85914W        W86779  11.723   9.586  22.413
85915W        W86780  13.403   8.971  23.634
85916W        W86781  13.683   8.770  24.033
85917W        W86782  12.888   9.444  23.967
85918W        W86783  13.358   9.818  22.099
85919W        W86784  13.030   7.839  23.427
85920W        W86785  14.509   8.117  22.695
85921W        W86786  11.003  10.706  24.726
85922W        W86787  11.420   9.932  24.258
85923W        W86788  10.987  10.778  22.490
85924W        W86789  12.886   8.048  24.296
85925W        W86790  12.249  10.071  22.145
85926W        W86791  14.154  10.453  22.331
85927W        W86792  13.129   9.106  22.345
85928W        W86793  11.972   8.297  22.862
85929W        W86794  12.804   8.207  21.914
85930W        W86795  13.388   9.772  25.092
85931W        W86796  13.741   7.678  22.709
85932W        W86797  11.071   7.526  22.157
85933W        W86798  12.357   9.845  24.447
85934W        W86799  12.156   9.761  23.539
85935W        W86800  11.898   9.713  21.937
85936W        W86801  11.139   9.954  22.705
85937W        W86802  11.643   9.024  25.147
85938W        W86803  12.347   7.584  25.333
85939W        W86804  13.056   7.726  24.689
85940W        W86805  12.251   7.494  22.970
85941W        W86806  13.310   7.571  22.475
85942W        W86807  11.255   7.503  24.052
85943W        W86808  11.303   8.466  23.422
85944W        W86809  13.992   7.574  23.828
85945W        W86810  11.414   8.072  22.642
85946W        W86811  13.985   7.760  24.258
85947W        W86812  14.381   8.963  21.943
85948W        W86813  11.673   7.721  23.762
85949W        W86814  12.787   8.293  24.702
85950W        W86815  10.935   7.983  22.180
85951W        W86816  11.721   9.372  24.741
85952W        W86817  13.079   8.770  23.920
85953W        W86818  12.946  10.849  22.216
85954W        W86819  11.092   9.356  21.913
85955W        W86820  11.827   9.767  25.039
85956W        W86821  11.348   8.934  24.670
85957W        W86822  12.339   9.039  24.464
85958W        W86823  14.107   7.398  24.726
85959W        W86824  14.505   9.008  24.717
85960W        W86825  14.493   9.208  22.403
85961W        W86826  13.356   9.540  22.502
85962W        W86827  13.830  10.840  22.197
85963W        W86828  13.007   8.830  25.339
85964W        W86829  11.337   9.797  25.379
85965W        W86830  14.543   7.719  25.331
85966W        W86831  14.261   8.647  23.952
85967W        W86832  12.569  10.777  25.429
85968W        W86833  12.424   7.406  22.156
85969W        W86834  13.963  10.005  22.099
85970W        W86835  11.732   8.098  24.985
85971W        W86836  12.166  10.092  24.847
85972W        W86837  14.292   8.083  24.645
85973W        W86838  13.503  10.742  22.613
85974W        W86839  13.742   9.361  23.980
85975W        W86840  11.992   7.777  24.647
85976W        W86841  12.461   8.846  25.404
85977W        W86842  11.964  10.025  22.598
85978W        W86843  13.719   9.523  22.862
85979W        W86844  11.487   8.149  24.586
85980W        W86845  12.816  10.211  23.050
85981W        W86846  14.566   8.771  23.231
85982W        W86847  12.788   7.404  24.950
85983W        W86848  13.568  10.109  24.029
85984W        W86849  13.871  10.453  23.737
85985W        W86850  13.090  10.255  22.165
85986W        W86851  11.100  10.147  25.007
85987W        W86852  11.843   8.139  24.245
85988W        W86853  11.813   7.487  23.355
85989W        W86854  13.434   8.329  24.047
85990W        W86855  12.232   9.500  22.247
85991W        W86856  14.230   9.442  23.746
85992W        W86857  11.557  10.200  25.169
85993W        W86858  13.944  10.882  22.966
85994W        W86859  12.043   7.902  23.411
85995W        W86860  11.812   9.395  23.501
85996W        W86861  12.125  10.806  24.251
85997W        W86862  14.192  10.902  25.283
85998W        W86863  13.351   9.090  24.216
85999W        W86864  11.200   8.888  22.131
86000W        W86865  14.334  10.546  22.828
86001W        W86866  14.171   7.870  22.447
86002W        W86867  12.310   7.389  24.850
86003W        W86868  14.016  10.191  23.308
86004W        W86869  14.045   8.747  23.213
86005W        W86870  12.162   8.420  23.429
86006W        W86871  12.407   8.682  24.753
86007W        W86872  13.518   9.835  24.616
86008W        W86873  12.168   8.289  24.728
86009W        W86874  12.147  10.755  23.344
86010W        W86875  11.464  10.714  24.978
86011W        W86876  11.576  10.075  22.108
86012W        W86877  14.093   9.833  22.918
86013W        W86878  11.697   8.625  24.804
86014W        W86879  14.470   8.555  22.285
86015W        W86880  12.215   9.612  22.756
86016W        W86881  13.314   8.994  24.837
86017W        W86882  13.205   8.622  24.381
86018W        W86883  11.765   8.994  24.410
86019W        W86884  13.975  10.882  24.239
86020W        W86885  13.766   7.516  25.233
86021W        W86886  11.430   7.666  24.820
86022W        W86887  11.769   8.689  23.873
86023W        W86888  12.138   8.503  21.995
86024W        W86889  10.941  10.262  24.540
86025W        W86890  12.526   8.971  23.983
86026W        W86891  12.349   7.996  22.088
86027W        W86892  11.484   8.812  22.869
86028W        W86893  11.255  10.664  24.306
86029W        W86894  14.050   8.890  22.414
86030W        W86895  14.145   7.806  25.100
86031W        W86896  13.581  10.015  23.063
86032W        W86897  11.179   8.939  25.240
86033W        W86898  14.145   7.403  22.536
86034W        W86899  13.665   9.878  22.547
86035W        W86900  12.567   8.936  22.632
86036W        W86901  13.754   7.740  22.155
86037W        W86902  13.819   8.347  24.341
86038W        W86903  11.528   8.940  23.548
86039W        W86904  11.822   9.879  23.197
86040W        W86905  13.585   8.499  23.162
86041W        W86906  12.608   7.878  23.858
86042W        W86907  14.570   9.789  24.369
86043W        W86908  14.488   7.776  23.930
86044W        W86909  11.027  10.606  23.306
86045W        W86910  11.536   9.793  22.842
86046W        W86911  11.451   7.410  25.395
86047W        W86912  12.570  10.263  25.497
86048W        W86913  14.325   9.231  23.287
86049W        W86914  13.679   9.408  22.167
86050W        W86915  12.974  10.929  24.379
86051W        W86916  13.831   9.651  25.416
86052W        W86917  12.646   7.361  22.696
86053W        W86918  13.359   8.230  23.555
86054W        W86919  11.045   9.817  23.887
86055W        W86920  12.298   7.779  22.528
86056W        W86921  12.102   9.263  25.377
86057W        W86922  13.096   8.244  23.091
86058W        W86923  13.301   9.654  24.213
86059W        W86924  11.455  10.259  24.648
86060W        W86925  12.046  10.242  25.371
86061W        W86926  11.897   8.039  22.385
86062W        W86927  13.414   8.181  22.710
86063W        W86928  13.372  10.289  24.947
86064W        W86929  12.057   8.881  23.546
86065W        W86930  11.712  10.579  24.411
86066W        W86931  14.457  10.696  22.012
86067W        W86932  11.320   9.368  25.008
86068W        W86933  13.315   9.630  23.696
86069W        W86934  11.751   9.279  22.938
86070W        W86935  12.122  10.286  24.333
86071W        W86936  12.500   7.705  23.374
86072W        W86937  11.111   9.689  22.304
86073W        W86938  12.630   8.640  22.174
86074W        W86939  11.276   9.189  23.193
86075W        W86940  12.566   7.831  24.657
86076W        W86941  14.238   7.540  22.084
86077W        W86942  14.331   9.286  25.183
86078W        W86943  12.985  10.543  25.335
86079W        W86944  14.543   9.637  24.857
86080W        W86945  13.951  10.435  25.468
86081W        W86946  11.690  10.891  23.946
86082W        W86947  14.549   9.513  22.820
86083W        W86948  13.079   8.780  23.333
86084W        W86949  12.846   7.392  23.223
86085W        W86950  11.905  10.376  23.060
86086W        W86951  12.404   8.117  24.285
86087W        W86952  12.104   7.486  23.754
86088W        W86953  11.167  10.308  22.302
86089W        W86954  12.983   9.672  23.020
86090W        W86955  11.858  10.467  24.899
86091W        W86956  11.335   9.290  22.595
86092W        W86957  11.220   7.833  23.594
86093W        W86958  12.768   9.798  23.651
86094W        W86959  11.020   7.652  22.671
86095W        W86960  13.684   8.858  24.598
86096W        W86961  13.561   8.244  22.170
86097W        W86962  14.078   9.916  23.818
86098W        W86963  12.739  10.400  23.649
86099W        W86964  12.151  10.504  22.560
86100W        W86965  13.433   7.407  21.990
86101W        W86966  11.233  10.667  23.731
86102W        W86967  13.430   8.425  25.366
86103W        W86968  11.413   7.955  25.365
86104W        W86969  11.144   8.555  22.698
86105W        W86970  11.835   8.544  22.423
86106W        W86971  13.598   8.871  25.240
86107W        W86972  11.941   9.152  23.949
86108W        W86973  13.415   7.438  23.069
86109W        W86974  12.546  10.869  23.572
86110W        W86975  13.760  10.331  24.509
86111W        W86976  13.344  10.480  23.620
86112W        W86977  13.363   9.460  23.214
86113W        W86978  12.825   7.685  22.285
86114W        W86979  14.506   7.313  23.007
86115W        W86980  12.194   8.948  22.170
86116W        W86981  14.360   8.285  23.160
86117W        W86982  13.052   9.455  22.037
86118W        W86983  13.988   9.655  24.785
86119W        W86984  13.642  10.356  22.252
86120W        W86985  12.257   8.031  25.158
86121W        W86986  12.077   8.615  24.399
86122W        W86987  14.169  10.110  24.676
86123W        W86988  13.269   8.060  25.053
86124W        W86989  11.113   8.531  24.830
86125W        W86990  12.873   9.008  24.556
86126W        W86991  11.230   9.766  23.213
86127W        W86992  11.377   9.063  24.103
86128W        W86993  13.694   9.349  24.453
86129W        W86994  13.466  10.729  25.264
86130W        W86995  13.362   8.468  24.817
86131W        W86996  13.639  10.522  23.222
86132W        W86997  12.641  10.242  24.545
86133W        W86998  12.126  10.597  23.814
86134W        W86999  13.931   9.768  24.233
86135W        W87000  12.981   9.840  25.370
86136W        W87001  11.586   9.793  23.709
86137W        W87002  13.932   9.552  23.354
86138W        W87003  13.573  10.618  24.105
86139W        W87004  11.551  10.347  23.975
86140W        W87005  12.572   8.399  25.185
86141W        W87006  13.023  10.565  22.696
86142W        W87007  12.331   9.820  25.334
86143W        W87008  12.457  10.058  22.711
86144W        W87009  11.678   8.798  21.970
86145W        W87010  11.017  10.884  28.869
86146W        W87011  14.098   9.507  26.162
86147W        W87012  14.228  10.592  28.189
86148W        W87013  12.146  10.583  25.715
86149W        W87014  12.229   8.735  26.698
86150W        W87015  11.744   8.583  26.862
86151W        W87016  12.735   9.398  26.296
86152W        W87017  12.410  10.490  28.651
86153W        W87018  11.059   8.051  28.614
86154W        W87019  11.821   7.331  28.416
86155W        W87020  13.515   7.719  27.303
86156W        W87021  13.164   8.590  25.873
86157W        W87022  13.734   8.024  28.964
86158W        W87023  11.100   7.816  28.089
86159W        W87024  11.199  10.435  29.110
86160W        W87025  12.721   9.825  25.842
86161W        W87026  11.153   8.608  27.535
86162W        W87027  12.046   8.499  28.772
86163W        W87028  14.505   8.358  27.271
86164W        W87029  14.269   9.401  28.130
86165W        W87030  12.577   8.734  27.157
86166W        W87031  13.123  10.073  27.526
86167W        W87032  11.623   9.507  27.758
86168W        W87033  10.982   9.035  27.329
86169W        W87034  12.018   9.007  28.521
86170W        W87035  14.289   8.790  28.775
86171W        W87036  11.905  10.234  27.220
86172W        W87037  13.026   9.923  28.354
86173W        W87038  12.246   8.563  27.579
86174W        W87039  12.538   9.347  27.222
86175W        W87040  13.535  10.120  29.070
86176W        W87041  12.614   9.440  29.080
86177W        W87042  12.595   9.156  28.558
86178W        W87043  11.004   8.547  29.080
86179W        W87044  13.836  10.082  28.679
86180W        W87045  11.417   7.664  26.677
86181W        W87046  11.944   9.922  27.676
86182W        W87047  14.407   9.705  26.966
86183W        W87048  13.820   8.105  27.533
86184W        W87049  14.105   8.058  25.628
86185W        W87050  14.570   8.859  27.934
86186W        W87051  12.537  10.566  27.687
86187W        W87052  14.311  10.032  26.125
86188W        W87053  11.440  10.818  25.879
86189W        W87054  11.833  10.864  26.555
86190W        W87055  11.630   7.618  27.981
86191W        W87056  14.253   8.636  28.256
86192W        W87057  13.658   9.058  26.715
86193W        W87058  13.624   8.746  25.742
86194W        W87059  12.832   9.890  27.882
86195W        W87060  12.638   8.220  27.081
86196W        W87061  13.238  10.307  28.075
86197W        W87062  14.109   9.098  26.497
86198W        W87063  13.011   7.756  26.513
86199W        W87064  11.668  10.450  26.196
86200W        W87065  11.039   7.949  26.795
86201W        W87066  13.825   8.556  27.269
86202W        W87067  11.283  10.173  27.184
86203W        W87068  12.624  10.523  26.054
86204W        W87069  14.016   8.549  25.518
86205W        W87070  11.039  10.307  27.682
86206W        W87071  11.830   9.879  28.162
86207W        W87072  12.203   9.239  26.781
86208W        W87073  12.225   7.644  27.874
86209W        W87074  14.454   7.406  27.171
86210W        W87075  11.673   9.278  25.639
86211W        W87076  11.328   8.311  25.818
86212W        W87077  11.390  10.267  26.612
86213W        W87078  12.521   9.750  26.860
86214W        W87079  13.853  10.609  28.574
86215W        W87080  12.779   8.251  26.258
86216W        W87081  14.162  10.649  27.030
86217W        W87082  13.839   8.502  28.628
86218W        W87083  14.552  10.158  26.762
86219W        W87084  13.179   9.450  28.246
86220W        W87085  10.945   9.001  26.452
86221W        W87086  12.056   9.416  28.025
86222W        W87087  13.260   8.680  26.403
86223W        W87088  13.137   9.170  26.507
86224W        W87089  11.480   8.590  27.981
86225W        W87090  11.465   8.466  28.903
86226W        W87091  11.355   7.383  27.062
86227W        W87092  13.123   7.730  27.623
86228W        W87093  12.771   7.915  28.786
86229W        W87094  13.126   8.064  25.964
86230W        W87095  14.309  10.457  28.718
86231W        W87096  13.276   7.538  28.757
86232W        W87097  14.295   9.839  28.879
86233W        W87098  13.725   8.006  28.475
86234W        W87099  13.525   7.944  26.745
86235W        W87100  13.918   9.078  29.149
86236W        W87101  11.658  10.654  27.135
86237W        W87102  12.316   8.371  26.121
86238W        W87103  11.885   7.655  28.785
86239W        W87104  13.937   8.139  26.466
86240W        W87105  14.304   8.621  26.411
86241W        W87106  12.047  10.838  28.882
86242W        W87107  11.973   7.374  26.117
86243W        W87108  14.294   7.908  27.152
86244W        W87109  14.444  10.157  25.597
86245W        W87110  11.351   9.360  27.299
86246W        W87111  13.268   7.947  25.529
86247W        W87112  14.402  10.279  27.249
86248W        W87113  14.441   7.473  27.999
86249W        W87114  12.886   8.685  28.553
86250W        W87115  12.979  10.024  26.256
86251W        W87116  13.379   9.318  28.996
86252W        W87117  13.053   7.295  27.305
86253W        W87118  11.665   8.198  27.368
86254W        W87119  11.219   9.398  28.142
86255W        W87120  13.078  10.591  26.848
86256W        W87121  14.272   8.188  27.720
86257W        W87122  12.909  10.535  28.487
86258W        W87123  14.252   9.594  25.692
86259W        W87124  12.687   9.077  26.753
86260W        W87125  14.539   7.588  28.494
86261W        W87126  12.688   9.423  28.088
86262W        W87127  12.905   8.309  27.533
86263W        W87128  13.757   8.607  26.371
86264W        W87129  14.044   8.340  26.013
86265W        W87130  13.853  10.380  26.402
86266W        W87131  13.687   9.983  27.198
86267W        W87132  13.583   9.062  26.176
86268W        W87133  13.016   9.272  27.162
86269W        W87134  13.897   9.060  27.229
86270W        W87135  11.272   8.075  27.653
86271W        W87136  14.050   9.127  28.480
86272W        W87137  14.401  10.745  27.626
86273W        W87138  12.331  10.189  27.028
86274W        W87139  13.338  10.722  28.352
86275W        W87140  13.332   8.052  28.116
86276W        W87141  12.539  10.760  28.177
86277W        W87142  14.236   7.714  26.643
86278W        W87143  14.027   9.033  27.944
86279W        W87144  11.010   8.354  27.982
86280W        W87145  13.870   8.149  27.000
86281W        W87146  14.281   8.300  28.777
86282W        W87147  13.166   9.999  26.995
86283W        W87148  12.422  10.590  26.608
86284W        W87149  11.537   7.770  25.866
86285W        W87150  12.641   7.424  27.676
86286W        W87151  11.669  10.544  25.524
86287W        W87152  12.043   9.010  26.275
86288W        W87153  12.697   9.639  28.588
86289W        W87154  12.527   7.997  26.578
86290W        W87155  13.883   7.594  27.006
86291W        W87156  13.603  10.876  27.334
86292W        W87157  13.015  10.524  27.674
86293W        W87158  12.411   9.561  27.635
86294W        W87159  14.181  10.284  27.761
86295W        W87160  11.875   7.787  26.530
86296W        W87161  12.397  10.084  27.490
86297W        W87162  11.880   8.015  25.555
86298W        W87163  12.681   8.624  27.949
86299W        W87164  13.529   7.490  27.819
86300W        W87165  10.949   9.333  27.704
86301W        W87166  12.653   9.151  25.862
86302W        W87167  11.921   7.466  25.632
86303W        W87168  12.659   8.547  26.683
86304W        W87169  13.629   7.523  28.382
86305W        W87170  12.217   9.535  28.491
86306W        W87171  13.021   9.317  28.708
86307W        W87172  13.638   9.347  28.601
86308W        W87173  12.922   7.487  29.106
86309W        W87174  12.144   8.103  27.499
86310W        W87175  11.570   8.059  26.897
86311W        W87176  11.356  10.771  26.573
86312W        W87177  12.688  10.101  28.698
86313W        W87178  11.723   9.586  26.057
86314W        W87179  13.403   8.971  27.278
86315W        W87180  13.683   8.770  27.677
86316W        W87181  12.888   9.444  27.611
86317W        W87182  13.358   9.818  25.743
86318W        W87183  13.030   7.839  27.071
86319W        W87184  14.509   8.117  26.339
86320W        W87185  11.003  10.706  28.370
86321W        W87186  11.420   9.932  27.902
86322W        W87187  10.987  10.778  26.134
86323W        W87188  12.886   8.048  27.940
86324W        W87189  12.249  10.071  25.789
86325W        W87190  14.154  10.453  25.975
86326W        W87191  13.129   9.106  25.989
86327W        W87192  11.972   8.297  26.506
86328W        W87193  12.804   8.207  25.558
86329W        W87194  13.388   9.772  28.736
86330W        W87195  13.741   7.678  26.353
86331W        W87196  11.071   7.526  25.801
86332W        W87197  12.357   9.845  28.091
86333W        W87198  12.156   9.761  27.183
86334W        W87199  11.898   9.713  25.581
86335W        W87200  11.139   9.954  26.349
86336W        W87201  11.643   9.024  28.791
86337W        W87202  12.347   7.584  28.977
86338W        W87203  13.056   7.726  28.333
86339W        W87204  12.251   7.494  26.614
86340W        W87205  13.310   7.571  26.119
86341W        W87206  11.255   7.503  27.696
86342W        W87207  11.303   8.466  27.066
86343W        W87208  13.992   7.574  27.472
86344W        W87209  11.414   8.072  26.286
86345W        W87210  13.985   7.760  27.902
86346W        W87211  14.381   8.963  25.587
86347W        W87212  11.673   7.721  27.406
86348W        W87213  12.787   8.293  28.346
86349W        W87214  10.935   7.983  25.824
86350W        W87215  11.721   9.372  28.385
86351W        W87216  13.079   8.770  27.564
86352W        W87217  12.946  10.849  25.860
86353W        W87218  11.092   9.356  25.557
86354W        W87219  11.827   9.767  28.683
86355W        W87220  11.348   8.934  28.314
86356W        W87221  12.339   9.039  28.108
86357W        W87222  14.107   7.398  28.370
86358W        W87223  14.505   9.008  28.361
86359W        W87224  14.493   9.208  26.047
86360W        W87225  13.356   9.540  26.146
86361W        W87226  13.830  10.840  25.841
86362W        W87227  13.007   8.830  28.983
86363W        W87228  11.337   9.797  29.023
86364W        W87229  14.543   7.719  28.975
86365W        W87230  14.261   8.647  27.596
86366W        W87231  12.569  10.777  29.073
86367W        W87232  12.424   7.406  25.800
86368W        W87233  13.963  10.005  25.743
86369W        W87234  11.732   8.098  28.629
86370W        W87235  12.166  10.092  28.491
86371W        W87236  14.292   8.083  28.289
86372W        W87237  13.503  10.742  26.257
86373W        W87238  13.742   9.361  27.624
86374W        W87239  11.992   7.777  28.291
86375W        W87240  12.461   8.846  29.048
86376W        W87241  11.964  10.025  26.242
86377W        W87242  13.719   9.523  26.506
86378W        W87243  11.487   8.149  28.230
86379W        W87244  12.816  10.211  26.694
86380W        W87245  14.566   8.771  26.875
86381W        W87246  12.788   7.404  28.594
86382W        W87247  13.568  10.109  27.673
86383W        W87248  13.871  10.453  27.381
86384W        W87249  13.090  10.255  25.809
86385W        W87250  11.100  10.147  28.651
86386W        W87251  11.843   8.139  27.889
86387W        W87252  11.813   7.487  26.999
86388W        W87253  13.434   8.329  27.691
86389W        W87254  12.232   9.500  25.891
86390W        W87255  14.230   9.442  27.390
86391W        W87256  11.557  10.200  28.813
86392W        W87257  13.944  10.882  26.610
86393W        W87258  12.043   7.902  27.055
86394W        W87259  11.812   9.395  27.145
86395W        W87260  12.125  10.806  27.895
86396W        W87261  14.192  10.902  28.927
86397W        W87262  13.351   9.090  27.860
86398W        W87263  11.200   8.888  25.775
86399W        W87264  14.334  10.546  26.472
86400W        W87265  14.171   7.870  26.091
86401W        W87266  12.310   7.389  28.494
86402W        W87267  14.016  10.191  26.952
86403W        W87268  14.045   8.747  26.857
86404W        W87269  12.162   8.420  27.073
86405W        W87270  12.407   8.682  28.397
86406W        W87271  13.518   9.835  28.260
86407W        W87272  12.168   8.289  28.372
86408W        W87273  12.147  10.755  26.988
86409W        W87274  11.464  10.714  28.622
86410W        W87275  11.576  10.075  25.752
86411W        W87276  14.093   9.833  26.562
86412W        W87277  11.697   8.625  28.448
86413W        W87278  14.470   8.555  25.929
86414W        W87279  12.215   9.612  26.400
86415W        W87280  13.314   8.994  28.481
86416W        W87281  13.205   8.622  28.025
86417W        W87282  11.765   8.994  28.054
86418W        W87283  13.975  10.882  27.883
86419W        W87284  13.766   7.516  28.877
86420W        W87285  11.430   7.666  28.464
86421W        W87286  11.769   8.689  27.517
86422W        W87287  12.138   8.503  25.639
86423W        W87288  10.941  10.262  28.184
86424W        W87289  12.526   8.971  27.627
86425W        W87290  12.349   7.996  25.732
86426W        W87291  11.484   8.812  26.513
86427W        W87292  11.255  10.664  27.950
86428W        W87293  14.050   8.890  26.058
86429W        W87294  14.145   7.806  28.744
86430W        W87295  13.581  10.015  26.707
86431W        W87296  11.179   8.939  28.884
86432W        W87297  14.145   7.403  26.180
86433W        W87298  13.665   9.878  26.191
86434W        W87299  12.567   8.936  26.276
86435W        W87300  13.754   7.740  25.799
86436W        W87301  13.819   8.347  27.985
86437W        W87302  11.528   8.940  27.192
86438W        W87303  11.822   9.879  26.841
86439W        W87304  13.585   8.499  26.806
86440W        W87305  12.608   7.878  27.502
86441W        W87306  14.570   9.789  28.013
86442W        W87307  14.488   7.776  27.574
86443W        W87308  11.027  10.606  26.950
86444W        W87309  11.536   9.793  26.486
86445W        W87310  11.451   7.410  29.039
86446W        W87311  12.570  10.263  29.141
86447W        W87312  14.325   9.231  26.931
86448W        W87313  13.679   9.408  25.811
86449W        W87314  12.974  10.929  28.023
86450W        W87315  13.831   9.651  29.060
86451W        W87316  12.646   7.361  26.340
86452W        W87317  13.359   8.230  27.199
86453W        W87318  11.045   9.817  27.531
86454W        W87319  12.298   7.779  26.172
86455W        W87320  12.102   9.263  29.021
86456W        W87321  13.096   8.244  26.735
86457W        W87322  13.301   9.654  27.857
86458W        W87323  11.455  10.259  28.292
86459W        W87324  12.046  10.242  29.015
86460W        W87325  11.897   8.039  26.029
86461W        W87326  13.414   8.181  26.354
86462W        W87327  13.372  10.289  28.591
86463W        W87328  12.057   8.881  27.190
86464W        W87329  11.712  10.579  28.055
86465W        W87330  14.457  10.696  25.656
86466W        W87331  11.320   9.368  28.652
86467W        W87332  13.315   9.630  27.340
86468W        W87333  11.751   9.279  26.582
86469W        W87334  12.122  10.286  27.977
86470W        W87335  12.500   7.705  27.018
86471W        W87336  11.111   9.689  25.948
86472W        W87337  12.630   8.640  25.818
86473W        W87338  11.276   9.189  26.837
86474W        W87339  12.566   7.831  28.301
86475W        W87340  14.238   7.540  25.728
86476W        W87341  14.331   9.286  28.827
86477W        W87342  12.985  10.543  28.979
86478W        W87343  14.543   9.637  28.501
86479W        W87344  13.951  10.435  29.112
86480W        W87345  11.690  10.891  27.590
86481W        W87346  14.549   9.513  26.464
86482W        W87347  13.079   8.780  26.977
86483W        W87348  12.846   7.392  26.867
86484W        W87349  11.905  10.376  26.704
86485W        W87350  12.404   8.117  27.929
86486W        W87351  12.104   7.486  27.398
86487W        W87352  11.167  10.308  25.946
86488W        W87353  12.983   9.672  26.664
86489W        W87354  11.858  10.467  28.543
86490W        W87355  11.335   9.290  26.239
86491W        W87356  11.220   7.833  27.238
86492W        W87357  12.768   9.798  27.295
86493W        W87358  11.020   7.652  26.315
86494W        W87359  13.684   8.858  28.242
86495W        W87360  13.561   8.244  25.814
86496W        W87361  14.078   9.916  27.462
86497W        W87362  12.739  10.400  27.293
86498W        W87363  12.151  10.504  26.204
86499W        W87364  13.433   7.407  25.634
86500W        W87365  11.233  10.667  27.375
86501W        W87366  13.430   8.425  29.010
86502W        W87367  11.413   7.955  29.009
86503W        W87368  11.144   8.555  26.342
86504W        W87369  11.835   8.544  26.067
86505W        W87370  13.598   8.871  28.884
86506W        W87371  11.941   9.152  27.593
86507W        W87372  13.415   7.438  26.713
86508W        W87373  12.546  10.869  27.216
86509W        W87374  13.760  10.331  28.153
86510W        W87375  13.344  10.480  27.264
86511W        W87376  13.363   9.460  26.858
86512W        W87377  12.825   7.685  25.929
86513W        W87378  14.506   7.313  26.651
86514W        W87379  12.194   8.948  25.814
86515W        W87380  14.360   8.285  26.804
86516W        W87381  13.052   9.455  25.681
86517W        W87382  13.988   9.655  28.429
86518W        W87383  13.642  10.356  25.896
86519W        W87384  12.257   8.031  28.802
86520W        W87385  12.077   8.615  28.043
86521W        W87386  14.169  10.110  28.320
86522W        W87387  13.269   8.060  28.697
86523W        W87388  11.113   8.531  28.474
86524W        W87389  12.873   9.008  28.200
86525W        W87390  11.230   9.766  26.857
86526W        W87391  11.377   9.063  27.747
86527W        W87392  13.694   9.349  28.097
86528W        W87393  13.466  10.729  28.908
86529W        W87394  13.362   8.468  28.461
86530W        W87395  13.639  10.522  26.866
86531W        W87396  12.641  10.242  28.189
86532W        W87397  12.126  10.597  27.458
86533W        W87398  13.931   9.768  27.877
86534W        W87399  12.981   9.840  29.014
86535W        W87400  11.586   9.793  27.353
86536W        W87401  13.932   9.552  26.998
86537W        W87402  13.573  10.618  27.749
86538W        W87403  11.551  10.347  27.619
86539W        W87404  12.572   8.399  28.829
86540W        W87405  13.023  10.565  26.340
86541W        W87406  12.331   9.820  28.978
86542W        W87407  12.457  10.058  26.355
86543W        W87408  11.678   8.798  25.614
86544W        W87409  11.017  14.528   3.359
86545W        W87410  11.393  13.421   2.882
86546W        W87411  14.098  13.151   0.652
86547W        W87412  14.228  14.236   2.679
86548W        W87413  12.146  14.227   0.205
86549W        W87414  12.229  12.379   1.188
86550W        W87415  11.744  12.227   1.352
86551W        W87416  12.735  13.042   0.786
86552W        W87417  12.410  14.134   3.141
86553W        W87418  11.059  11.695   3.104
86554W        W87419  11.821  10.975   2.906
86555W        W87420  13.515  11.363   1.793
86556W        W87421  13.164  12.234   0.363
86557W        W87422  13.734  11.668   3.454
86558W        W87423  11.100  11.460   2.579
86559W        W87424  11.199  14.079   3.600
86560W        W87425  12.721  13.469   0.332
86561W        W87426  11.153  12.252   2.025
86562W        W87427  12.046  12.143   3.262
86563W        W87428  14.505  12.002   1.761
86564W        W87429  14.269  13.045   2.620
86565W        W87430  12.577  12.378   1.647
86566W        W87431  13.123  13.717   2.016
86567W        W87432  11.623  13.151   2.248
86568W        W87433  10.982  12.679   1.819
86569W        W87434  12.018  12.651   3.011
86570W        W87435  14.289  12.434   3.265
86571W        W87436  11.905  13.878   1.710
86572W        W87437  13.026  13.567   2.844
86573W        W87438  12.246  12.207   2.069
86574W        W87439  12.538  12.991   1.712
86575W        W87440  13.535  13.764   3.560
86576W        W87441  12.614  13.084   3.570
86577W        W87442  12.595  12.800   3.048
86578W        W87443  11.004  12.191   3.570
86579W        W87444  13.836  13.726   3.169
86580W        W87445  11.417  11.308   1.167
86581W        W87446  11.944  13.566   2.166
86582W        W87447  14.407  13.349   1.456
86583W        W87448  13.820  11.749   2.023
86584W        W87449  14.105  11.702   0.118
86585W        W87450  14.570  12.503   2.424
86586W        W87451  12.537  14.210   2.177
86587W        W87452  14.311  13.676   0.615
86588W        W87453  11.440  14.462   0.369
86589W        W87454  11.833  14.508   1.045
86590W        W87455  11.630  11.262   2.471
86591W        W87456  14.253  12.280   2.746
86592W        W87457  13.658  12.702   1.205
86593W        W87458  13.624  12.390   0.232
86594W        W87459  12.832  13.534   2.372
86595W        W87460  12.638  11.864   1.571
86596W        W87461  13.238  13.951   2.565
86597W        W87462  14.109  12.742   0.987
86598W        W87463  13.011  11.400   1.003
86599W        W87464  11.668  14.094   0.686
86600W        W87465  11.039  11.593   1.285
86601W        W87466  13.825  12.200   1.759
86602W        W87467  11.283  13.817   1.674
86603W        W87468  12.624  14.167   0.544
86604W        W87469  14.016  12.193   0.008
86605W        W87470  11.039  13.951   2.172
86606W        W87471  11.830  13.523   2.652
86607W        W87472  12.203  12.883   1.271
86608W        W87473  12.225  11.288   2.364
86609W        W87474  14.454  11.050   1.661
86610W        W87475  11.673  12.922   0.129
86611W        W87476  11.328  11.955   0.308
86612W        W87477  11.390  13.911   1.102
86613W        W87478  12.521  13.394   1.350
86614W        W87479  13.853  14.253   3.064
86615W        W87480  12.779  11.895   0.748
86616W        W87481  14.162  14.293   1.520
86617W        W87482  13.839  12.146   3.118
86618W        W87483  14.552  13.802   1.252
86619W        W87484  13.179  13.094   2.736
86620W        W87485  10.945  12.645   0.942
86621W        W87486  12.056  13.060   2.515
86622W        W87487  13.260  12.324   0.893
86623W        W87488  13.137  12.814   0.997
86624W        W87489  11.480  12.234   2.471
86625W        W87490  11.465  12.110   3.393
86626W        W87491  11.355  11.027   1.552
86627W        W87492  13.123  11.374   2.113
86628W        W87493  12.771  11.559   3.276
86629W        W87494  13.126  11.708   0.454
86630W        W87495  14.309  14.101   3.208
86631W        W87496  13.276  11.182   3.247
86632W        W87497  14.295  13.483   3.369
86633W        W87498  13.725  11.650   2.965
86634W        W87499  13.525  11.588   1.235
86635W        W87500  13.918  12.722   3.639
86636W        W87501  11.658  14.298   1.625
86637W        W87502  12.316  12.015   0.611
86638W        W87503  11.885  11.299   3.275
86639W        W87504  13.937  11.783   0.956
86640W        W87505  14.304  12.265   0.901
86641W        W87506  12.047  14.482   3.372
86642W        W87507  11.973  11.018   0.607
86643W        W87508  14.294  11.552   1.642
86644W        W87509  14.444  13.801   0.087
86645W        W87510  11.351  13.004   1.789
86646W        W87511  13.268  11.591   0.019
86647W        W87512  14.402  13.923   1.739
86648W        W87513  14.441  11.117   2.489
86649W        W87514  12.886  12.329   3.043
86650W        W87515  12.979  13.668   0.746
86651W        W87516  13.379  12.962   3.486
86652W        W87517  13.053  10.939   1.795
86653W        W87518  11.665  11.842   1.858
86654W        W87519  11.219  13.042   2.632
86655W        W87520  13.078  14.235   1.338
86656W        W87521  14.272  11.832   2.210
86657W        W87522  12.909  14.179   2.977
86658W        W87523  14.252  13.238   0.182
86659W        W87524  12.687  12.721   1.243
86660W        W87525  14.539  11.232   2.984
86661W        W87526  12.688  13.067   2.578
86662W        W87527  12.905  11.953   2.023
86663W        W87528  13.757  12.251   0.861
86664W        W87529  14.044  11.984   0.503
86665W        W87530  13.853  14.024   0.892
86666W        W87531  13.687  13.627   1.688
86667W        W87532  13.583  12.706   0.666
86668W        W87533  13.016  12.916   1.652
86669W        W87534  13.897  12.704   1.719
86670W        W87535  11.272  11.719   2.143
86671W        W87536  14.050  12.771   2.970
86672W        W87537  14.401  14.389   2.116
86673W        W87538  12.331  13.833   1.518
86674W        W87539  13.338  14.366   2.842
86675W        W87540  13.332  11.696   2.606
86676W        W87541  12.539  14.404   2.667
86677W        W87542  14.236  11.358   1.133
86678W        W87543  14.027  12.677   2.434
86679W        W87544  11.010  11.998   2.472
86680W        W87545  13.870  11.793   1.490
86681W        W87546  14.281  11.944   3.267
86682W        W87547  13.166  13.643   1.485
86683W        W87548  12.422  14.234   1.098
86684W        W87549  11.537  11.414   0.356
86685W        W87550  12.641  11.068   2.166
86686W        W87551  11.669  14.188   0.014
86687W        W87552  12.043  12.654   0.765
86688W        W87553  12.697  13.283   3.078
86689W        W87554  12.527  11.641   1.068
86690W        W87555  13.883  11.238   1.496
86691W        W87556  13.603  14.520   1.824
86692W        W87557  13.015  14.168   2.164
86693W        W87558  12.411  13.205   2.125
86694W        W87559  14.181  13.928   2.251
86695W        W87560  11.875  11.431   1.020
86696W        W87561  12.397  13.728   1.980
86697W        W87562  11.880  11.659   0.045
86698W        W87563  12.681  12.268   2.439
86699W        W87564  13.529  11.134   2.309
86700W        W87565  10.949  12.977   2.194
86701W        W87566  12.653  12.795   0.352
86702W        W87567  11.921  11.110   0.122
86703W        W87568  12.659  12.191   1.173
86704W        W87569  13.629  11.167   2.872
86705W        W87570  12.217  13.179   2.981
86706W        W87571  13.021  12.961   3.198
86707W        W87572  13.638  12.991   3.091
86708W        W87573  12.922  11.131   3.596
86709W        W87574  12.144  11.747   1.989
86710W        W87575  11.570  11.703   1.387
86711W        W87576  11.356  14.415   1.063
86712W        W87577  12.688  13.745   3.188
86713W        W87578  11.723  13.230   0.547
86714W        W87579  13.403  12.615   1.768
86715W        W87580  13.683  12.414   2.167
86716W        W87581  12.888  13.088   2.101
86717W        W87582  13.358  13.462   0.233
86718W        W87583  13.030  11.483   1.561
86719W        W87584  14.509  11.761   0.829
86720W        W87585  11.003  14.350   2.860
86721W        W87586  11.420  13.576   2.392
86722W        W87587  10.987  14.422   0.624
86723W        W87588  12.886  11.692   2.430
86724W        W87589  12.249  13.715   0.279
86725W        W87590  14.154  14.097   0.465
86726W        W87591  13.129  12.750   0.479
86727W        W87592  11.972  11.941   0.996
86728W        W87593  12.804  11.851   0.048
86729W        W87594  13.388  13.416   3.226
86730W        W87595  13.741  11.322   0.843
86731W        W87596  11.071  11.170   0.291
86732W        W87597  12.357  13.489   2.581
86733W        W87598  12.156  13.405   1.673
86734W        W87599  11.898  13.357   0.071
86735W        W87600  11.139  13.598   0.839
86736W        W87601  11.643  12.668   3.281
86737W        W87602  12.347  11.228   3.467
86738W        W87603  13.056  11.370   2.823
86739W        W87604  12.251  11.138   1.104
86740W        W87605  13.310  11.215   0.609
86741W        W87606  11.255  11.147   2.186
86742W        W87607  11.303  12.110   1.556
86743W        W87608  13.992  11.218   1.962
86744W        W87609  11.414  11.716   0.776
86745W        W87610  13.985  11.404   2.392
86746W        W87611  14.381  12.607   0.077
86747W        W87612  11.673  11.365   1.896
86748W        W87613  12.787  11.937   2.836
86749W        W87614  10.935  11.627   0.314
86750W        W87615  11.721  13.016   2.875
86751W        W87616  13.079  12.414   2.054
86752W        W87617  12.946  14.493   0.350
86753W        W87618  11.092  13.000   0.047
86754W        W87619  11.827  13.411   3.173
86755W        W87620  11.348  12.578   2.804
86756W        W87621  12.339  12.683   2.598
86757W        W87622  14.107  11.042   2.860
86758W        W87623  14.505  12.652   2.851
86759W        W87624  14.493  12.852   0.537
86760W        W87625  13.356  13.184   0.636
86761W        W87626  13.830  14.484   0.331
86762W        W87627  13.007  12.474   3.473
86763W        W87628  11.337  13.441   3.513
86764W        W87629  14.543  11.363   3.465
86765W        W87630  14.261  12.291   2.086
86766W        W87631  12.569  14.421   3.563
86767W        W87632  12.424  11.050   0.290
86768W        W87633  13.963  13.649   0.233
86769W        W87634  11.732  11.742   3.119
86770W        W87635  12.166  13.736   2.981
86771W        W87636  14.292  11.727   2.779
86772W        W87637  13.503  14.386   0.747
86773W        W87638  13.742  13.005   2.114
86774W        W87639  11.992  11.421   2.781
86775W        W87640  12.461  12.490   3.538
86776W        W87641  11.964  13.669   0.732
86777W        W87642  13.719  13.167   0.996
86778W        W87643  11.487  11.793   2.720
86779W        W87644  12.816  13.855   1.184
86780W        W87645  14.566  12.415   1.365
86781W        W87646  12.788  11.048   3.084
86782W        W87647  13.568  13.753   2.163
86783W        W87648  13.871  14.097   1.871
86784W        W87649  13.090  13.899   0.299
86785W        W87650  11.100  13.791   3.141
86786W        W87651  11.843  11.783   2.379
86787W        W87652  11.813  11.131   1.489
86788W        W87653  13.434  11.973   2.181
86789W        W87654  12.232  13.144   0.381
86790W        W87655  14.230  13.086   1.880
86791W        W87656  11.557  13.844   3.303
86792W        W87657  13.944  14.526   1.100
86793W        W87658  12.043  11.546   1.545
86794W        W87659  11.812  13.039   1.635
86795W        W87660  12.125  14.450   2.385
86796W        W87661  14.192  14.546   3.417
86797W        W87662  13.351  12.734   2.350
86798W        W87663  11.200  12.532   0.265
86799W        W87664  14.334  14.190   0.962
86800W        W87665  14.171  11.514   0.581
86801W        W87666  12.310  11.033   2.984
86802W        W87667  14.016  13.835   1.442
86803W        W87668  14.045  12.391   1.347
86804W        W87669  12.162  12.064   1.563
86805W        W87670  12.407  12.326   2.887
86806W        W87671  13.518  13.479   2.750
86807W        W87672  12.168  11.933   2.862
86808W        W87673  12.147  14.399   1.478
86809W        W87674  11.464  14.358   3.112
86810W        W87675  11.576  13.719   0.242
86811W        W87676  14.093  13.477   1.052
86812W        W87677  11.697  12.269   2.938
86813W        W87678  14.470  12.199   0.419
86814W        W87679  12.215  13.256   0.890
86815W        W87680  13.314  12.638   2.971
86816W        W87681  13.205  12.266   2.515
86817W        W87682  11.765  12.638   2.544
86818W        W87683  13.975  14.526   2.373
86819W        W87684  13.766  11.160   3.367
86820W        W87685  11.430  11.310   2.954
86821W        W87686  11.769  12.333   2.007
86822W        W87687  12.138  12.147   0.129
86823W        W87688  10.941  13.906   2.674
86824W        W87689  12.526  12.615   2.117
86825W        W87690  12.349  11.640   0.222
86826W        W87691  11.484  12.456   1.003
86827W        W87692  11.255  14.308   2.440
86828W        W87693  14.050  12.534   0.548
86829W        W87694  14.145  11.450   3.234
86830W        W87695  13.581  13.659   1.197
86831W        W87696  11.179  12.583   3.374
86832W        W87697  14.145  11.047   0.670
86833W        W87698  13.665  13.522   0.681
86834W        W87699  12.567  12.580   0.766
86835W        W87700  13.754  11.384   0.289
86836W        W87701  13.819  11.991   2.475
86837W        W87702  11.528  12.584   1.682
86838W        W87703  11.822  13.523   1.331
86839W        W87704  13.585  12.143   1.296
86840W        W87705  12.608  11.522   1.992
86841W        W87706  14.570  13.433   2.503
86842W        W87707  14.488  11.420   2.064
86843W        W87708  11.027  14.250   1.440
86844W        W87709  11.536  13.437   0.976
86845W        W87710  11.451  11.054   3.529
86846W        W87711  12.570  13.907   3.631
86847W        W87712  14.325  12.875   1.421
86848W        W87713  13.679  13.052   0.301
86849W        W87714  12.974  14.573   2.513
86850W        W87715  13.831  13.295   3.550
86851W        W87716  12.646  11.005   0.830
86852W        W87717  13.359  11.874   1.689
86853W        W87718  11.045  13.461   2.021
86854W        W87719  12.298  11.423   0.662
86855W        W87720  12.102  12.907   3.511
86856W        W87721  13.096  11.888   1.225
86857W        W87722  13.301  13.298   2.347
86858W        W87723  11.455  13.903   2.782
86859W        W87724  12.046  13.886   3.505
86860W        W87725  11.897  11.683   0.519
86861W        W87726  13.414  11.825   0.844
86862W        W87727  13.372  13.933   3.081
86863W        W87728  12.057  12.525   1.680
86864W        W87729  11.712  14.223   2.545
86865W        W87730  14.457  14.340   0.146
86866W        W87731  11.320  13.012   3.142
86867W        W87732  13.315  13.274   1.830
86868W        W87733  11.751  12.923   1.072
86869W        W87734  12.122  13.930   2.467
86870W        W87735  12.500  11.349   1.508
86871W        W87736  11.111  13.333   0.438
86872W        W87737  12.630  12.284   0.308
86873W        W87738  11.276  12.833   1.327
86874W        W87739  12.566  11.475   2.791
86875W        W87740  14.238  11.184   0.218
86876W        W87741  14.331  12.930   3.317
86877W        W87742  12.985  14.187   3.469
86878W        W87743  14.543  13.281   2.991
86879W        W87744  13.951  14.079   3.602
86880W        W87745  11.690  14.535   2.080
86881W        W87746  14.549  13.157   0.954
86882W        W87747  13.079  12.424   1.467
86883W        W87748  12.846  11.036   1.357
86884W        W87749  11.905  14.020   1.194
86885W        W87750  12.404  11.761   2.419
86886W        W87751  12.104  11.130   1.888
86887W        W87752  11.167  13.952   0.436
86888W        W87753  12.983  13.316   1.154
86889W        W87754  11.858  14.111   3.033
86890W        W87755  11.335  12.934   0.729
86891W        W87756  11.220  11.477   1.728
86892W        W87757  12.768  13.442   1.785
86893W        W87758  11.020  11.296   0.805
86894W        W87759  13.684  12.502   2.732
86895W        W87760  13.561  11.888   0.304
86896W        W87761  14.078  13.560   1.952
86897W        W87762  12.739  14.044   1.783
86898W        W87763  12.151  14.148   0.694
86899W        W87764  13.433  11.051   0.124
86900W        W87765  11.233  14.311   1.865
86901W        W87766  13.430  12.069   3.500
86902W        W87767  11.413  11.599   3.499
86903W        W87768  11.144  12.199   0.832
86904W        W87769  11.835  12.188   0.557
86905W        W87770  13.598  12.515   3.374
86906W        W87771  11.941  12.796   2.083
86907W        W87772  13.415  11.082   1.203
86908W        W87773  12.546  14.513   1.706
86909W        W87774  13.760  13.975   2.643
86910W        W87775  13.344  14.124   1.754
86911W        W87776  13.363  13.104   1.348
86912W        W87777  12.825  11.329   0.419
86913W        W87778  14.506  10.957   1.141
86914W        W87779  12.194  12.592   0.304
86915W        W87780  14.360  11.929   1.294
86916W        W87781  13.052  13.099   0.171
86917W        W87782  13.988  13.299   2.919
86918W        W87783  13.642  14.000   0.386
86919W        W87784  12.257  11.675   3.292
86920W        W87785  12.077  12.259   2.533
86921W        W87786  14.169  13.754   2.810
86922W        W87787  13.269  11.704   3.187
86923W        W87788  11.113  12.175   2.964
86924W        W87789  12.873  12.652   2.690
86925W        W87790  11.230  13.410   1.347
86926W        W87791  11.377  12.707   2.237
86927W        W87792  13.694  12.993   2.587
86928W        W87793  13.466  14.373   3.398
86929W        W87794  13.362  12.112   2.951
86930W        W87795  13.639  14.166   1.356
86931W        W87796  12.641  13.886   2.679
86932W        W87797  12.126  14.241   1.948
86933W        W87798  13.931  13.412   2.367
86934W        W87799  12.981  13.484   3.504
86935W        W87800  11.586  13.437   1.843
86936W        W87801  13.932  13.196   1.488
86937W        W87802  13.573  14.262   2.239
86938W        W87803  11.551  13.991   2.109
86939W        W87804  12.572  12.043   3.319
86940W        W87805  13.023  14.209   0.830
86941W        W87806  12.331  13.464   3.468
86942W        W87807  12.457  13.702   0.845
86943W        W87808  11.678  12.442   0.104
86944W        W87809  11.017  14.528   7.003
86945W        W87810  11.393  13.421   6.526
86946W        W87811  14.098  13.151   4.296
86947W        W87812  14.228  14.236   6.323
86948W        W87813  12.146  14.227   3.849
86949W        W87814  12.229  12.379   4.832
86950W        W87815  11.744  12.227   4.996
86951W        W87816  12.735  13.042   4.430
86952W        W87817  12.410  14.134   6.785
86953W        W87818  11.059  11.695   6.748
86954W        W87819  11.821  10.975   6.550
86955W        W87820  13.515  11.363   5.437
86956W        W87821  13.164  12.234   4.007
86957W        W87822  13.734  11.668   7.098
86958W        W87823  11.100  11.460   6.223
86959W        W87824  11.199  14.079   7.244
86960W        W87825  12.721  13.469   3.976
86961W        W87826  11.153  12.252   5.669
86962W        W87827  12.046  12.143   6.906
86963W        W87828  14.505  12.002   5.405
86964W        W87829  14.269  13.045   6.264
86965W        W87830  12.577  12.378   5.291
86966W        W87831  13.123  13.717   5.660
86967W        W87832  11.623  13.151   5.892
86968W        W87833  10.982  12.679   5.463
86969W        W87834  12.018  12.651   6.655
86970W        W87835  14.289  12.434   6.909
86971W        W87836  11.905  13.878   5.354
86972W        W87837  13.026  13.567   6.488
86973W        W87838  12.246  12.207   5.713
86974W        W87839  12.538  12.991   5.356
86975W        W87840  13.535  13.764   7.204
86976W        W87841  12.614  13.084   7.214
86977W        W87842  12.595  12.800   6.692
86978W        W87843  11.004  12.191   7.214
86979W        W87844  13.836  13.726   6.813
86980W        W87845  11.417  11.308   4.811
86981W        W87846  11.944  13.566   5.810
86982W        W87847  14.407  13.349   5.100
86983W        W87848  13.820  11.749   5.667
86984W        W87849  14.105  11.702   3.762
86985W        W87850  14.570  12.503   6.068
86986W        W87851  12.537  14.210   5.821
86987W        W87852  14.311  13.676   4.259
86988W        W87853  11.440  14.462   4.013
86989W        W87854  11.833  14.508   4.689
86990W        W87855  11.630  11.262   6.115
86991W        W87856  14.253  12.280   6.390
86992W        W87857  13.658  12.702   4.849
86993W        W87858  13.624  12.390   3.876
86994W        W87859  12.832  13.534   6.016
86995W        W87860  12.638  11.864   5.215
86996W        W87861  13.238  13.951   6.209
86997W        W87862  14.109  12.742   4.631
86998W        W87863  13.011  11.400   4.647
86999W        W87864  11.668  14.094   4.330
87000W        W87865  11.039  11.593   4.929
87001W        W87866  13.825  12.200   5.403
87002W        W87867  11.283  13.817   5.318
87003W        W87868  12.624  14.167   4.188
87004W        W87869  14.016  12.193   3.652
87005W        W87870  11.039  13.951   5.816
87006W        W87871  11.830  13.523   6.296
87007W        W87872  12.203  12.883   4.915
87008W        W87873  12.225  11.288   6.008
87009W        W87874  14.454  11.050   5.305
87010W        W87875  11.673  12.922   3.773
87011W        W87876  11.328  11.955   3.952
87012W        W87877  11.390  13.911   4.746
87013W        W87878  12.521  13.394   4.994
87014W        W87879  13.853  14.253   6.708
87015W        W87880  12.779  11.895   4.392
87016W        W87881  14.162  14.293   5.164
87017W        W87882  13.839  12.146   6.762
87018W        W87883  14.552  13.802   4.896
87019W        W87884  13.179  13.094   6.380
87020W        W87885  10.945  12.645   4.586
87021W        W87886  12.056  13.060   6.159
87022W        W87887  13.260  12.324   4.537
87023W        W87888  13.137  12.814   4.641
87024W        W87889  11.480  12.234   6.115
87025W        W87890  11.465  12.110   7.037
87026W        W87891  11.355  11.027   5.196
87027W        W87892  13.123  11.374   5.757
87028W        W87893  12.771  11.559   6.920
87029W        W87894  13.126  11.708   4.098
87030W        W87895  14.309  14.101   6.852
87031W        W87896  13.276  11.182   6.891
87032W        W87897  14.295  13.483   7.013
87033W        W87898  13.725  11.650   6.609
87034W        W87899  13.525  11.588   4.879
87035W        W87900  13.918  12.722   7.283
87036W        W87901  11.658  14.298   5.269
87037W        W87902  12.316  12.015   4.255
87038W        W87903  11.885  11.299   6.919
87039W        W87904  13.937  11.783   4.600
87040W        W87905  14.304  12.265   4.545
87041W        W87906  12.047  14.482   7.016
87042W        W87907  11.973  11.018   4.251
87043W        W87908  14.294  11.552   5.286
87044W        W87909  14.444  13.801   3.731
87045W        W87910  11.351  13.004   5.433
87046W        W87911  13.268  11.591   3.663
87047W        W87912  14.402  13.923   5.383
87048W        W87913  14.441  11.117   6.133
87049W        W87914  12.886  12.329   6.687
87050W        W87915  12.979  13.668   4.390
87051W        W87916  13.379  12.962   7.130
87052W        W87917  13.053  10.939   5.439
87053W        W87918  11.665  11.842   5.502
87054W        W87919  11.219  13.042   6.276
87055W        W87920  13.078  14.235   4.982
87056W        W87921  14.272  11.832   5.854
87057W        W87922  12.909  14.179   6.621
87058W        W87923  14.252  13.238   3.826
87059W        W87924  12.687  12.721   4.887
87060W        W87925  14.539  11.232   6.628
87061W        W87926  12.688  13.067   6.222
87062W        W87927  12.905  11.953   5.667
87063W        W87928  13.757  12.251   4.505
87064W        W87929  14.044  11.984   4.147
87065W        W87930  13.853  14.024   4.536
87066W        W87931  13.687  13.627   5.332
87067W        W87932  13.583  12.706   4.310
87068W        W87933  13.016  12.916   5.296
87069W        W87934  13.897  12.704   5.363
87070W        W87935  11.272  11.719   5.787
87071W        W87936  14.050  12.771   6.614
87072W        W87937  14.401  14.389   5.760
87073W        W87938  12.331  13.833   5.162
87074W        W87939  13.338  14.366   6.486
87075W        W87940  13.332  11.696   6.250
87076W        W87941  12.539  14.404   6.311
87077W        W87942  14.236  11.358   4.777
87078W        W87943  14.027  12.677   6.078
87079W        W87944  11.010  11.998   6.116
87080W        W87945  13.870  11.793   5.134
87081W        W87946  14.281  11.944   6.911
87082W        W87947  13.166  13.643   5.129
87083W        W87948  12.422  14.234   4.742
87084W        W87949  11.537  11.414   4.000
87085W        W87950  12.641  11.068   5.810
87086W        W87951  11.669  14.188   3.658
87087W        W87952  12.043  12.654   4.409
87088W        W87953  12.697  13.283   6.722
87089W        W87954  12.527  11.641   4.712
87090W        W87955  13.883  11.238   5.140
87091W        W87956  13.603  14.520   5.468
87092W        W87957  13.015  14.168   5.808
87093W        W87958  12.411  13.205   5.769
87094W        W87959  14.181  13.928   5.895
87095W        W87960  11.875  11.431   4.664
87096W        W87961  12.397  13.728   5.624
87097W        W87962  11.880  11.659   3.689
87098W        W87963  12.681  12.268   6.083
87099W        W87964  13.529  11.134   5.953
87100W        W87965  10.949  12.977   5.838
87101W        W87966  12.653  12.795   3.996
87102W        W87967  11.921  11.110   3.766
87103W        W87968  12.659  12.191   4.817
87104W        W87969  13.629  11.167   6.516
87105W        W87970  12.217  13.179   6.625
87106W        W87971  13.021  12.961   6.842
87107W        W87972  13.638  12.991   6.735
87108W        W87973  12.922  11.131   7.240
87109W        W87974  12.144  11.747   5.633
87110W        W87975  11.570  11.703   5.031
87111W        W87976  11.356  14.415   4.707
87112W        W87977  12.688  13.745   6.832
87113W        W87978  11.723  13.230   4.191
87114W        W87979  13.403  12.615   5.412
87115W        W87980  13.683  12.414   5.811
87116W        W87981  12.888  13.088   5.745
87117W        W87982  13.358  13.462   3.877
87118W        W87983  13.030  11.483   5.205
87119W        W87984  14.509  11.761   4.473
87120W        W87985  11.003  14.350   6.504
87121W        W87986  11.420  13.576   6.036
87122W        W87987  10.987  14.422   4.268
87123W        W87988  12.886  11.692   6.074
87124W        W87989  12.249  13.715   3.923
87125W        W87990  14.154  14.097   4.109
87126W        W87991  13.129  12.750   4.123
87127W        W87992  11.972  11.941   4.640
87128W        W87993  12.804  11.851   3.692
87129W        W87994  13.388  13.416   6.870
87130W        W87995  13.741  11.322   4.487
87131W        W87996  11.071  11.170   3.935
87132W        W87997  12.357  13.489   6.225
87133W        W87998  12.156  13.405   5.317
87134W        W87999  11.898  13.357   3.715
87135W        W88000  11.139  13.598   4.483
87136W        W88001  11.643  12.668   6.925
87137W        W88002  12.347  11.228   7.111
87138W        W88003  13.056  11.370   6.467
87139W        W88004  12.251  11.138   4.748
87140W        W88005  13.310  11.215   4.253
87141W        W88006  11.255  11.147   5.830
87142W        W88007  11.303  12.110   5.200
87143W        W88008  13.992  11.218   5.606
87144W        W88009  11.414  11.716   4.420
87145W        W88010  13.985  11.404   6.036
87146W        W88011  14.381  12.607   3.721
87147W        W88012  11.673  11.365   5.540
87148W        W88013  12.787  11.937   6.480
87149W        W88014  10.935  11.627   3.958
87150W        W88015  11.721  13.016   6.519
87151W        W88016  13.079  12.414   5.698
87152W        W88017  12.946  14.493   3.994
87153W        W88018  11.092  13.000   3.691
87154W        W88019  11.827  13.411   6.817
87155W        W88020  11.348  12.578   6.448
87156W        W88021  12.339  12.683   6.242
87157W        W88022  14.107  11.042   6.504
87158W        W88023  14.505  12.652   6.495
87159W        W88024  14.493  12.852   4.181
87160W        W88025  13.356  13.184   4.280
87161W        W88026  13.830  14.484   3.975
87162W        W88027  13.007  12.474   7.117
87163W        W88028  11.337  13.441   7.157
87164W        W88029  14.543  11.363   7.109
87165W        W88030  14.261  12.291   5.730
87166W        W88031  12.569  14.421   7.207
87167W        W88032  12.424  11.050   3.934
87168W        W88033  13.963  13.649   3.877
87169W        W88034  11.732  11.742   6.763
87170W        W88035  12.166  13.736   6.625
87171W        W88036  14.292  11.727   6.423
87172W        W88037  13.503  14.386   4.391
87173W        W88038  13.742  13.005   5.758
87174W        W88039  11.992  11.421   6.425
87175W        W88040  12.461  12.490   7.182
87176W        W88041  11.964  13.669   4.376
87177W        W88042  13.719  13.167   4.640
87178W        W88043  11.487  11.793   6.364
87179W        W88044  12.816  13.855   4.828
87180W        W88045  14.566  12.415   5.009
87181W        W88046  12.788  11.048   6.728
87182W        W88047  13.568  13.753   5.807
87183W        W88048  13.871  14.097   5.515
87184W        W88049  13.090  13.899   3.943
87185W        W88050  11.100  13.791   6.785
87186W        W88051  11.843  11.783   6.023
87187W        W88052  11.813  11.131   5.133
87188W        W88053  13.434  11.973   5.825
87189W        W88054  12.232  13.144   4.025
87190W        W88055  14.230  13.086   5.524
87191W        W88056  11.557  13.844   6.947
87192W        W88057  13.944  14.526   4.744
87193W        W88058  12.043  11.546   5.189
87194W        W88059  11.812  13.039   5.279
87195W        W88060  12.125  14.450   6.029
87196W        W88061  14.192  14.546   7.061
87197W        W88062  13.351  12.734   5.994
87198W        W88063  11.200  12.532   3.909
87199W        W88064  14.334  14.190   4.606
87200W        W88065  14.171  11.514   4.225
87201W        W88066  12.310  11.033   6.628
87202W        W88067  14.016  13.835   5.086
87203W        W88068  14.045  12.391   4.991
87204W        W88069  12.162  12.064   5.207
87205W        W88070  12.407  12.326   6.531
87206W        W88071  13.518  13.479   6.394
87207W        W88072  12.168  11.933   6.506
87208W        W88073  12.147  14.399   5.122
87209W        W88074  11.464  14.358   6.756
87210W        W88075  11.576  13.719   3.886
87211W        W88076  14.093  13.477   4.696
87212W        W88077  11.697  12.269   6.582
87213W        W88078  14.470  12.199   4.063
87214W        W88079  12.215  13.256   4.534
87215W        W88080  13.314  12.638   6.615
87216W        W88081  13.205  12.266   6.159
87217W        W88082  11.765  12.638   6.188
87218W        W88083  13.975  14.526   6.017
87219W        W88084  13.766  11.160   7.011
87220W        W88085  11.430  11.310   6.598
87221W        W88086  11.769  12.333   5.651
87222W        W88087  12.138  12.147   3.773
87223W        W88088  10.941  13.906   6.318
87224W        W88089  12.526  12.615   5.761
87225W        W88090  12.349  11.640   3.866
87226W        W88091  11.484  12.456   4.647
87227W        W88092  11.255  14.308   6.084
87228W        W88093  14.050  12.534   4.192
87229W        W88094  14.145  11.450   6.878
87230W        W88095  13.581  13.659   4.841
87231W        W88096  11.179  12.583   7.018
87232W        W88097  14.145  11.047   4.314
87233W        W88098  13.665  13.522   4.325
87234W        W88099  12.567  12.580   4.410
87235W        W88100  13.754  11.384   3.933
87236W        W88101  13.819  11.991   6.119
87237W        W88102  11.528  12.584   5.326
87238W        W88103  11.822  13.523   4.975
87239W        W88104  13.585  12.143   4.940
87240W        W88105  12.608  11.522   5.636
87241W        W88106  14.570  13.433   6.147
87242W        W88107  14.488  11.420   5.708
87243W        W88108  11.027  14.250   5.084
87244W        W88109  11.536  13.437   4.620
87245W        W88110  11.451  11.054   7.173
87246W        W88111  12.570  13.907   7.275
87247W        W88112  14.325  12.875   5.065
87248W        W88113  13.679  13.052   3.945
87249W        W88114  12.974  14.573   6.157
87250W        W88115  13.831  13.295   7.194
87251W        W88116  12.646  11.005   4.474
87252W        W88117  13.359  11.874   5.333
87253W        W88118  11.045  13.461   5.665
87254W        W88119  12.298  11.423   4.306
87255W        W88120  12.102  12.907   7.155
87256W        W88121  13.096  11.888   4.869
87257W        W88122  13.301  13.298   5.991
87258W        W88123  11.455  13.903   6.426
87259W        W88124  12.046  13.886   7.149
87260W        W88125  11.897  11.683   4.163
87261W        W88126  13.414  11.825   4.488
87262W        W88127  13.372  13.933   6.725
87263W        W88128  12.057  12.525   5.324
87264W        W88129  11.712  14.223   6.189
87265W        W88130  14.457  14.340   3.790
87266W        W88131  11.320  13.012   6.786
87267W        W88132  13.315  13.274   5.474
87268W        W88133  11.751  12.923   4.716
87269W        W88134  12.122  13.930   6.111
87270W        W88135  12.500  11.349   5.152
87271W        W88136  11.111  13.333   4.082
87272W        W88137  12.630  12.284   3.952
87273W        W88138  11.276  12.833   4.971
87274W        W88139  12.566  11.475   6.435
87275W        W88140  14.238  11.184   3.862
87276W        W88141  14.331  12.930   6.961
87277W        W88142  12.985  14.187   7.113
87278W        W88143  14.543  13.281   6.635
87279W        W88144  13.951  14.079   7.246
87280W        W88145  11.690  14.535   5.724
87281W        W88146  14.549  13.157   4.598
87282W        W88147  13.079  12.424   5.111
87283W        W88148  12.846  11.036   5.001
87284W        W88149  11.905  14.020   4.838
87285W        W88150  12.404  11.761   6.063
87286W        W88151  12.104  11.130   5.532
87287W        W88152  11.167  13.952   4.080
87288W        W88153  12.983  13.316   4.798
87289W        W88154  11.858  14.111   6.677
87290W        W88155  11.335  12.934   4.373
87291W        W88156  11.220  11.477   5.372
87292W        W88157  12.768  13.442   5.429
87293W        W88158  11.020  11.296   4.449
87294W        W88159  13.684  12.502   6.376
87295W        W88160  13.561  11.888   3.948
87296W        W88161  14.078  13.560   5.596
87297W        W88162  12.739  14.044   5.427
87298W        W88163  12.151  14.148   4.338
87299W        W88164  13.433  11.051   3.768
87300W        W88165  11.233  14.311   5.509
87301W        W88166  13.430  12.069   7.144
87302W        W88167  11.413  11.599   7.143
87303W        W88168  11.144  12.199   4.476
87304W        W88169  11.835  12.188   4.201
87305W        W88170  13.598  12.515   7.018
87306W        W88171  11.941  12.796   5.727
87307W        W88172  13.415  11.082   4.847
87308W        W88173  12.546  14.513   5.350
87309W        W88174  13.760  13.975   6.287
87310W        W88175  13.344  14.124   5.398
87311W        W88176  13.363  13.104   4.992
87312W        W88177  12.825  11.329   4.063
87313W        W88178  14.506  10.957   4.785
87314W        W88179  12.194  12.592   3.948
87315W        W88180  14.360  11.929   4.938
87316W        W88181  13.052  13.099   3.815
87317W        W88182  13.988  13.299   6.563
87318W        W88183  13.642  14.000   4.030
87319W        W88184  12.257  11.675   6.936
87320W        W88185  12.077  12.259   6.177
87321W        W88186  14.169  13.754   6.454
87322W        W88187  13.269  11.704   6.831
87323W        W88188  11.113  12.175   6.608
87324W        W88189  12.873  12.652   6.334
87325W        W88190  11.230  13.410   4.991
87326W        W88191  11.377  12.707   5.881
87327W        W88192  13.694  12.993   6.231
87328W        W88193  13.466  14.373   7.042
87329W        W88194  13.362  12.112   6.595
87330W        W88195  13.639  14.166   5.000
87331W        W88196  12.641  13.886   6.323
87332W        W88197  12.126  14.241   5.592
87333W        W88198  13.931  13.412   6.011
87334W        W88199  12.981  13.484   7.148
87335W        W88200  11.586  13.437   5.487
87336W        W88201  13.932  13.196   5.132
87337W        W88202  13.573  14.262   5.883
87338W        W88203  11.551  13.991   5.753
87339W        W88204  12.572  12.043   6.963
87340W        W88205  13.023  14.209   4.474
87341W        W88206  12.331  13.464   7.112
87342W        W88207  12.457  13.702   4.489
87343W        W88208  11.678  12.442   3.748
87344W        W88209  11.017  14.528  10.648
87345W        W88210  11.393  13.421  10.171
87346W        W88211  14.098  13.151   7.941
87347W        W88212  14.228  14.236   9.968
87348W        W88213  12.146  14.227   7.494
87349W        W88214  12.229  12.379   8.477
87350W        W88215  11.744  12.227   8.641
87351W        W88216  12.735  13.042   8.075
87352W        W88217  12.410  14.134  10.430
87353W        W88218  11.059  11.695  10.393
87354W        W88219  11.821  10.975  10.195
87355W        W88220  13.515  11.363   9.082
87356W        W88221  13.164  12.234   7.652
87357W        W88222  13.734  11.668  10.743
87358W        W88223  11.100  11.460   9.868
87359W        W88224  11.199  14.079  10.889
87360W        W88225  12.721  13.469   7.621
87361W        W88226  11.153  12.252   9.314
87362W        W88227  12.046  12.143  10.551
87363W        W88228  14.505  12.002   9.050
87364W        W88229  14.269  13.045   9.909
87365W        W88230  12.577  12.378   8.936
87366W        W88231  13.123  13.717   9.305
87367W        W88232  11.623  13.151   9.537
87368W        W88233  10.982  12.679   9.108
87369W        W88234  12.018  12.651  10.300
87370W        W88235  14.289  12.434  10.554
87371W        W88236  11.905  13.878   8.999
87372W        W88237  13.026  13.567  10.133
87373W        W88238  12.246  12.207   9.358
87374W        W88239  12.538  12.991   9.001
87375W        W88240  13.535  13.764  10.849
87376W        W88241  12.614  13.084  10.859
87377W        W88242  12.595  12.800  10.337
87378W        W88243  11.004  12.191  10.859
87379W        W88244  13.836  13.726  10.458
87380W        W88245  11.417  11.308   8.456
87381W        W88246  11.944  13.566   9.455
87382W        W88247  14.407  13.349   8.745
87383W        W88248  13.820  11.749   9.312
87384W        W88249  14.105  11.702   7.407
87385W        W88250  14.570  12.503   9.713
87386W        W88251  12.537  14.210   9.466
87387W        W88252  14.311  13.676   7.904
87388W        W88253  11.440  14.462   7.658
87389W        W88254  11.833  14.508   8.334
87390W        W88255  11.630  11.262   9.760
87391W        W88256  14.253  12.280  10.035
87392W        W88257  13.658  12.702   8.494
87393W        W88258  13.624  12.390   7.521
87394W        W88259  12.832  13.534   9.661
87395W        W88260  12.638  11.864   8.860
87396W        W88261  13.238  13.951   9.854
87397W        W88262  14.109  12.742   8.276
87398W        W88263  13.011  11.400   8.292
87399W        W88264  11.668  14.094   7.975
87400W        W88265  11.039  11.593   8.574
87401W        W88266  13.825  12.200   9.048
87402W        W88267  11.283  13.817   8.963
87403W        W88268  12.624  14.167   7.833
87404W        W88269  14.016  12.193   7.297
87405W        W88270  11.039  13.951   9.461
87406W        W88271  11.830  13.523   9.941
87407W        W88272  12.203  12.883   8.560
87408W        W88273  12.225  11.288   9.653
87409W        W88274  14.454  11.050   8.950
87410W        W88275  11.673  12.922   7.418
87411W        W88276  11.328  11.955   7.597
87412W        W88277  11.390  13.911   8.391
87413W        W88278  12.521  13.394   8.639
87414W        W88279  13.853  14.253  10.353
87415W        W88280  12.779  11.895   8.037
87416W        W88281  14.162  14.293   8.809
87417W        W88282  13.839  12.146  10.407
87418W        W88283  14.552  13.802   8.541
87419W        W88284  13.179  13.094  10.025
87420W        W88285  10.945  12.645   8.231
87421W        W88286  12.056  13.060   9.804
87422W        W88287  13.260  12.324   8.182
87423W        W88288  13.137  12.814   8.286
87424W        W88289  11.480  12.234   9.760
87425W        W88290  11.465  12.110  10.682
87426W        W88291  11.355  11.027   8.841
87427W        W88292  13.123  11.374   9.402
87428W        W88293  12.771  11.559  10.565
87429W        W88294  13.126  11.708   7.743
87430W        W88295  14.309  14.101  10.497
87431W        W88296  13.276  11.182  10.536
87432W        W88297  14.295  13.483  10.658
87433W        W88298  13.725  11.650  10.254
87434W        W88299  13.525  11.588   8.524
87435W        W88300  13.918  12.722  10.928
87436W        W88301  11.658  14.298   8.914
87437W        W88302  12.316  12.015   7.900
87438W        W88303  11.885  11.299  10.564
87439W        W88304  13.937  11.783   8.245
87440W        W88305  14.304  12.265   8.190
87441W        W88306  12.047  14.482  10.661
87442W        W88307  11.973  11.018   7.896
87443W        W88308  14.294  11.552   8.931
87444W        W88309  14.444  13.801   7.376
87445W        W88310  11.351  13.004   9.078
87446W        W88311  13.268  11.591   7.308
87447W        W88312  14.402  13.923   9.028
87448W        W88313  14.441  11.117   9.778
87449W        W88314  12.886  12.329  10.332
87450W        W88315  12.979  13.668   8.035
87451W        W88316  13.379  12.962  10.775
87452W        W88317  13.053  10.939   9.084
87453W        W88318  11.665  11.842   9.147
87454W        W88319  11.219  13.042   9.921
87455W        W88320  13.078  14.235   8.627
87456W        W88321  14.272  11.832   9.499
87457W        W88322  12.909  14.179  10.266
87458W        W88323  14.252  13.238   7.471
87459W        W88324  12.687  12.721   8.532
87460W        W88325  14.539  11.232  10.273
87461W        W88326  12.688  13.067   9.867
87462W        W88327  12.905  11.953   9.312
87463W        W88328  13.757  12.251   8.150
87464W        W88329  14.044  11.984   7.792
87465W        W88330  13.853  14.024   8.181
87466W        W88331  13.687  13.627   8.977
87467W        W88332  13.583  12.706   7.955
87468W        W88333  13.016  12.916   8.941
87469W        W88334  13.897  12.704   9.008
87470W        W88335  11.272  11.719   9.432
87471W        W88336  14.050  12.771  10.259
87472W        W88337  14.401  14.389   9.405
87473W        W88338  12.331  13.833   8.807
87474W        W88339  13.338  14.366  10.131
87475W        W88340  13.332  11.696   9.895
87476W        W88341  12.539  14.404   9.956
87477W        W88342  14.236  11.358   8.422
87478W        W88343  14.027  12.677   9.723
87479W        W88344  11.010  11.998   9.761
87480W        W88345  13.870  11.793   8.779
87481W        W88346  14.281  11.944  10.556
87482W        W88347  13.166  13.643   8.774
87483W        W88348  12.422  14.234   8.387
87484W        W88349  11.537  11.414   7.645
87485W        W88350  12.641  11.068   9.455
87486W        W88351  11.669  14.188   7.303
87487W        W88352  12.043  12.654   8.054
87488W        W88353  12.697  13.283  10.367
87489W        W88354  12.527  11.641   8.357
87490W        W88355  13.883  11.238   8.785
87491W        W88356  13.603  14.520   9.113
87492W        W88357  13.015  14.168   9.453
87493W        W88358  12.411  13.205   9.414
87494W        W88359  14.181  13.928   9.540
87495W        W88360  11.875  11.431   8.309
87496W        W88361  12.397  13.728   9.269
87497W        W88362  11.880  11.659   7.334
87498W        W88363  12.681  12.268   9.728
87499W        W88364  13.529  11.134   9.598
87500W        W88365  10.949  12.977   9.483
87501W        W88366  12.653  12.795   7.641
87502W        W88367  11.921  11.110   7.411
87503W        W88368  12.659  12.191   8.462
87504W        W88369  13.629  11.167  10.161
87505W        W88370  12.217  13.179  10.270
87506W        W88371  13.021  12.961  10.487
87507W        W88372  13.638  12.991  10.380
87508W        W88373  12.922  11.131  10.885
87509W        W88374  12.144  11.747   9.278
87510W        W88375  11.570  11.703   8.676
87511W        W88376  11.356  14.415   8.352
87512W        W88377  12.688  13.745  10.477
87513W        W88378  11.723  13.230   7.836
87514W        W88379  13.403  12.615   9.057
87515W        W88380  13.683  12.414   9.456
87516W        W88381  12.888  13.088   9.390
87517W        W88382  13.358  13.462   7.522
87518W        W88383  13.030  11.483   8.850
87519W        W88384  14.509  11.761   8.118
87520W        W88385  11.003  14.350  10.149
87521W        W88386  11.420  13.576   9.681
87522W        W88387  10.987  14.422   7.913
87523W        W88388  12.886  11.692   9.719
87524W        W88389  12.249  13.715   7.568
87525W        W88390  14.154  14.097   7.754
87526W        W88391  13.129  12.750   7.768
87527W        W88392  11.972  11.941   8.285
87528W        W88393  12.804  11.851   7.337
87529W        W88394  13.388  13.416  10.515
87530W        W88395  13.741  11.322   8.132
87531W        W88396  11.071  11.170   7.580
87532W        W88397  12.357  13.489   9.870
87533W        W88398  12.156  13.405   8.962
87534W        W88399  11.898  13.357   7.360
87535W        W88400  11.139  13.598   8.128
87536W        W88401  11.643  12.668  10.570
87537W        W88402  12.347  11.228  10.756
87538W        W88403  13.056  11.370  10.112
87539W        W88404  12.251  11.138   8.393
87540W        W88405  13.310  11.215   7.898
87541W        W88406  11.255  11.147   9.475
87542W        W88407  11.303  12.110   8.845
87543W        W88408  13.992  11.218   9.251
87544W        W88409  11.414  11.716   8.065
87545W        W88410  13.985  11.404   9.681
87546W        W88411  14.381  12.607   7.366
87547W        W88412  11.673  11.365   9.185
87548W        W88413  12.787  11.937  10.125
87549W        W88414  10.935  11.627   7.603
87550W        W88415  11.721  13.016  10.164
87551W        W88416  13.079  12.414   9.343
87552W        W88417  12.946  14.493   7.639
87553W        W88418  11.092  13.000   7.336
87554W        W88419  11.827  13.411  10.462
87555W        W88420  11.348  12.578  10.093
87556W        W88421  12.339  12.683   9.887
87557W        W88422  14.107  11.042  10.149
87558W        W88423  14.505  12.652  10.140
87559W        W88424  14.493  12.852   7.826
87560W        W88425  13.356  13.184   7.925
87561W        W88426  13.830  14.484   7.620
87562W        W88427  13.007  12.474  10.762
87563W        W88428  11.337  13.441  10.802
87564W        W88429  14.543  11.363  10.754
87565W        W88430  14.261  12.291   9.375
87566W        W88431  12.569  14.421  10.852
87567W        W88432  12.424  11.050   7.579
87568W        W88433  13.963  13.649   7.522
87569W        W88434  11.732  11.742  10.408
87570W        W88435  12.166  13.736  10.270
87571W        W88436  14.292  11.727  10.068
87572W        W88437  13.503  14.386   8.036
87573W        W88438  13.742  13.005   9.403
87574W        W88439  11.992  11.421  10.070
87575W        W88440  12.461  12.490  10.827
87576W        W88441  11.964  13.669   8.021
87577W        W88442  13.719  13.167   8.285
87578W        W88443  11.487  11.793  10.009
87579W        W88444  12.816  13.855   8.473
87580W        W88445  14.566  12.415   8.654
87581W        W88446  12.788  11.048  10.373
87582W        W88447  13.568  13.753   9.452
87583W        W88448  13.871  14.097   9.160
87584W        W88449  13.090  13.899   7.588
87585W        W88450  11.100  13.791  10.430
87586W        W88451  11.843  11.783   9.668
87587W        W88452  11.813  11.131   8.778
87588W        W88453  13.434  11.973   9.470
87589W        W88454  12.232  13.144   7.670
87590W        W88455  14.230  13.086   9.169
87591W        W88456  11.557  13.844  10.592
87592W        W88457  13.944  14.526   8.389
87593W        W88458  12.043  11.546   8.834
87594W        W88459  11.812  13.039   8.924
87595W        W88460  12.125  14.450   9.674
87596W        W88461  14.192  14.546  10.706
87597W        W88462  13.351  12.734   9.639
87598W        W88463  11.200  12.532   7.554
87599W        W88464  14.334  14.190   8.251
87600W        W88465  14.171  11.514   7.870
87601W        W88466  12.310  11.033  10.273
87602W        W88467  14.016  13.835   8.731
87603W        W88468  14.045  12.391   8.636
87604W        W88469  12.162  12.064   8.852
87605W        W88470  12.407  12.326  10.176
87606W        W88471  13.518  13.479  10.039
87607W        W88472  12.168  11.933  10.151
87608W        W88473  12.147  14.399   8.767
87609W        W88474  11.464  14.358  10.401
87610W        W88475  11.576  13.719   7.531
87611W        W88476  14.093  13.477   8.341
87612W        W88477  11.697  12.269  10.227
87613W        W88478  14.470  12.199   7.708
87614W        W88479  12.215  13.256   8.179
87615W        W88480  13.314  12.638  10.260
87616W        W88481  13.205  12.266   9.804
87617W        W88482  11.765  12.638   9.833
87618W        W88483  13.975  14.526   9.662
87619W        W88484  13.766  11.160  10.656
87620W        W88485  11.430  11.310  10.243
87621W        W88486  12.138  12.147   7.418
87622W        W88487  10.941  13.906   9.963
87623W        W88488  12.526  12.615   9.406
87624W        W88489  12.349  11.640   7.511
87625W        W88490  11.484  12.456   8.292
87626W        W88491  11.255  14.308   9.729
87627W        W88492  14.050  12.534   7.837
87628W        W88493  14.145  11.450  10.523
87629W        W88494  13.581  13.659   8.486
87630W        W88495  11.179  12.583  10.663
87631W        W88496  14.145  11.047   7.959
87632W        W88497  13.665  13.522   7.970
87633W        W88498  12.567  12.580   8.055
87634W        W88499  13.754  11.384   7.578
87635W        W88500  13.819  11.991   9.764
87636W        W88501  11.528  12.584   8.971
87637W        W88502  11.822  13.523   8.620
87638W        W88503  13.585  12.143   8.585
87639W        W88504  12.608  11.522   9.281
87640W        W88505  14.570  13.433   9.792
87641W        W88506  14.488  11.420   9.353
87642W        W88507  11.027  14.250   8.729
87643W        W88508  11.536  13.437   8.265
87644W        W88509  11.451  11.054  10.818
87645W        W88510  12.570  13.907  10.920
87646W        W88511  14.325  12.875   8.710
87647W        W88512  13.679  13.052   7.590
87648W        W88513  12.974  14.573   9.802
87649W        W88514  13.831  13.295  10.839
87650W        W88515  12.646  11.005   8.119
87651W        W88516  13.359  11.874   8.978
87652W        W88517  11.045  13.461   9.310
87653W        W88518  12.298  11.423   7.951
87654W        W88519  12.102  12.907  10.800
87655W        W88520  13.096  11.888   8.514
87656W        W88521  13.301  13.298   9.636
87657W        W88522  11.455  13.903  10.071
87658W        W88523  12.046  13.886  10.794
87659W        W88524  11.897  11.683   7.808
87660W        W88525  13.414  11.825   8.133
87661W        W88526  13.372  13.933  10.370
87662W        W88527  12.057  12.525   8.969
87663W        W88528  11.712  14.223   9.834
87664W        W88529  14.457  14.340   7.435
87665W        W88530  11.320  13.012  10.431
87666W        W88531  13.315  13.274   9.119
87667W        W88532  11.751  12.923   8.361
87668W        W88533  12.122  13.930   9.756
87669W        W88534  12.500  11.349   8.797
87670W        W88535  11.111  13.333   7.727
87671W        W88536  12.630  12.284   7.597
87672W        W88537  11.276  12.833   8.616
87673W        W88538  12.566  11.475  10.080
87674W        W88539  14.238  11.184   7.507
87675W        W88540  14.331  12.930  10.606
87676W        W88541  12.985  14.187  10.758
87677W        W88542  14.543  13.281  10.280
87678W        W88543  13.951  14.079  10.891
87679W        W88544  11.690  14.535   9.369
87680W        W88545  14.549  13.157   8.243
87681W        W88546  13.079  12.424   8.756
87682W        W88547  12.846  11.036   8.646
87683W        W88548  11.905  14.020   8.483
87684W        W88549  12.404  11.761   9.708
87685W        W88550  12.104  11.130   9.177
87686W        W88551  11.167  13.952   7.725
87687W        W88552  12.983  13.316   8.443
87688W        W88553  11.858  14.111  10.322
87689W        W88554  11.335  12.934   8.018
87690W        W88555  11.220  11.477   9.017
87691W        W88556  12.768  13.442   9.074
87692W        W88557  11.020  11.296   8.094
87693W        W88558  13.684  12.502  10.021
87694W        W88559  13.561  11.888   7.593
87695W        W88560  14.078  13.560   9.241
87696W        W88561  12.739  14.044   9.072
87697W        W88562  12.151  14.148   7.983
87698W        W88563  13.433  11.051   7.413
87699W        W88564  11.233  14.311   9.154
87700W        W88565  13.430  12.069  10.789
87701W        W88566  11.413  11.599  10.788
87702W        W88567  11.144  12.199   8.121
87703W        W88568  11.835  12.188   7.846
87704W        W88569  13.598  12.515  10.663
87705W        W88570  11.941  12.796   9.372
87706W        W88571  13.415  11.082   8.492
87707W        W88572  12.546  14.513   8.995
87708W        W88573  13.760  13.975   9.932
87709W        W88574  13.344  14.124   9.043
87710W        W88575  13.363  13.104   8.637
87711W        W88576  12.825  11.329   7.708
87712W        W88577  14.506  10.957   8.430
87713W        W88578  12.194  12.592   7.593
87714W        W88579  14.360  11.929   8.583
87715W        W88580  13.052  13.099   7.460
87716W        W88581  13.988  13.299  10.208
87717W        W88582  13.642  14.000   7.675
87718W        W88583  12.257  11.675  10.581
87719W        W88584  12.077  12.259   9.822
87720W        W88585  14.169  13.754  10.099
87721W        W88586  13.269  11.704  10.476
87722W        W88587  11.113  12.175  10.253
87723W        W88588  12.873  12.652   9.979
87724W        W88589  11.230  13.410   8.636
87725W        W88590  11.377  12.707   9.526
87726W        W88591  13.694  12.993   9.876
87727W        W88592  13.466  14.373  10.687
87728W        W88593  13.362  12.112  10.240
87729W        W88594  13.639  14.166   8.645
87730W        W88595  12.641  13.886   9.968
87731W        W88596  12.126  14.241   9.237
87732W        W88597  13.931  13.412   9.656
87733W        W88598  12.981  13.484  10.793
87734W        W88599  11.586  13.437   9.132
87735W        W88600  13.932  13.196   8.777
87736W        W88601  13.573  14.262   9.528
87737W        W88602  11.551  13.991   9.398
87738W        W88603  12.572  12.043  10.608
87739W        W88604  13.023  14.209   8.119
87740W        W88605  12.331  13.464  10.757
87741W        W88606  12.457  13.702   8.134
87742W        W88607  11.678  12.442   7.393
87743W        W88608  11.017  14.528  14.292
87744W        W88609  11.393  13.421  13.815
87745W        W88610  14.098  13.151  11.585
87746W        W88611  14.228  14.236  13.612
87747W        W88612  12.146  14.227  11.138
87748W        W88613  12.229  12.379  12.121
87749W        W88614  11.744  12.227  12.285
87750W        W88615  12.735  13.042  11.719
87751W        W88616  12.410  14.134  14.074
87752W        W88617  11.059  11.695  14.037
87753W        W88618  11.821  10.975  13.839
87754W        W88619  13.515  11.363  12.726
87755W        W88620  13.164  12.234  11.296
87756W        W88621  13.734  11.668  14.387
87757W        W88622  11.100  11.460  13.512
87758W        W88623  11.199  14.079  14.533
87759W        W88624  12.721  13.469  11.265
87760W        W88625  11.153  12.252  12.958
87761W        W88626  12.046  12.143  14.195
87762W        W88627  14.505  12.002  12.694
87763W        W88628  14.269  13.045  13.553
87764W        W88629  12.577  12.378  12.580
87765W        W88630  13.123  13.717  12.949
87766W        W88631  11.623  13.151  13.181
87767W        W88632  10.982  12.679  12.752
87768W        W88633  12.018  12.651  13.944
87769W        W88634  14.289  12.434  14.198
87770W        W88635  11.905  13.878  12.643
87771W        W88636  13.026  13.567  13.777
87772W        W88637  12.246  12.207  13.002
87773W        W88638  12.538  12.991  12.645
87774W        W88639  13.535  13.764  14.493
87775W        W88640  12.614  13.084  14.503
87776W        W88641  12.595  12.800  13.981
87777W        W88642  11.004  12.191  14.503
87778W        W88643  13.836  13.726  14.102
87779W        W88644  11.417  11.308  12.100
87780W        W88645  11.944  13.566  13.099
87781W        W88646  14.407  13.349  12.389
87782W        W88647  13.820  11.749  12.956
87783W        W88648  14.105  11.702  11.051
87784W        W88649  14.570  12.503  13.357
87785W        W88650  12.537  14.210  13.110
87786W        W88651  14.311  13.676  11.548
87787W        W88652  11.440  14.462  11.302
87788W        W88653  11.833  14.508  11.978
87789W        W88654  11.630  11.262  13.404
87790W        W88655  14.253  12.280  13.679
87791W        W88656  13.658  12.702  12.138
87792W        W88657  13.624  12.390  11.165
87793W        W88658  12.832  13.534  13.305
87794W        W88659  12.638  11.864  12.504
87795W        W88660  13.238  13.951  13.498
87796W        W88661  14.109  12.742  11.920
87797W        W88662  13.011  11.400  11.936
87798W        W88663  11.668  14.094  11.619
87799W        W88664  11.039  11.593  12.218
87800W        W88665  13.825  12.200  12.692
87801W        W88666  11.283  13.817  12.607
87802W        W88667  12.624  14.167  11.477
87803W        W88668  14.016  12.193  10.941
87804W        W88669  11.039  13.951  13.105
87805W        W88670  11.830  13.523  13.585
87806W        W88671  12.203  12.883  12.204
87807W        W88672  12.225  11.288  13.297
87808W        W88673  14.454  11.050  12.594
87809W        W88674  11.673  12.922  11.062
87810W        W88675  11.328  11.955  11.241
87811W        W88676  11.390  13.911  12.035
87812W        W88677  12.521  13.394  12.283
87813W        W88678  13.853  14.253  13.997
87814W        W88679  12.779  11.895  11.681
87815W        W88680  14.162  14.293  12.453
87816W        W88681  13.839  12.146  14.051
87817W        W88682  14.552  13.802  12.185
87818W        W88683  13.179  13.094  13.669
87819W        W88684  10.945  12.645  11.875
87820W        W88685  12.056  13.060  13.448
87821W        W88686  13.260  12.324  11.826
87822W        W88687  13.137  12.814  11.930
87823W        W88688  11.480  12.234  13.404
87824W        W88689  11.465  12.110  14.326
87825W        W88690  11.355  11.027  12.485
87826W        W88691  13.123  11.374  13.046
87827W        W88692  12.771  11.559  14.209
87828W        W88693  13.126  11.708  11.387
87829W        W88694  14.309  14.101  14.141
87830W        W88695  13.276  11.182  14.180
87831W        W88696  14.295  13.483  14.302
87832W        W88697  13.725  11.650  13.898
87833W        W88698  13.525  11.588  12.168
87834W        W88699  13.918  12.722  14.572
87835W        W88700  11.658  14.298  12.558
87836W        W88701  12.316  12.015  11.544
87837W        W88702  11.885  11.299  14.208
87838W        W88703  13.937  11.783  11.889
87839W        W88704  14.304  12.265  11.834
87840W        W88705  12.047  14.482  14.305
87841W        W88706  11.973  11.018  11.540
87842W        W88707  14.294  11.552  12.575
87843W        W88708  14.444  13.801  11.020
87844W        W88709  11.351  13.004  12.722
87845W        W88710  13.268  11.591  10.952
87846W        W88711  14.402  13.923  12.672
87847W        W88712  14.441  11.117  13.422
87848W        W88713  12.886  12.329  13.976
87849W        W88714  12.979  13.668  11.679
87850W        W88715  13.379  12.962  14.419
87851W        W88716  13.053  10.939  12.728
87852W        W88717  11.665  11.842  12.791
87853W        W88718  11.219  13.042  13.565
87854W        W88719  13.078  14.235  12.271
87855W        W88720  14.272  11.832  13.143
87856W        W88721  12.909  14.179  13.910
87857W        W88722  14.252  13.238  11.115
87858W        W88723  12.687  12.721  12.176
87859W        W88724  14.539  11.232  13.917
87860W        W88725  12.688  13.067  13.511
87861W        W88726  12.905  11.953  12.956
87862W        W88727  13.757  12.251  11.794
87863W        W88728  14.044  11.984  11.436
87864W        W88729  13.853  14.024  11.825
87865W        W88730  13.687  13.627  12.621
87866W        W88731  13.583  12.706  11.599
87867W        W88732  13.016  12.916  12.585
87868W        W88733  13.897  12.704  12.652
87869W        W88734  11.272  11.719  13.076
87870W        W88735  14.050  12.771  13.903
87871W        W88736  14.401  14.389  13.049
87872W        W88737  12.331  13.833  12.451
87873W        W88738  13.338  14.366  13.775
87874W        W88739  13.332  11.696  13.539
87875W        W88740  12.539  14.404  13.600
87876W        W88741  14.236  11.358  12.066
87877W        W88742  14.027  12.677  13.367
87878W        W88743  11.010  11.998  13.405
87879W        W88744  13.870  11.793  12.423
87880W        W88745  14.281  11.944  14.200
87881W        W88746  13.166  13.643  12.418
87882W        W88747  12.422  14.234  12.031
87883W        W88748  11.537  11.414  11.289
87884W        W88749  12.641  11.068  13.099
87885W        W88750  11.669  14.188  10.947
87886W        W88751  12.043  12.654  11.698
87887W        W88752  12.697  13.283  14.011
87888W        W88753  12.527  11.641  12.001
87889W        W88754  13.883  11.238  12.429
87890W        W88755  13.603  14.520  12.757
87891W        W88756  13.015  14.168  13.097
87892W        W88757  12.411  13.205  13.058
87893W        W88758  14.181  13.928  13.184
87894W        W88759  11.875  11.431  11.953
87895W        W88760  12.397  13.728  12.913
87896W        W88761  11.880  11.659  10.978
87897W        W88762  12.681  12.268  13.372
87898W        W88763  13.529  11.134  13.242
87899W        W88764  10.949  12.977  13.127
87900W        W88765  12.653  12.795  11.285
87901W        W88766  11.921  11.110  11.055
87902W        W88767  12.659  12.191  12.106
87903W        W88768  13.629  11.167  13.805
87904W        W88769  12.217  13.179  13.914
87905W        W88770  13.021  12.961  14.131
87906W        W88771  13.638  12.991  14.024
87907W        W88772  12.922  11.131  14.529
87908W        W88773  12.144  11.747  12.922
87909W        W88774  11.570  11.703  12.320
87910W        W88775  11.356  14.415  11.996
87911W        W88776  12.688  13.745  14.121
87912W        W88777  11.723  13.230  11.480
87913W        W88778  13.403  12.615  12.701
87914W        W88779  13.683  12.414  13.100
87915W        W88780  12.888  13.088  13.034
87916W        W88781  13.358  13.462  11.166
87917W        W88782  13.030  11.483  12.494
87918W        W88783  14.509  11.761  11.762
87919W        W88784  11.003  14.350  13.793
87920W        W88785  11.420  13.576  13.325
87921W        W88786  10.987  14.422  11.557
87922W        W88787  12.886  11.692  13.363
87923W        W88788  12.249  13.715  11.212
87924W        W88789  14.154  14.097  11.398
87925W        W88790  13.129  12.750  11.412
87926W        W88791  11.972  11.941  11.929
87927W        W88792  12.804  11.851  10.981
87928W        W88793  13.388  13.416  14.159
87929W        W88794  13.741  11.322  11.776
87930W        W88795  11.071  11.170  11.224
87931W        W88796  12.357  13.489  13.514
87932W        W88797  12.156  13.405  12.606
87933W        W88798  11.898  13.357  11.004
87934W        W88799  11.139  13.598  11.772
87935W        W88800  11.643  12.668  14.214
87936W        W88801  12.347  11.228  14.400
87937W        W88802  13.056  11.370  13.756
87938W        W88803  12.251  11.138  12.037
87939W        W88804  13.310  11.215  11.542
87940W        W88805  11.255  11.147  13.119
87941W        W88806  11.303  12.110  12.489
87942W        W88807  13.992  11.218  12.895
87943W        W88808  11.414  11.716  11.709
87944W        W88809  13.985  11.404  13.325
87945W        W88810  14.381  12.607  11.010
87946W        W88811  11.673  11.365  12.829
87947W        W88812  12.787  11.937  13.769
87948W        W88813  10.935  11.627  11.247
87949W        W88814  11.721  13.016  13.808
87950W        W88815  13.079  12.414  12.987
87951W        W88816  12.946  14.493  11.283
87952W        W88817  11.092  13.000  10.980
87953W        W88818  11.827  13.411  14.106
87954W        W88819  11.348  12.578  13.737
87955W        W88820  12.339  12.683  13.531
87956W        W88821  14.107  11.042  13.793
87957W        W88822  14.505  12.652  13.784
87958W        W88823  14.493  12.852  11.470
87959W        W88824  13.356  13.184  11.569
87960W        W88825  13.830  14.484  11.264
87961W        W88826  13.007  12.474  14.406
87962W        W88827  11.337  13.441  14.446
87963W        W88828  14.543  11.363  14.398
87964W        W88829  14.261  12.291  13.019
87965W        W88830  12.569  14.421  14.496
87966W        W88831  12.424  11.050  11.223
87967W        W88832  13.963  13.649  11.166
87968W        W88833  11.732  11.742  14.052
87969W        W88834  12.166  13.736  13.914
87970W        W88835  14.292  11.727  13.712
87971W        W88836  13.503  14.386  11.680
87972W        W88837  13.742  13.005  13.047
87973W        W88838  11.992  11.421  13.714
87974W        W88839  12.461  12.490  14.471
87975W        W88840  11.964  13.669  11.665
87976W        W88841  13.719  13.167  11.929
87977W        W88842  11.487  11.793  13.653
87978W        W88843  12.816  13.855  12.117
87979W        W88844  14.566  12.415  12.298
87980W        W88845  12.788  11.048  14.017
87981W        W88846  13.568  13.753  13.096
87982W        W88847  13.871  14.097  12.804
87983W        W88848  13.090  13.899  11.232
87984W        W88849  11.100  13.791  14.074
87985W        W88850  11.843  11.783  13.312
87986W        W88851  11.813  11.131  12.422
87987W        W88852  13.434  11.973  13.114
87988W        W88853  12.232  13.144  11.314
87989W        W88854  14.230  13.086  12.813
87990W        W88855  11.557  13.844  14.236
87991W        W88856  13.944  14.526  12.033
87992W        W88857  12.043  11.546  12.478
87993W        W88858  11.812  13.039  12.568
87994W        W88859  12.125  14.450  13.318
87995W        W88860  14.192  14.546  14.350
87996W        W88861  13.351  12.734  13.283
87997W        W88862  11.200  12.532  11.198
87998W        W88863  14.334  14.190  11.895
87999W        W88864  14.171  11.514  11.514
88000W        W88865  12.310  11.033  13.917
88001W        W88866  14.016  13.835  12.375
88002W        W88867  14.045  12.391  12.280
88003W        W88868  12.162  12.064  12.496
88004W        W88869  12.407  12.326  13.820
88005W        W88870  13.518  13.479  13.683
88006W        W88871  12.168  11.933  13.795
88007W        W88872  12.147  14.399  12.411
88008W        W88873  11.464  14.358  14.045
88009W        W88874  11.576  13.719  11.175
88010W        W88875  14.093  13.477  11.985
88011W        W88876  11.697  12.269  13.871
88012W        W88877  14.470  12.199  11.352
88013W        W88878  12.215  13.256  11.823
88014W        W88879  13.314  12.638  13.904
88015W        W88880  13.205  12.266  13.448
88016W        W88881  11.765  12.638  13.477
88017W        W88882  13.975  14.526  13.306
88018W        W88883  13.766  11.160  14.300
88019W        W88884  11.430  11.310  13.887
88020W        W88885  11.769  12.333  12.940
88021W        W88886  12.138  12.147  11.062
88022W        W88887  10.941  13.906  13.607
88023W        W88888  12.526  12.615  13.050
88024W        W88889  12.349  11.640  11.155
88025W        W88890  11.484  12.456  11.936
88026W        W88891  11.255  14.308  13.373
88027W        W88892  14.050  12.534  11.481
88028W        W88893  14.145  11.450  14.167
88029W        W88894  13.581  13.659  12.130
88030W        W88895  11.179  12.583  14.307
88031W        W88896  14.145  11.047  11.603
88032W        W88897  13.665  13.522  11.614
88033W        W88898  12.567  12.580  11.699
88034W        W88899  13.754  11.384  11.222
88035W        W88900  13.819  11.991  13.408
88036W        W88901  11.528  12.584  12.615
88037W        W88902  11.822  13.523  12.264
88038W        W88903  13.585  12.143  12.229
88039W        W88904  12.608  11.522  12.925
88040W        W88905  14.570  13.433  13.436
88041W        W88906  14.488  11.420  12.997
88042W        W88907  11.027  14.250  12.373
88043W        W88908  11.536  13.437  11.909
88044W        W88909  11.451  11.054  14.462
88045W        W88910  12.570  13.907  14.564
88046W        W88911  14.325  12.875  12.354
88047W        W88912  13.679  13.052  11.234
88048W        W88913  12.974  14.573  13.446
88049W        W88914  13.831  13.295  14.483
88050W        W88915  12.646  11.005  11.763
88051W        W88916  13.359  11.874  12.622
88052W        W88917  11.045  13.461  12.954
88053W        W88918  12.298  11.423  11.595
88054W        W88919  12.102  12.907  14.444
88055W        W88920  13.096  11.888  12.158
88056W        W88921  13.301  13.298  13.280
88057W        W88922  11.455  13.903  13.715
88058W        W88923  12.046  13.886  14.438
88059W        W88924  11.897  11.683  11.452
88060W        W88925  13.414  11.825  11.777
88061W        W88926  13.372  13.933  14.014
88062W        W88927  12.057  12.525  12.613
88063W        W88928  11.712  14.223  13.478
88064W        W88929  14.457  14.340  11.079
88065W        W88930  11.320  13.012  14.075
88066W        W88931  13.315  13.274  12.763
88067W        W88932  11.751  12.923  12.005
88068W        W88933  12.122  13.930  13.400
88069W        W88934  12.500  11.349  12.441
88070W        W88935  11.111  13.333  11.371
88071W        W88936  12.630  12.284  11.241
88072W        W88937  11.276  12.833  12.260
88073W        W88938  12.566  11.475  13.724
88074W        W88939  14.238  11.184  11.151
88075W        W88940  14.331  12.930  14.250
88076W        W88941  12.985  14.187  14.402
88077W        W88942  14.543  13.281  13.924
88078W        W88943  13.951  14.079  14.535
88079W        W88944  11.690  14.535  13.013
88080W        W88945  14.549  13.157  11.887
88081W        W88946  13.079  12.424  12.400
88082W        W88947  12.846  11.036  12.290
88083W        W88948  11.905  14.020  12.127
88084W        W88949  12.404  11.761  13.352
88085W        W88950  12.104  11.130  12.821
88086W        W88951  11.167  13.952  11.369
88087W        W88952  12.983  13.316  12.087
88088W        W88953  11.858  14.111  13.966
88089W        W88954  11.335  12.934  11.662
88090W        W88955  11.220  11.477  12.661
88091W        W88956  12.768  13.442  12.718
88092W        W88957  11.020  11.296  11.738
88093W        W88958  13.684  12.502  13.665
88094W        W88959  13.561  11.888  11.237
88095W        W88960  14.078  13.560  12.885
88096W        W88961  12.739  14.044  12.716
88097W        W88962  12.151  14.148  11.627
88098W        W88963  13.433  11.051  11.057
88099W        W88964  11.233  14.311  12.798
88100W        W88965  13.430  12.069  14.433
88101W        W88966  11.413  11.599  14.432
88102W        W88967  11.144  12.199  11.765
88103W        W88968  11.835  12.188  11.490
88104W        W88969  13.598  12.515  14.307
88105W        W88970  11.941  12.796  13.016
88106W        W88971  13.415  11.082  12.136
88107W        W88972  12.546  14.513  12.639
88108W        W88973  13.760  13.975  13.576
88109W        W88974  13.344  14.124  12.687
88110W        W88975  13.363  13.104  12.281
88111W        W88976  12.825  11.329  11.352
88112W        W88977  14.506  10.957  12.074
88113W        W88978  12.194  12.592  11.237
88114W        W88979  14.360  11.929  12.227
88115W        W88980  13.052  13.099  11.104
88116W        W88981  13.988  13.299  13.852
88117W        W88982  13.642  14.000  11.319
88118W        W88983  12.257  11.675  14.225
88119W        W88984  12.077  12.259  13.466
88120W        W88985  14.169  13.754  13.743
88121W        W88986  13.269  11.704  14.120
88122W        W88987  11.113  12.175  13.897
88123W        W88988  12.873  12.652  13.623
88124W        W88989  11.230  13.410  12.280
88125W        W88990  11.377  12.707  13.170
88126W        W88991  13.694  12.993  13.520
88127W        W88992  13.466  14.373  14.331
88128W        W88993  13.362  12.112  13.884
88129W        W88994  13.639  14.166  12.289
88130W        W88995  12.641  13.886  13.612
88131W        W88996  12.126  14.241  12.881
88132W        W88997  13.931  13.412  13.300
88133W        W88998  12.981  13.484  14.437
88134W        W88999  11.586  13.437  12.776
88135W        W89000  13.932  13.196  12.421
88136W        W89001  13.573  14.262  13.172
88137W        W89002  11.551  13.991  13.042
88138W        W89003  12.572  12.043  14.252
88139W        W89004  13.023  14.209  11.763
88140W        W89005  12.331  13.464  14.401
88141W        W89006  12.457  13.702  11.778
88142W        W89007  11.678  12.442  11.037
88143W        W89008  11.017  14.528  17.936
88144W        W89009  11.393  13.421  17.459
88145W        W89010  14.098  13.151  15.229
88146W        W89011  14.228  14.236  17.256
88147W        W89012  12.146  14.227  14.782
88148W        W89013  12.229  12.379  15.765
88149W        W89014  11.744  12.227  15.929
88150W        W89015  12.735  13.042  15.363
88151W        W89016  11.059  11.695  17.681
88152W        W89017  11.821  10.975  17.483
88153W        W89018  13.515  11.363  16.370
88154W        W89019  13.164  12.234  14.940
88155W        W89020  13.734  11.668  18.031
88156W        W89021  11.100  11.460  17.156
88157W        W89022  11.199  14.079  18.177
88158W        W89023  12.721  13.469  14.909
88159W        W89024  11.153  12.252  16.602
88160W        W89025  12.046  12.143  17.839
88161W        W89026  14.505  12.002  16.338
88162W        W89027  14.269  13.045  17.197
88163W        W89028  12.577  12.378  16.224
88164W        W89029  13.123  13.717  16.593
88165W        W89030  11.623  13.151  16.825
88166W        W89031  10.982  12.679  16.396
88167W        W89032  12.018  12.651  17.588
88168W        W89033  14.289  12.434  17.842
88169W        W89034  11.905  13.878  16.287
88170W        W89035  13.026  13.567  17.421
88171W        W89036  12.246  12.207  16.646
88172W        W89037  12.538  12.991  16.289
88173W        W89038  13.535  13.764  18.137
88174W        W89039  12.614  13.084  18.147
88175W        W89040  12.595  12.800  17.625
88176W        W89041  11.004  12.191  18.147
88177W        W89042  13.836  13.726  17.746
88178W        W89043  11.417  11.308  15.744
88179W        W89044  11.944  13.566  16.743
88180W        W89045  14.407  13.349  16.033
88181W        W89046  13.820  11.749  16.600
88182W        W89047  14.105  11.702  14.695
88183W        W89048  14.570  12.503  17.001
88184W        W89049  12.537  14.210  16.754
88185W        W89050  14.311  13.676  15.192
88186W        W89051  11.440  14.462  14.946
88187W        W89052  11.833  14.508  15.622
88188W        W89053  11.630  11.262  17.048
88189W        W89054  14.253  12.280  17.323
88190W        W89055  13.658  12.702  15.782
88191W        W89056  13.624  12.390  14.809
88192W        W89057  12.832  13.534  16.949
88193W        W89058  12.638  11.864  16.148
88194W        W89059  13.238  13.951  17.142
88195W        W89060  14.109  12.742  15.564
88196W        W89061  13.011  11.400  15.580
88197W        W89062  11.668  14.094  15.263
88198W        W89063  11.039  11.593  15.862
88199W        W89064  13.825  12.200  16.336
88200W        W89065  11.283  13.817  16.251
88201W        W89066  12.624  14.167  15.121
88202W        W89067  14.016  12.193  14.585
88203W        W89068  11.039  13.951  16.749
88204W        W89069  11.830  13.523  17.229
88205W        W89070  12.203  12.883  15.848
88206W        W89071  12.225  11.288  16.941
88207W        W89072  14.454  11.050  16.238
88208W        W89073  11.673  12.922  14.706
88209W        W89074  11.328  11.955  14.885
88210W        W89075  11.390  13.911  15.679
88211W        W89076  12.521  13.394  15.927
88212W        W89077  13.853  14.253  17.641
88213W        W89078  12.779  11.895  15.325
88214W        W89079  14.162  14.293  16.097
88215W        W89080  13.839  12.146  17.695
88216W        W89081  14.552  13.802  15.829
88217W        W89082  13.179  13.094  17.313
88218W        W89083  10.945  12.645  15.519
88219W        W89084  12.056  13.060  17.092
88220W        W89085  13.260  12.324  15.470
88221W        W89086  13.137  12.814  15.574
88222W        W89087  11.480  12.234  17.048
88223W        W89088  11.465  12.110  17.970
88224W        W89089  11.355  11.027  16.129
88225W        W89090  13.123  11.374  16.690
88226W        W89091  12.771  11.559  17.853
88227W        W89092  13.126  11.708  15.031
88228W        W89093  14.309  14.101  17.785
88229W        W89094  13.276  11.182  17.824
88230W        W89095  14.295  13.483  17.946
88231W        W89096  13.725  11.650  17.542
88232W        W89097  13.525  11.588  15.812
88233W        W89098  13.918  12.722  18.216
88234W        W89099  11.658  14.298  16.202
88235W        W89100  12.316  12.015  15.188
88236W        W89101  11.885  11.299  17.852
88237W        W89102  13.937  11.783  15.533
88238W        W89103  14.304  12.265  15.478
88239W        W89104  12.047  14.482  17.949
88240W        W89105  11.973  11.018  15.184
88241W        W89106  14.294  11.552  16.219
88242W        W89107  14.444  13.801  14.664
88243W        W89108  11.351  13.004  16.366
88244W        W89109  13.268  11.591  14.596
88245W        W89110  14.402  13.923  16.316
88246W        W89111  14.441  11.117  17.066
88247W        W89112  12.886  12.329  17.620
88248W        W89113  12.979  13.668  15.323
88249W        W89114  13.379  12.962  18.063
88250W        W89115  13.053  10.939  16.372
88251W        W89116  11.665  11.842  16.435
88252W        W89117  11.219  13.042  17.209
88253W        W89118  13.078  14.235  15.915
88254W        W89119  14.272  11.832  16.787
88255W        W89120  12.909  14.179  17.554
88256W        W89121  14.252  13.238  14.759
88257W        W89122  12.687  12.721  15.820
88258W        W89123  14.539  11.232  17.561
88259W        W89124  12.688  13.067  17.155
88260W        W89125  12.905  11.953  16.600
88261W        W89126  13.757  12.251  15.438
88262W        W89127  14.044  11.984  15.080
88263W        W89128  13.853  14.024  15.469
88264W        W89129  13.687  13.627  16.265
88265W        W89130  13.583  12.706  15.243
88266W        W89131  13.016  12.916  16.229
88267W        W89132  13.897  12.704  16.296
88268W        W89133  11.272  11.719  16.720
88269W        W89134  14.050  12.771  17.547
88270W        W89135  14.401  14.389  16.693
88271W        W89136  12.331  13.833  16.095
88272W        W89137  13.338  14.366  17.419
88273W        W89138  13.332  11.696  17.183
88274W        W89139  12.539  14.404  17.244
88275W        W89140  14.236  11.358  15.710
88276W        W89141  14.027  12.677  17.011
88277W        W89142  11.010  11.998  17.049
88278W        W89143  13.870  11.793  16.067
88279W        W89144  14.281  11.944  17.844
88280W        W89145  13.166  13.643  16.062
88281W        W89146  12.422  14.234  15.675
88282W        W89147  11.537  11.414  14.933
88283W        W89148  12.641  11.068  16.743
88284W        W89149  11.669  14.188  14.591
88285W        W89150  12.043  12.654  15.342
88286W        W89151  12.697  13.283  17.655
88287W        W89152  12.527  11.641  15.645
88288W        W89153  13.883  11.238  16.073
88289W        W89154  13.603  14.520  16.401
88290W        W89155  13.015  14.168  16.741
88291W        W89156  12.411  13.205  16.702
88292W        W89157  14.181  13.928  16.828
88293W        W89158  11.875  11.431  15.597
88294W        W89159  12.397  13.728  16.557
88295W        W89160  11.880  11.659  14.622
88296W        W89161  12.681  12.268  17.016
88297W        W89162  13.529  11.134  16.886
88298W        W89163  10.949  12.977  16.771
88299W        W89164  12.653  12.795  14.929
88300W        W89165  11.921  11.110  14.699
88301W        W89166  12.659  12.191  15.750
88302W        W89167  13.629  11.167  17.449
88303W        W89168  12.217  13.179  17.558
88304W        W89169  13.021  12.961  17.775
88305W        W89170  13.638  12.991  17.668
88306W        W89171  12.922  11.131  18.173
88307W        W89172  12.144  11.747  16.566
88308W        W89173  11.570  11.703  15.964
88309W        W89174  11.356  14.415  15.640
88310W        W89175  12.688  13.745  17.765
88311W        W89176  11.723  13.230  15.124
88312W        W89177  13.403  12.615  16.345
88313W        W89178  13.683  12.414  16.744
88314W        W89179  12.888  13.088  16.678
88315W        W89180  13.358  13.462  14.810
88316W        W89181  13.030  11.483  16.138
88317W        W89182  14.509  11.761  15.406
88318W        W89183  11.003  14.350  17.437
88319W        W89184  11.420  13.576  16.969
88320W        W89185  10.987  14.422  15.201
88321W        W89186  12.886  11.692  17.007
88322W        W89187  12.249  13.715  14.856
88323W        W89188  14.154  14.097  15.042
88324W        W89189  13.129  12.750  15.056
88325W        W89190  11.972  11.941  15.573
88326W        W89191  12.804  11.851  14.625
88327W        W89192  13.388  13.416  17.803
88328W        W89193  13.741  11.322  15.420
88329W        W89194  11.071  11.170  14.868
88330W        W89195  12.357  13.489  17.158
88331W        W89196  12.156  13.405  16.250
88332W        W89197  11.898  13.357  14.648
88333W        W89198  11.139  13.598  15.416
88334W        W89199  11.643  12.668  17.858
88335W        W89200  12.347  11.228  18.044
88336W        W89201  13.056  11.370  17.400
88337W        W89202  12.251  11.138  15.681
88338W        W89203  13.310  11.215  15.186
88339W        W89204  11.255  11.147  16.763
88340W        W89205  11.303  12.110  16.133
88341W        W89206  13.992  11.218  16.539
88342W        W89207  11.414  11.716  15.353
88343W        W89208  13.985  11.404  16.969
88344W        W89209  14.381  12.607  14.654
88345W        W89210  11.673  11.365  16.473
88346W        W89211  12.787  11.937  17.413
88347W        W89212  10.935  11.627  14.891
88348W        W89213  11.721  13.016  17.452
88349W        W89214  13.079  12.414  16.631
88350W        W89215  12.946  14.493  14.927
88351W        W89216  11.092  13.000  14.624
88352W        W89217  11.827  13.411  17.750
88353W        W89218  11.348  12.578  17.381
88354W        W89219  12.339  12.683  17.175
88355W        W89220  14.107  11.042  17.437
88356W        W89221  14.505  12.652  17.428
88357W        W89222  14.493  12.852  15.114
88358W        W89223  13.356  13.184  15.213
88359W        W89224  13.830  14.484  14.908
88360W        W89225  13.007  12.474  18.050
88361W        W89226  11.337  13.441  18.090
88362W        W89227  14.543  11.363  18.042
88363W        W89228  14.261  12.291  16.663
88364W        W89229  12.569  14.421  18.140
88365W        W89230  12.424  11.050  14.867
88366W        W89231  13.963  13.649  14.810
88367W        W89232  11.732  11.742  17.696
88368W        W89233  12.166  13.736  17.558
88369W        W89234  14.292  11.727  17.356
88370W        W89235  13.503  14.386  15.324
88371W        W89236  13.742  13.005  16.691
88372W        W89237  11.992  11.421  17.358
88373W        W89238  12.461  12.490  18.115
88374W        W89239  11.964  13.669  15.309
88375W        W89240  13.719  13.167  15.573
88376W        W89241  11.487  11.793  17.297
88377W        W89242  12.816  13.855  15.761
88378W        W89243  14.566  12.415  15.942
88379W        W89244  12.788  11.048  17.661
88380W        W89245  13.568  13.753  16.740
88381W        W89246  13.871  14.097  16.448
88382W        W89247  13.090  13.899  14.876
88383W        W89248  11.100  13.791  17.718
88384W        W89249  11.843  11.783  16.956
88385W        W89250  11.813  11.131  16.066
88386W        W89251  13.434  11.973  16.758
88387W        W89252  12.232  13.144  14.958
88388W        W89253  14.230  13.086  16.457
88389W        W89254  11.557  13.844  17.880
88390W        W89255  13.944  14.526  15.677
88391W        W89256  12.043  11.546  16.122
88392W        W89257  11.812  13.039  16.212
88393W        W89258  12.125  14.450  16.962
88394W        W89259  14.192  14.546  17.994
88395W        W89260  13.351  12.734  16.927
88396W        W89261  11.200  12.532  14.842
88397W        W89262  14.334  14.190  15.539
88398W        W89263  14.171  11.514  15.158
88399W        W89264  12.310  11.033  17.561
88400W        W89265  14.016  13.835  16.019
88401W        W89266  14.045  12.391  15.924
88402W        W89267  12.162  12.064  16.140
88403W        W89268  12.407  12.326  17.464
88404W        W89269  13.518  13.479  17.327
88405W        W89270  12.168  11.933  17.439
88406W        W89271  12.147  14.399  16.055
88407W        W89272  11.464  14.358  17.689
88408W        W89273  11.576  13.719  14.819
88409W        W89274  14.093  13.477  15.629
88410W        W89275  11.697  12.269  17.515
88411W        W89276  14.470  12.199  14.996
88412W        W89277  12.215  13.256  15.467
88413W        W89278  13.314  12.638  17.548
88414W        W89279  13.205  12.266  17.092
88415W        W89280  11.765  12.638  17.121
88416W        W89281  13.975  14.526  16.950
88417W        W89282  13.766  11.160  17.944
88418W        W89283  11.430  11.310  17.531
88419W        W89284  11.769  12.333  16.584
88420W        W89285  12.138  12.147  14.706
88421W        W89286  10.941  13.906  17.251
88422W        W89287  12.526  12.615  16.694
88423W        W89288  12.349  11.640  14.799
88424W        W89289  11.484  12.456  15.580
88425W        W89290  11.255  14.308  17.017
88426W        W89291  14.050  12.534  15.125
88427W        W89292  14.145  11.450  17.811
88428W        W89293  13.581  13.659  15.774
88429W        W89294  11.179  12.583  17.951
88430W        W89295  14.145  11.047  15.247
88431W        W89296  13.665  13.522  15.258
88432W        W89297  12.567  12.580  15.343
88433W        W89298  13.754  11.384  14.866
88434W        W89299  13.819  11.991  17.052
88435W        W89300  11.528  12.584  16.259
88436W        W89301  11.822  13.523  15.908
88437W        W89302  13.585  12.143  15.873
88438W        W89303  12.608  11.522  16.569
88439W        W89304  14.570  13.433  17.080
88440W        W89305  14.488  11.420  16.641
88441W        W89306  11.027  14.250  16.017
88442W        W89307  11.536  13.437  15.553
88443W        W89308  11.451  11.054  18.106
88444W        W89309  12.570  13.907  18.208
88445W        W89310  14.325  12.875  15.998
88446W        W89311  13.679  13.052  14.878
88447W        W89312  12.974  14.573  17.090
88448W        W89313  13.831  13.295  18.127
88449W        W89314  12.646  11.005  15.407
88450W        W89315  13.359  11.874  16.266
88451W        W89316  11.045  13.461  16.598
88452W        W89317  12.298  11.423  15.239
88453W        W89318  12.102  12.907  18.088
88454W        W89319  13.096  11.888  15.802
88455W        W89320  13.301  13.298  16.924
88456W        W89321  11.455  13.903  17.359
88457W        W89322  12.046  13.886  18.082
88458W        W89323  11.897  11.683  15.096
88459W        W89324  13.414  11.825  15.421
88460W        W89325  13.372  13.933  17.658
88461W        W89326  12.057  12.525  16.257
88462W        W89327  11.712  14.223  17.122
88463W        W89328  14.457  14.340  14.723
88464W        W89329  11.320  13.012  17.719
88465W        W89330  13.315  13.274  16.407
88466W        W89331  11.751  12.923  15.649
88467W        W89332  12.122  13.930  17.044
88468W        W89333  12.500  11.349  16.085
88469W        W89334  11.111  13.333  15.015
88470W        W89335  12.630  12.284  14.885
88471W        W89336  11.276  12.833  15.904
88472W        W89337  12.566  11.475  17.368
88473W        W89338  14.238  11.184  14.795
88474W        W89339  14.331  12.930  17.894
88475W        W89340  12.985  14.187  18.046
88476W        W89341  14.543  13.281  17.568
88477W        W89342  13.951  14.079  18.179
88478W        W89343  11.690  14.535  16.657
88479W        W89344  14.549  13.157  15.531
88480W        W89345  13.079  12.424  16.044
88481W        W89346  12.846  11.036  15.934
88482W        W89347  11.905  14.020  15.771
88483W        W89348  12.404  11.761  16.996
88484W        W89349  12.104  11.130  16.465
88485W        W89350  11.167  13.952  15.013
88486W        W89351  12.983  13.316  15.731
88487W        W89352  11.858  14.111  17.610
88488W        W89353  11.335  12.934  15.306
88489W        W89354  11.220  11.477  16.305
88490W        W89355  12.768  13.442  16.362
88491W        W89356  11.020  11.296  15.382
88492W        W89357  13.684  12.502  17.309
88493W        W89358  13.561  11.888  14.881
88494W        W89359  14.078  13.560  16.529
88495W        W89360  12.739  14.044  16.360
88496W        W89361  12.151  14.148  15.271
88497W        W89362  13.433  11.051  14.701
88498W        W89363  11.233  14.311  16.442
88499W        W89364  13.430  12.069  18.077
88500W        W89365  11.413  11.599  18.076
88501W        W89366  11.144  12.199  15.409
88502W        W89367  11.835  12.188  15.134
88503W        W89368  13.598  12.515  17.951
88504W        W89369  11.941  12.796  16.660
88505W        W89370  13.415  11.082  15.780
88506W        W89371  12.546  14.513  16.283
88507W        W89372  13.760  13.975  17.220
88508W        W89373  13.344  14.124  16.331
88509W        W89374  13.363  13.104  15.925
88510W        W89375  12.825  11.329  14.996
88511W        W89376  14.506  10.957  15.718
88512W        W89377  12.194  12.592  14.881
88513W        W89378  14.360  11.929  15.871
88514W        W89379  13.052  13.099  14.748
88515W        W89380  13.988  13.299  17.496
88516W        W89381  13.642  14.000  14.963
88517W        W89382  12.257  11.675  17.869
88518W        W89383  12.077  12.259  17.110
88519W        W89384  14.169  13.754  17.387
88520W        W89385  13.269  11.704  17.764
88521W        W89386  11.113  12.175  17.541
88522W        W89387  12.873  12.652  17.267
88523W        W89388  11.230  13.410  15.924
88524W        W89389  11.377  12.707  16.814
88525W        W89390  13.694  12.993  17.164
88526W        W89391  13.466  14.373  17.975
88527W        W89392  13.362  12.112  17.528
88528W        W89393  13.639  14.166  15.933
88529W        W89394  12.641  13.886  17.256
88530W        W89395  12.126  14.241  16.525
88531W        W89396  13.931  13.412  16.944
88532W        W89397  12.981  13.484  18.081
88533W        W89398  11.586  13.437  16.420
88534W        W89399  13.932  13.196  16.065
88535W        W89400  13.573  14.262  16.816
88536W        W89401  11.551  13.991  16.686
88537W        W89402  12.572  12.043  17.896
88538W        W89403  13.023  14.209  15.407
88539W        W89404  12.331  13.464  18.045
88540W        W89405  12.457  13.702  15.422
88541W        W89406  11.678  12.442  14.681
88542W        W89407  11.017  14.528  21.580
88543W        W89408  11.393  13.421  21.103
88544W        W89409  14.098  13.151  18.873
88545W        W89410  14.228  14.236  20.900
88546W        W89411  12.146  14.227  18.426
88547W        W89412  12.229  12.379  19.409
88548W        W89413  11.744  12.227  19.573
88549W        W89414  12.735  13.042  19.007
88550W        W89415  12.410  14.134  21.362
88551W        W89416  11.059  11.695  21.325
88552W        W89417  11.821  10.975  21.127
88553W        W89418  13.515  11.363  20.014
88554W        W89419  13.164  12.234  18.584
88555W        W89420  13.734  11.668  21.675
88556W        W89421  11.100  11.460  20.800
88557W        W89422  11.199  14.079  21.821
88558W        W89423  12.721  13.469  18.553
88559W        W89424  11.153  12.252  20.246
88560W        W89425  12.046  12.143  21.483
88561W        W89426  14.505  12.002  19.982
88562W        W89427  14.269  13.045  20.841
88563W        W89428  12.577  12.378  19.868
88564W        W89429  13.123  13.717  20.237
88565W        W89430  11.623  13.151  20.469
88566W        W89431  10.982  12.679  20.040
88567W        W89432  12.018  12.651  21.232
88568W        W89433  14.289  12.434  21.486
88569W        W89434  11.905  13.878  19.931
88570W        W89435  13.026  13.567  21.065
88571W        W89436  12.538  12.991  19.933
88572W        W89437  13.535  13.764  21.781
88573W        W89438  12.614  13.084  21.791
88574W        W89439  12.595  12.800  21.269
88575W        W89440  11.004  12.191  21.791
88576W        W89441  13.836  13.726  21.390
88577W        W89442  11.417  11.308  19.388
88578W        W89443  11.944  13.566  20.387
88579W        W89444  14.407  13.349  19.677
88580W        W89445  13.820  11.749  20.244
88581W        W89446  14.105  11.702  18.339
88582W        W89447  14.570  12.503  20.645
88583W        W89448  12.537  14.210  20.398
88584W        W89449  14.311  13.676  18.836
88585W        W89450  11.440  14.462  18.590
88586W        W89451  11.833  14.508  19.266
88587W        W89452  11.630  11.262  20.692
88588W        W89453  14.253  12.280  20.967
88589W        W89454  13.658  12.702  19.426
88590W        W89455  13.624  12.390  18.453
88591W        W89456  12.832  13.534  20.593
88592W        W89457  12.638  11.864  19.792
88593W        W89458  13.238  13.951  20.786
88594W        W89459  14.109  12.742  19.208
88595W        W89460  13.011  11.400  19.224
88596W        W89461  11.668  14.094  18.907
88597W        W89462  11.039  11.593  19.506
88598W        W89463  13.825  12.200  19.980
88599W        W89464  11.283  13.817  19.895
88600W        W89465  12.624  14.167  18.765
88601W        W89466  14.016  12.193  18.229
88602W        W89467  11.039  13.951  20.393
88603W        W89468  11.830  13.523  20.873
88604W        W89469  12.203  12.883  19.492
88605W        W89470  12.225  11.288  20.585
88606W        W89471  14.454  11.050  19.882
88607W        W89472  11.673  12.922  18.350
88608W        W89473  11.328  11.955  18.529
88609W        W89474  11.390  13.911  19.323
88610W        W89475  12.521  13.394  19.571
88611W        W89476  13.853  14.253  21.285
88612W        W89477  12.779  11.895  18.969
88613W        W89478  14.162  14.293  19.741
88614W        W89479  13.839  12.146  21.339
88615W        W89480  14.552  13.802  19.473
88616W        W89481  13.179  13.094  20.957
88617W        W89482  10.945  12.645  19.163
88618W        W89483  12.056  13.060  20.736
88619W        W89484  13.260  12.324  19.114
88620W        W89485  13.137  12.814  19.218
88621W        W89486  11.480  12.234  20.692
88622W        W89487  11.465  12.110  21.614
88623W        W89488  11.355  11.027  19.773
88624W        W89489  13.123  11.374  20.334
88625W        W89490  12.771  11.559  21.497
88626W        W89491  13.126  11.708  18.675
88627W        W89492  14.309  14.101  21.429
88628W        W89493  13.276  11.182  21.468
88629W        W89494  14.295  13.483  21.590
88630W        W89495  13.725  11.650  21.186
88631W        W89496  13.525  11.588  19.456
88632W        W89497  13.918  12.722  21.860
88633W        W89498  11.658  14.298  19.846
88634W        W89499  12.316  12.015  18.832
88635W        W89500  11.885  11.299  21.496
88636W        W89501  13.937  11.783  19.177
88637W        W89502  14.304  12.265  19.122
88638W        W89503  12.047  14.482  21.593
88639W        W89504  11.973  11.018  18.828
88640W        W89505  14.294  11.552  19.863
88641W        W89506  14.444  13.801  18.308
88642W        W89507  11.351  13.004  20.010
88643W        W89508  13.268  11.591  18.240
88644W        W89509  14.402  13.923  19.960
88645W        W89510  14.441  11.117  20.710
88646W        W89511  12.886  12.329  21.264
88647W        W89512  12.979  13.668  18.967
88648W        W89513  13.379  12.962  21.707
88649W        W89514  13.053  10.939  20.016
88650W        W89515  11.665  11.842  20.079
88651W        W89516  11.219  13.042  20.853
88652W        W89517  13.078  14.235  19.559
88653W        W89518  14.272  11.832  20.431
88654W        W89519  12.909  14.179  21.198
88655W        W89520  14.252  13.238  18.403
88656W        W89521  12.687  12.721  19.464
88657W        W89522  14.539  11.232  21.205
88658W        W89523  12.688  13.067  20.799
88659W        W89524  12.905  11.953  20.244
88660W        W89525  13.757  12.251  19.082
88661W        W89526  14.044  11.984  18.724
88662W        W89527  13.853  14.024  19.113
88663W        W89528  13.687  13.627  19.909
88664W        W89529  13.583  12.706  18.887
88665W        W89530  13.016  12.916  19.873
88666W        W89531  13.897  12.704  19.940
88667W        W89532  11.272  11.719  20.364
88668W        W89533  14.050  12.771  21.191
88669W        W89534  14.401  14.389  20.337
88670W        W89535  12.331  13.833  19.739
88671W        W89536  13.338  14.366  21.063
88672W        W89537  13.332  11.696  20.827
88673W        W89538  12.539  14.404  20.888
88674W        W89539  14.236  11.358  19.354
88675W        W89540  14.027  12.677  20.655
88676W        W89541  11.010  11.998  20.693
88677W        W89542  13.870  11.793  19.711
88678W        W89543  14.281  11.944  21.488
88679W        W89544  13.166  13.643  19.706
88680W        W89545  12.422  14.234  19.319
88681W        W89546  11.537  11.414  18.577
88682W        W89547  12.641  11.068  20.387
88683W        W89548  11.669  14.188  18.235
88684W        W89549  12.043  12.654  18.986
88685W        W89550  12.697  13.283  21.299
88686W        W89551  12.527  11.641  19.289
88687W        W89552  13.883  11.238  19.717
88688W        W89553  13.603  14.520  20.045
88689W        W89554  13.015  14.168  20.385
88690W        W89555  12.411  13.205  20.346
88691W        W89556  14.181  13.928  20.472
88692W        W89557  11.875  11.431  19.241
88693W        W89558  12.397  13.728  20.201
88694W        W89559  11.880  11.659  18.266
88695W        W89560  12.681  12.268  20.660
88696W        W89561  13.529  11.134  20.530
88697W        W89562  10.949  12.977  20.415
88698W        W89563  12.653  12.795  18.573
88699W        W89564  11.921  11.110  18.343
88700W        W89565  12.659  12.191  19.394
88701W        W89566  13.629  11.167  21.093
88702W        W89567  12.217  13.179  21.202
88703W        W89568  13.021  12.961  21.419
88704W        W89569  13.638  12.991  21.312
88705W        W89570  12.922  11.131  21.817
88706W        W89571  12.144  11.747  20.210
88707W        W89572  11.570  11.703  19.608
88708W        W89573  11.356  14.415  19.284
88709W        W89574  12.688  13.745  21.409
88710W        W89575  11.723  13.230  18.768
88711W        W89576  13.403  12.615  19.989
88712W        W89577  13.683  12.414  20.388
88713W        W89578  12.888  13.088  20.322
88714W        W89579  13.358  13.462  18.454
88715W        W89580  13.030  11.483  19.782
88716W        W89581  14.509  11.761  19.050
88717W        W89582  11.003  14.350  21.081
88718W        W89583  11.420  13.576  20.613
88719W        W89584  10.987  14.422  18.845
88720W        W89585  12.886  11.692  20.651
88721W        W89586  12.249  13.715  18.500
88722W        W89587  14.154  14.097  18.686
88723W        W89588  13.129  12.750  18.700
88724W        W89589  11.972  11.941  19.217
88725W        W89590  12.804  11.851  18.269
88726W        W89591  13.388  13.416  21.447
88727W        W89592  13.741  11.322  19.064
88728W        W89593  11.071  11.170  18.512
88729W        W89594  12.357  13.489  20.802
88730W        W89595  12.156  13.405  19.894
88731W        W89596  11.898  13.357  18.292
88732W        W89597  11.139  13.598  19.060
88733W        W89598  11.643  12.668  21.502
88734W        W89599  12.347  11.228  21.688
88735W        W89600  13.056  11.370  21.044
88736W        W89601  12.251  11.138  19.325
88737W        W89602  13.310  11.215  18.830
88738W        W89603  11.255  11.147  20.407
88739W        W89604  11.303  12.110  19.777
88740W        W89605  13.992  11.218  20.183
88741W        W89606  11.414  11.716  18.997
88742W        W89607  13.985  11.404  20.613
88743W        W89608  14.381  12.607  18.298
88744W        W89609  11.673  11.365  20.117
88745W        W89610  12.787  11.937  21.057
88746W        W89611  10.935  11.627  18.535
88747W        W89612  11.721  13.016  21.096
88748W        W89613  13.079  12.414  20.275
88749W        W89614  12.946  14.493  18.571
88750W        W89615  11.092  13.000  18.268
88751W        W89616  11.827  13.411  21.394
88752W        W89617  11.348  12.578  21.025
88753W        W89618  12.339  12.683  20.819
88754W        W89619  14.107  11.042  21.081
88755W        W89620  14.505  12.652  21.072
88756W        W89621  14.493  12.852  18.758
88757W        W89622  13.356  13.184  18.857
88758W        W89623  13.830  14.484  18.552
88759W        W89624  13.007  12.474  21.694
88760W        W89625  11.337  13.441  21.734
88761W        W89626  14.543  11.363  21.686
88762W        W89627  14.261  12.291  20.307
88763W        W89628  12.569  14.421  21.784
88764W        W89629  12.424  11.050  18.511
88765W        W89630  13.963  13.649  18.454
88766W        W89631  11.732  11.742  21.340
88767W        W89632  12.166  13.736  21.202
88768W        W89633  14.292  11.727  21.000
88769W        W89634  13.503  14.386  18.968
88770W        W89635  13.742  13.005  20.335
88771W        W89636  11.992  11.421  21.002
88772W        W89637  12.461  12.490  21.759
88773W        W89638  11.964  13.669  18.953
88774W        W89639  13.719  13.167  19.217
88775W        W89640  11.487  11.793  20.941
88776W        W89641  12.816  13.855  19.405
88777W        W89642  14.566  12.415  19.586
88778W        W89643  12.788  11.048  21.305
88779W        W89644  13.568  13.753  20.384
88780W        W89645  13.871  14.097  20.092
88781W        W89646  13.090  13.899  18.520
88782W        W89647  11.100  13.791  21.362
88783W        W89648  11.843  11.783  20.600
88784W        W89649  11.813  11.131  19.710
88785W        W89650  13.434  11.973  20.402
88786W        W89651  12.232  13.144  18.602
88787W        W89652  14.230  13.086  20.101
88788W        W89653  11.557  13.844  21.524
88789W        W89654  13.944  14.526  19.321
88790W        W89655  12.043  11.546  19.766
88791W        W89656  11.812  13.039  19.856
88792W        W89657  12.125  14.450  20.606
88793W        W89658  14.192  14.546  21.638
88794W        W89659  13.351  12.734  20.571
88795W        W89660  11.200  12.532  18.486
88796W        W89661  14.334  14.190  19.183
88797W        W89662  14.171  11.514  18.802
88798W        W89663  12.310  11.033  21.205
88799W        W89664  14.016  13.835  19.663
88800W        W89665  14.045  12.391  19.568
88801W        W89666  12.162  12.064  19.784
88802W        W89667  12.407  12.326  21.108
88803W        W89668  13.518  13.479  20.971
88804W        W89669  12.168  11.933  21.083
88805W        W89670  12.147  14.399  19.699
88806W        W89671  11.464  14.358  21.333
88807W        W89672  11.576  13.719  18.463
88808W        W89673  14.093  13.477  19.273
88809W        W89674  11.697  12.269  21.159
88810W        W89675  14.470  12.199  18.640
88811W        W89676  12.215  13.256  19.111
88812W        W89677  13.314  12.638  21.192
88813W        W89678  13.205  12.266  20.736
88814W        W89679  11.765  12.638  20.765
88815W        W89680  13.975  14.526  20.594
88816W        W89681  13.766  11.160  21.588
88817W        W89682  11.430  11.310  21.175
88818W        W89683  11.769  12.333  20.228
88819W        W89684  12.138  12.147  18.350
88820W        W89685  10.941  13.906  20.895
88821W        W89686  12.526  12.615  20.338
88822W        W89687  12.349  11.640  18.443
88823W        W89688  11.484  12.456  19.224
88824W        W89689  11.255  14.308  20.661
88825W        W89690  14.050  12.534  18.769
88826W        W89691  14.145  11.450  21.455
88827W        W89692  13.581  13.659  19.418
88828W        W89693  11.179  12.583  21.595
88829W        W89694  14.145  11.047  18.891
88830W        W89695  13.665  13.522  18.902
88831W        W89696  12.567  12.580  18.987
88832W        W89697  13.754  11.384  18.510
88833W        W89698  13.819  11.991  20.696
88834W        W89699  11.528  12.584  19.903
88835W        W89700  11.822  13.523  19.552
88836W        W89701  13.585  12.143  19.517
88837W        W89702  12.608  11.522  20.213
88838W        W89703  14.570  13.433  20.724
88839W        W89704  14.488  11.420  20.285
88840W        W89705  11.027  14.250  19.661
88841W        W89706  11.536  13.437  19.197
88842W        W89707  11.451  11.054  21.750
88843W        W89708  12.570  13.907  21.852
88844W        W89709  14.325  12.875  19.642
88845W        W89710  13.679  13.052  18.522
88846W        W89711  12.974  14.573  20.734
88847W        W89712  13.831  13.295  21.771
88848W        W89713  12.646  11.005  19.051
88849W        W89714  13.359  11.874  19.910
88850W        W89715  11.045  13.461  20.242
88851W        W89716  12.298  11.423  18.883
88852W        W89717  12.102  12.907  21.732
88853W        W89718  13.096  11.888  19.446
88854W        W89719  13.301  13.298  20.568
88855W        W89720  11.455  13.903  21.003
88856W        W89721  12.046  13.886  21.726
88857W        W89722  11.897  11.683  18.740
88858W        W89723  13.414  11.825  19.065
88859W        W89724  13.372  13.933  21.302
88860W        W89725  12.057  12.525  19.901
88861W        W89726  11.712  14.223  20.766
88862W        W89727  14.457  14.340  18.367
88863W        W89728  11.320  13.012  21.363
88864W        W89729  13.315  13.274  20.051
88865W        W89730  11.751  12.923  19.293
88866W        W89731  12.122  13.930  20.688
88867W        W89732  12.500  11.349  19.729
88868W        W89733  11.111  13.333  18.659
88869W        W89734  12.630  12.284  18.529
88870W        W89735  11.276  12.833  19.548
88871W        W89736  12.566  11.475  21.012
88872W        W89737  14.238  11.184  18.439
88873W        W89738  14.331  12.930  21.538
88874W        W89739  12.985  14.187  21.690
88875W        W89740  14.543  13.281  21.212
88876W        W89741  13.951  14.079  21.823
88877W        W89742  11.690  14.535  20.301
88878W        W89743  14.549  13.157  19.175
88879W        W89744  13.079  12.424  19.688
88880W        W89745  12.846  11.036  19.578
88881W        W89746  11.905  14.020  19.415
88882W        W89747  12.404  11.761  20.640
88883W        W89748  12.104  11.130  20.109
88884W        W89749  11.167  13.952  18.657
88885W        W89750  12.983  13.316  19.375
88886W        W89751  11.858  14.111  21.254
88887W        W89752  11.335  12.934  18.950
88888W        W89753  11.220  11.477  19.949
88889W        W89754  12.768  13.442  20.006
88890W        W89755  11.020  11.296  19.026
88891W        W89756  13.684  12.502  20.953
88892W        W89757  13.561  11.888  18.525
88893W        W89758  14.078  13.560  20.173
88894W        W89759  12.739  14.044  20.004
88895W        W89760  12.151  14.148  18.915
88896W        W89761  13.433  11.051  18.345
88897W        W89762  11.233  14.311  20.086
88898W        W89763  13.430  12.069  21.721
88899W        W89764  11.413  11.599  21.720
88900W        W89765  11.144  12.199  19.053
88901W        W89766  11.835  12.188  18.778
88902W        W89767  13.598  12.515  21.595
88903W        W89768  11.941  12.796  20.304
88904W        W89769  13.415  11.082  19.424
88905W        W89770  12.546  14.513  19.927
88906W        W89771  13.760  13.975  20.864
88907W        W89772  13.344  14.124  19.975
88908W        W89773  13.363  13.104  19.569
88909W        W89774  12.825  11.329  18.640
88910W        W89775  14.506  10.957  19.362
88911W        W89776  12.194  12.592  18.525
88912W        W89777  14.360  11.929  19.515
88913W        W89778  13.052  13.099  18.392
88914W        W89779  13.988  13.299  21.140
88915W        W89780  13.642  14.000  18.607
88916W        W89781  12.257  11.675  21.513
88917W        W89782  12.077  12.259  20.754
88918W        W89783  14.169  13.754  21.031
88919W        W89784  13.269  11.704  21.408
88920W        W89785  11.113  12.175  21.185
88921W        W89786  12.873  12.652  20.911
88922W        W89787  11.230  13.410  19.568
88923W        W89788  11.377  12.707  20.458
88924W        W89789  13.694  12.993  20.808
88925W        W89790  13.466  14.373  21.619
88926W        W89791  13.362  12.112  21.172
88927W        W89792  13.639  14.166  19.577
88928W        W89793  12.641  13.886  20.900
88929W        W89794  12.126  14.241  20.169
88930W        W89795  13.931  13.412  20.588
88931W        W89796  12.981  13.484  21.725
88932W        W89797  11.586  13.437  20.064
88933W        W89798  13.932  13.196  19.709
88934W        W89799  13.573  14.262  20.460
88935W        W89800  11.551  13.991  20.330
88936W        W89801  12.572  12.043  21.540
88937W        W89802  13.023  14.209  19.051
88938W        W89803  12.331  13.464  21.689
88939W        W89804  12.457  13.702  19.066
88940W        W89805  11.678  12.442  18.325
88941W        W89806  11.017  14.528  25.225
88942W        W89807  11.393  13.421  24.748
88943W        W89808  14.098  13.151  22.518
88944W        W89809  14.228  14.236  24.545
88945W        W89810  12.146  14.227  22.071
88946W        W89811  12.229  12.379  23.054
88947W        W89812  11.744  12.227  23.218
88948W        W89813  12.735  13.042  22.652
88949W        W89814  12.410  14.134  25.007
88950W        W89815  11.059  11.695  24.970
88951W        W89816  11.821  10.975  24.772
88952W        W89817  13.515  11.363  23.659
88953W        W89818  13.164  12.234  22.229
88954W        W89819  13.734  11.668  25.320
88955W        W89820  11.100  11.460  24.445
88956W        W89821  11.199  14.079  25.466
88957W        W89822  12.721  13.469  22.198
88958W        W89823  11.153  12.252  23.891
88959W        W89824  12.046  12.143  25.128
88960W        W89825  14.505  12.002  23.627
88961W        W89826  14.269  13.045  24.486
88962W        W89827  12.577  12.378  23.513
88963W        W89828  13.123  13.717  23.882
88964W        W89829  11.623  13.151  24.114
88965W        W89830  10.982  12.679  23.685
88966W        W89831  12.018  12.651  24.877
88967W        W89832  14.289  12.434  25.131
88968W        W89833  11.905  13.878  23.576
88969W        W89834  13.026  13.567  24.710
88970W        W89835  12.246  12.207  23.935
88971W        W89836  12.538  12.991  23.578
88972W        W89837  13.535  13.764  25.426
88973W        W89838  12.614  13.084  25.436
88974W        W89839  12.595  12.800  24.914
88975W        W89840  11.004  12.191  25.436
88976W        W89841  13.836  13.726  25.035
88977W        W89842  11.417  11.308  23.033
88978W        W89843  11.944  13.566  24.032
88979W        W89844  14.407  13.349  23.322
88980W        W89845  13.820  11.749  23.889
88981W        W89846  14.105  11.702  21.984
88982W        W89847  14.570  12.503  24.290
88983W        W89848  12.537  14.210  24.043
88984W        W89849  14.311  13.676  22.481
88985W        W89850  11.440  14.462  22.235
88986W        W89851  11.833  14.508  22.911
88987W        W89852  11.630  11.262  24.337
88988W        W89853  14.253  12.280  24.612
88989W        W89854  13.658  12.702  23.071
88990W        W89855  13.624  12.390  22.098
88991W        W89856  12.832  13.534  24.238
88992W        W89857  12.638  11.864  23.437
88993W        W89858  13.238  13.951  24.431
88994W        W89859  14.109  12.742  22.853
88995W        W89860  13.011  11.400  22.869
88996W        W89861  11.668  14.094  22.552
88997W        W89862  11.039  11.593  23.151
88998W        W89863  13.825  12.200  23.625
88999W        W89864  11.283  13.817  23.540
89000W        W89865  12.624  14.167  22.410
89001W        W89866  14.016  12.193  21.874
89002W        W89867  11.039  13.951  24.038
89003W        W89868  11.830  13.523  24.518
89004W        W89869  12.203  12.883  23.137
89005W        W89870  12.225  11.288  24.230
89006W        W89871  14.454  11.050  23.527
89007W        W89872  11.673  12.922  21.995
89008W        W89873  11.328  11.955  22.174
89009W        W89874  11.390  13.911  22.968
89010W        W89875  12.521  13.394  23.216
89011W        W89876  13.853  14.253  24.930
89012W        W89877  12.779  11.895  22.614
89013W        W89878  14.162  14.293  23.386
89014W        W89879  13.839  12.146  24.984
89015W        W89880  14.552  13.802  23.118
89016W        W89881  13.179  13.094  24.602
89017W        W89882  10.945  12.645  22.808
89018W        W89883  12.056  13.060  24.381
89019W        W89884  13.260  12.324  22.759
89020W        W89885  13.137  12.814  22.863
89021W        W89886  11.480  12.234  24.337
89022W        W89887  11.465  12.110  25.259
89023W        W89888  11.355  11.027  23.418
89024W        W89889  13.123  11.374  23.979
89025W        W89890  12.771  11.559  25.142
89026W        W89891  13.126  11.708  22.320
89027W        W89892  14.309  14.101  25.074
89028W        W89893  13.276  11.182  25.113
89029W        W89894  14.295  13.483  25.235
89030W        W89895  13.725  11.650  24.831
89031W        W89896  13.525  11.588  23.101
89032W        W89897  13.918  12.722  25.505
89033W        W89898  11.658  14.298  23.491
89034W        W89899  12.316  12.015  22.477
89035W        W89900  11.885  11.299  25.141
89036W        W89901  13.937  11.783  22.822
89037W        W89902  14.304  12.265  22.767
89038W        W89903  12.047  14.482  25.238
89039W        W89904  11.973  11.018  22.473
89040W        W89905  14.294  11.552  23.508
89041W        W89906  14.444  13.801  21.953
89042W        W89907  11.351  13.004  23.655
89043W        W89908  13.268  11.591  21.885
89044W        W89909  14.402  13.923  23.605
89045W        W89910  14.441  11.117  24.355
89046W        W89911  12.886  12.329  24.909
89047W        W89912  12.979  13.668  22.612
89048W        W89913  13.379  12.962  25.352
89049W        W89914  13.053  10.939  23.661
89050W        W89915  11.665  11.842  23.724
89051W        W89916  11.219  13.042  24.498
89052W        W89917  13.078  14.235  23.204
89053W        W89918  14.272  11.832  24.076
89054W        W89919  12.909  14.179  24.843
89055W        W89920  14.252  13.238  22.048
89056W        W89921  12.687  12.721  23.109
89057W        W89922  14.539  11.232  24.850
89058W        W89923  12.688  13.067  24.444
89059W        W89924  12.905  11.953  23.889
89060W        W89925  13.757  12.251  22.727
89061W        W89926  14.044  11.984  22.369
89062W        W89927  13.853  14.024  22.758
89063W        W89928  13.687  13.627  23.554
89064W        W89929  13.583  12.706  22.532
89065W        W89930  13.016  12.916  23.518
89066W        W89931  13.897  12.704  23.585
89067W        W89932  11.272  11.719  24.009
89068W        W89933  14.050  12.771  24.836
89069W        W89934  14.401  14.389  23.982
89070W        W89935  12.331  13.833  23.384
89071W        W89936  13.338  14.366  24.708
89072W        W89937  13.332  11.696  24.472
89073W        W89938  12.539  14.404  24.533
89074W        W89939  14.236  11.358  22.999
89075W        W89940  14.027  12.677  24.300
89076W        W89941  11.010  11.998  24.338
89077W        W89942  13.870  11.793  23.356
89078W        W89943  14.281  11.944  25.133
89079W        W89944  13.166  13.643  23.351
89080W        W89945  12.422  14.234  22.964
89081W        W89946  11.537  11.414  22.222
89082W        W89947  12.641  11.068  24.032
89083W        W89948  11.669  14.188  21.880
89084W        W89949  12.043  12.654  22.631
89085W        W89950  12.697  13.283  24.944
89086W        W89951  12.527  11.641  22.934
89087W        W89952  13.883  11.238  23.362
89088W        W89953  13.603  14.520  23.690
89089W        W89954  13.015  14.168  24.030
89090W        W89955  12.411  13.205  23.991
89091W        W89956  14.181  13.928  24.117
89092W        W89957  11.875  11.431  22.886
89093W        W89958  12.397  13.728  23.846
89094W        W89959  11.880  11.659  21.911
89095W        W89960  12.681  12.268  24.305
89096W        W89961  13.529  11.134  24.175
89097W        W89962  10.949  12.977  24.060
89098W        W89963  12.653  12.795  22.218
89099W        W89964  11.921  11.110  21.988
89100W        W89965  12.659  12.191  23.039
89101W        W89966  13.629  11.167  24.738
89102W        W89967  12.217  13.179  24.847
89103W        W89968  13.021  12.961  25.064
89104W        W89969  13.638  12.991  24.957
89105W        W89970  12.922  11.131  25.462
89106W        W89971  12.144  11.747  23.855
89107W        W89972  11.570  11.703  23.253
89108W        W89973  11.356  14.415  22.929
89109W        W89974  12.688  13.745  25.054
89110W        W89975  11.723  13.230  22.413
89111W        W89976  13.403  12.615  23.634
89112W        W89977  13.683  12.414  24.033
89113W        W89978  12.888  13.088  23.967
89114W        W89979  13.358  13.462  22.099
89115W        W89980  13.030  11.483  23.427
89116W        W89981  14.509  11.761  22.695
89117W        W89982  11.003  14.350  24.726
89118W        W89983  11.420  13.576  24.258
89119W        W89984  10.987  14.422  22.490
89120W        W89985  12.886  11.692  24.296
89121W        W89986  12.249  13.715  22.145
89122W        W89987  14.154  14.097  22.331
89123W        W89988  13.129  12.750  22.345
89124W        W89989  11.972  11.941  22.862
89125W        W89990  12.804  11.851  21.914
89126W        W89991  13.388  13.416  25.092
89127W        W89992  13.741  11.322  22.709
89128W        W89993  11.071  11.170  22.157
89129W        W89994  12.357  13.489  24.447
89130W        W89995  12.156  13.405  23.539
89131W        W89996  11.898  13.357  21.937
89132W        W89997  11.139  13.598  22.705
89133W        W89998  11.643  12.668  25.147
89134W        W89999  12.347  11.228  25.333
89135W        W90000  13.056  11.370  24.689
89136W        W90001  12.251  11.138  22.970
89137W        W90002  13.310  11.215  22.475
89138W        W90003  11.255  11.147  24.052
89139W        W90004  11.303  12.110  23.422
89140W        W90005  13.992  11.218  23.828
89141W        W90006  11.414  11.716  22.642
89142W        W90007  13.985  11.404  24.258
89143W        W90008  14.381  12.607  21.943
89144W        W90009  11.673  11.365  23.762
89145W        W90010  12.787  11.937  24.702
89146W        W90011  10.935  11.627  22.180
89147W        W90012  11.721  13.016  24.741
89148W        W90013  13.079  12.414  23.920
89149W        W90014  12.946  14.493  22.216
89150W        W90015  11.092  13.000  21.913
89151W        W90016  11.827  13.411  25.039
89152W        W90017  11.348  12.578  24.670
89153W        W90018  12.339  12.683  24.464
89154W        W90019  14.107  11.042  24.726
89155W        W90020  14.505  12.652  24.717
89156W        W90021  14.493  12.852  22.403
89157W        W90022  13.356  13.184  22.502
89158W        W90023  13.830  14.484  22.197
89159W        W90024  13.007  12.474  25.339
89160W        W90025  11.337  13.441  25.379
89161W        W90026  14.543  11.363  25.331
89162W        W90027  14.261  12.291  23.952
89163W        W90028  12.569  14.421  25.429
89164W        W90029  12.424  11.050  22.156
89165W        W90030  13.963  13.649  22.099
89166W        W90031  11.732  11.742  24.985
89167W        W90032  12.166  13.736  24.847
89168W        W90033  14.292  11.727  24.645
89169W        W90034  13.503  14.386  22.613
89170W        W90035  13.742  13.005  23.980
89171W        W90036  11.992  11.421  24.647
89172W        W90037  12.461  12.490  25.404
89173W        W90038  11.964  13.669  22.598
89174W        W90039  13.719  13.167  22.862
89175W        W90040  11.487  11.793  24.586
89176W        W90041  12.816  13.855  23.050
89177W        W90042  14.566  12.415  23.231
89178W        W90043  12.788  11.048  24.950
89179W        W90044  13.568  13.753  24.029
89180W        W90045  13.871  14.097  23.737
89181W        W90046  13.090  13.899  22.165
89182W        W90047  11.100  13.791  25.007
89183W        W90048  11.843  11.783  24.245
89184W        W90049  11.813  11.131  23.355
89185W        W90050  13.434  11.973  24.047
89186W        W90051  12.232  13.144  22.247
89187W        W90052  14.230  13.086  23.746
89188W        W90053  11.557  13.844  25.169
89189W        W90054  13.944  14.526  22.966
89190W        W90055  12.043  11.546  23.411
89191W        W90056  11.812  13.039  23.501
89192W        W90057  12.125  14.450  24.251
89193W        W90058  14.192  14.546  25.283
89194W        W90059  13.351  12.734  24.216
89195W        W90060  11.200  12.532  22.131
89196W        W90061  14.334  14.190  22.828
89197W        W90062  14.171  11.514  22.447
89198W        W90063  12.310  11.033  24.850
89199W        W90064  14.016  13.835  23.308
89200W        W90065  14.045  12.391  23.213
89201W        W90066  12.162  12.064  23.429
89202W        W90067  12.407  12.326  24.753
89203W        W90068  13.518  13.479  24.616
89204W        W90069  12.168  11.933  24.728
89205W        W90070  12.147  14.399  23.344
89206W        W90071  11.464  14.358  24.978
89207W        W90072  11.576  13.719  22.108
89208W        W90073  14.093  13.477  22.918
89209W        W90074  11.697  12.269  24.804
89210W        W90075  14.470  12.199  22.285
89211W        W90076  12.215  13.256  22.756
89212W        W90077  13.314  12.638  24.837
89213W        W90078  13.205  12.266  24.381
89214W        W90079  11.765  12.638  24.410
89215W        W90080  13.975  14.526  24.239
89216W        W90081  13.766  11.160  25.233
89217W        W90082  11.430  11.310  24.820
89218W        W90083  11.769  12.333  23.873
89219W        W90084  12.138  12.147  21.995
89220W        W90085  10.941  13.906  24.540
89221W        W90086  12.526  12.615  23.983
89222W        W90087  12.349  11.640  22.088
89223W        W90088  11.484  12.456  22.869
89224W        W90089  11.255  14.308  24.306
89225W        W90090  14.050  12.534  22.414
89226W        W90091  14.145  11.450  25.100
89227W        W90092  13.581  13.659  23.063
89228W        W90093  11.179  12.583  25.240
89229W        W90094  14.145  11.047  22.536
89230W        W90095  13.665  13.522  22.547
89231W        W90096  12.567  12.580  22.632
89232W        W90097  13.754  11.384  22.155
89233W        W90098  13.819  11.991  24.341
89234W        W90099  11.528  12.584  23.548
89235W        W90100  11.822  13.523  23.197
89236W        W90101  13.585  12.143  23.162
89237W        W90102  12.608  11.522  23.858
89238W        W90103  14.570  13.433  24.369
89239W        W90104  14.488  11.420  23.930
89240W        W90105  11.027  14.250  23.306
89241W        W90106  11.536  13.437  22.842
89242W        W90107  11.451  11.054  25.395
89243W        W90108  12.570  13.907  25.497
89244W        W90109  14.325  12.875  23.287
89245W        W90110  13.679  13.052  22.167
89246W        W90111  12.974  14.573  24.379
89247W        W90112  13.831  13.295  25.416
89248W        W90113  12.646  11.005  22.696
89249W        W90114  13.359  11.874  23.555
89250W        W90115  11.045  13.461  23.887
89251W        W90116  12.298  11.423  22.528
89252W        W90117  12.102  12.907  25.377
89253W        W90118  13.096  11.888  23.091
89254W        W90119  13.301  13.298  24.213
89255W        W90120  11.455  13.903  24.648
89256W        W90121  12.046  13.886  25.371
89257W        W90122  11.897  11.683  22.385
89258W        W90123  13.414  11.825  22.710
89259W        W90124  13.372  13.933  24.947
89260W        W90125  12.057  12.525  23.546
89261W        W90126  11.712  14.223  24.411
89262W        W90127  14.457  14.340  22.012
89263W        W90128  11.320  13.012  25.008
89264W        W90129  13.315  13.274  23.696
89265W        W90130  11.751  12.923  22.938
89266W        W90131  12.122  13.930  24.333
89267W        W90132  12.500  11.349  23.374
89268W        W90133  11.111  13.333  22.304
89269W        W90134  12.630  12.284  22.174
89270W        W90135  11.276  12.833  23.193
89271W        W90136  12.566  11.475  24.657
89272W        W90137  14.238  11.184  22.084
89273W        W90138  14.331  12.930  25.183
89274W        W90139  12.985  14.187  25.335
89275W        W90140  14.543  13.281  24.857
89276W        W90141  13.951  14.079  25.468
89277W        W90142  11.690  14.535  23.946
89278W        W90143  14.549  13.157  22.820
89279W        W90144  13.079  12.424  23.333
89280W        W90145  12.846  11.036  23.223
89281W        W90146  11.905  14.020  23.060
89282W        W90147  12.404  11.761  24.285
89283W        W90148  12.104  11.130  23.754
89284W        W90149  11.167  13.952  22.302
89285W        W90150  12.983  13.316  23.020
89286W        W90151  11.858  14.111  24.899
89287W        W90152  11.335  12.934  22.595
89288W        W90153  11.220  11.477  23.594
89289W        W90154  12.768  13.442  23.651
89290W        W90155  11.020  11.296  22.671
89291W        W90156  13.684  12.502  24.598
89292W        W90157  13.561  11.888  22.170
89293W        W90158  14.078  13.560  23.818
89294W        W90159  12.739  14.044  23.649
89295W        W90160  12.151  14.148  22.560
89296W        W90161  13.433  11.051  21.990
89297W        W90162  11.233  14.311  23.731
89298W        W90163  13.430  12.069  25.366
89299W        W90164  11.413  11.599  25.365
89300W        W90165  11.144  12.199  22.698
89301W        W90166  11.835  12.188  22.423
89302W        W90167  13.598  12.515  25.240
89303W        W90168  11.941  12.796  23.949
89304W        W90169  13.415  11.082  23.069
89305W        W90170  12.546  14.513  23.572
89306W        W90171  13.760  13.975  24.509
89307W        W90172  13.344  14.124  23.620
89308W        W90173  13.363  13.104  23.214
89309W        W90174  12.825  11.329  22.285
89310W        W90175  14.506  10.957  23.007
89311W        W90176  12.194  12.592  22.170
89312W        W90177  14.360  11.929  23.160
89313W        W90178  13.052  13.099  22.037
89314W        W90179  13.988  13.299  24.785
89315W        W90180  13.642  14.000  22.252
89316W        W90181  12.257  11.675  25.158
89317W        W90182  12.077  12.259  24.399
89318W        W90183  14.169  13.754  24.676
89319W        W90184  13.269  11.704  25.053
89320W        W90185  11.113  12.175  24.830
89321W        W90186  12.873  12.652  24.556
89322W        W90187  11.230  13.410  23.213
89323W        W90188  11.377  12.707  24.103
89324W        W90189  13.694  12.993  24.453
89325W        W90190  13.466  14.373  25.264
89326W        W90191  13.362  12.112  24.817
89327W        W90192  13.639  14.166  23.222
89328W        W90193  12.641  13.886  24.545
89329W        W90194  12.126  14.241  23.814
89330W        W90195  13.931  13.412  24.233
89331W        W90196  12.981  13.484  25.370
89332W        W90197  11.586  13.437  23.709
89333W        W90198  13.932  13.196  23.354
89334W        W90199  13.573  14.262  24.105
89335W        W90200  11.551  13.991  23.975
89336W        W90201  12.572  12.043  25.185
89337W        W90202  13.023  14.209  22.696
89338W        W90203  12.331  13.464  25.334
89339W        W90204  12.457  13.702  22.711
89340W        W90205  11.678  12.442  21.970
89341W        W90206  11.017  14.528  28.869
89342W        W90207  11.393  13.421  28.392
89343W        W90208  14.098  13.151  26.162
89344W        W90209  14.228  14.236  28.189
89345W        W90210  12.146  14.227  25.715
89346W        W90211  12.229  12.379  26.698
89347W        W90212  11.744  12.227  26.862
89348W        W90213  12.735  13.042  26.296
89349W        W90214  12.410  14.134  28.651
89350W        W90215  11.059  11.695  28.614
89351W        W90216  11.821  10.975  28.416
89352W        W90217  13.515  11.363  27.303
89353W        W90218  13.164  12.234  25.873
89354W        W90219  13.734  11.668  28.964
89355W        W90220  11.100  11.460  28.089
89356W        W90221  11.199  14.079  29.110
89357W        W90222  12.721  13.469  25.842
89358W        W90223  11.153  12.252  27.535
89359W        W90224  12.046  12.143  28.772
89360W        W90225  14.505  12.002  27.271
89361W        W90226  14.269  13.045  28.130
89362W        W90227  12.577  12.378  27.157
89363W        W90228  13.123  13.717  27.526
89364W        W90229  11.623  13.151  27.758
89365W        W90230  10.982  12.679  27.329
89366W        W90231  12.018  12.651  28.521
89367W        W90232  14.289  12.434  28.775
89368W        W90233  11.905  13.878  27.220
89369W        W90234  13.026  13.567  28.354
89370W        W90235  12.246  12.207  27.579
89371W        W90236  12.538  12.991  27.222
89372W        W90237  13.535  13.764  29.070
89373W        W90238  12.614  13.084  29.080
89374W        W90239  12.595  12.800  28.558
89375W        W90240  11.004  12.191  29.080
89376W        W90241  13.836  13.726  28.679
89377W        W90242  11.417  11.308  26.677
89378W        W90243  11.944  13.566  27.676
89379W        W90244  14.407  13.349  26.966
89380W        W90245  13.820  11.749  27.533
89381W        W90246  14.105  11.702  25.628
89382W        W90247  14.570  12.503  27.934
89383W        W90248  12.537  14.210  27.687
89384W        W90249  14.311  13.676  26.125
89385W        W90250  11.440  14.462  25.879
89386W        W90251  11.833  14.508  26.555
89387W        W90252  11.630  11.262  27.981
89388W        W90253  14.253  12.280  28.256
89389W        W90254  13.658  12.702  26.715
89390W        W90255  13.624  12.390  25.742
89391W        W90256  12.832  13.534  27.882
89392W        W90257  12.638  11.864  27.081
89393W        W90258  13.238  13.951  28.075
89394W        W90259  14.109  12.742  26.497
89395W        W90260  13.011  11.400  26.513
89396W        W90261  11.668  14.094  26.196
89397W        W90262  11.039  11.593  26.795
89398W        W90263  13.825  12.200  27.269
89399W        W90264  12.624  14.167  26.054
89400W        W90265  14.016  12.193  25.518
89401W        W90266  11.039  13.951  27.682
89402W        W90267  11.830  13.523  28.162
89403W        W90268  12.203  12.883  26.781
89404W        W90269  12.225  11.288  27.874
89405W        W90270  14.454  11.050  27.171
89406W        W90271  11.673  12.922  25.639
89407W        W90272  11.328  11.955  25.818
89408W        W90273  11.390  13.911  26.612
89409W        W90274  12.521  13.394  26.860
89410W        W90275  13.853  14.253  28.574
89411W        W90276  12.779  11.895  26.258
89412W        W90277  14.162  14.293  27.030
89413W        W90278  13.839  12.146  28.628
89414W        W90279  14.552  13.802  26.762
89415W        W90280  13.179  13.094  28.246
89416W        W90281  10.945  12.645  26.452
89417W        W90282  12.056  13.060  28.025
89418W        W90283  13.260  12.324  26.403
89419W        W90284  13.137  12.814  26.507
89420W        W90285  11.480  12.234  27.981
89421W        W90286  11.465  12.110  28.903
89422W        W90287  11.355  11.027  27.062
89423W        W90288  13.123  11.374  27.623
89424W        W90289  12.771  11.559  28.786
89425W        W90290  13.126  11.708  25.964
89426W        W90291  14.309  14.101  28.718
89427W        W90292  13.276  11.182  28.757
89428W        W90293  14.295  13.483  28.879
89429W        W90294  13.725  11.650  28.475
89430W        W90295  13.525  11.588  26.745
89431W        W90296  13.918  12.722  29.149
89432W        W90297  11.658  14.298  27.135
89433W        W90298  12.316  12.015  26.121
89434W        W90299  11.885  11.299  28.785
89435W        W90300  13.937  11.783  26.466
89436W        W90301  14.304  12.265  26.411
89437W        W90302  12.047  14.482  28.882
89438W        W90303  11.973  11.018  26.117
89439W        W90304  14.294  11.552  27.152
89440W        W90305  14.444  13.801  25.597
89441W        W90306  11.351  13.004  27.299
89442W        W90307  13.268  11.591  25.529
89443W        W90308  14.402  13.923  27.249
89444W        W90309  14.441  11.117  27.999
89445W        W90310  12.886  12.329  28.553
89446W        W90311  12.979  13.668  26.256
89447W        W90312  13.379  12.962  28.996
89448W        W90313  13.053  10.939  27.305
89449W        W90314  11.665  11.842  27.368
89450W        W90315  11.219  13.042  28.142
89451W        W90316  13.078  14.235  26.848
89452W        W90317  14.272  11.832  27.720
89453W        W90318  12.909  14.179  28.487
89454W        W90319  14.252  13.238  25.692
89455W        W90320  12.687  12.721  26.753
89456W        W90321  14.539  11.232  28.494
89457W        W90322  12.688  13.067  28.088
89458W        W90323  12.905  11.953  27.533
89459W        W90324  13.757  12.251  26.371
89460W        W90325  14.044  11.984  26.013
89461W        W90326  13.853  14.024  26.402
89462W        W90327  13.687  13.627  27.198
89463W        W90328  13.583  12.706  26.176
89464W        W90329  13.016  12.916  27.162
89465W        W90330  13.897  12.704  27.229
89466W        W90331  11.272  11.719  27.653
89467W        W90332  14.050  12.771  28.480
89468W        W90333  14.401  14.389  27.626
89469W        W90334  12.331  13.833  27.028
89470W        W90335  13.338  14.366  28.352
89471W        W90336  13.332  11.696  28.116
89472W        W90337  12.539  14.404  28.177
89473W        W90338  14.236  11.358  26.643
89474W        W90339  14.027  12.677  27.944
89475W        W90340  11.010  11.998  27.982
89476W        W90341  13.870  11.793  27.000
89477W        W90342  14.281  11.944  28.777
89478W        W90343  13.166  13.643  26.995
89479W        W90344  12.422  14.234  26.608
89480W        W90345  11.537  11.414  25.866
89481W        W90346  12.641  11.068  27.676
89482W        W90347  11.669  14.188  25.524
89483W        W90348  12.043  12.654  26.275
89484W        W90349  12.697  13.283  28.588
89485W        W90350  12.527  11.641  26.578
89486W        W90351  13.883  11.238  27.006
89487W        W90352  13.603  14.520  27.334
89488W        W90353  13.015  14.168  27.674
89489W        W90354  12.411  13.205  27.635
89490W        W90355  14.181  13.928  27.761
89491W        W90356  11.875  11.431  26.530
89492W        W90357  12.397  13.728  27.490
89493W        W90358  11.880  11.659  25.555
89494W        W90359  12.681  12.268  27.949
89495W        W90360  13.529  11.134  27.819
89496W        W90361  10.949  12.977  27.704
89497W        W90362  12.653  12.795  25.862
89498W        W90363  11.921  11.110  25.632
89499W        W90364  12.659  12.191  26.683
89500W        W90365  13.629  11.167  28.382
89501W        W90366  12.217  13.179  28.491
89502W        W90367  13.021  12.961  28.708
89503W        W90368  13.638  12.991  28.601
89504W        W90369  12.922  11.131  29.106
89505W        W90370  12.144  11.747  27.499
89506W        W90371  11.570  11.703  26.897
89507W        W90372  11.356  14.415  26.573
89508W        W90373  12.688  13.745  28.698
89509W        W90374  11.723  13.230  26.057
89510W        W90375  13.403  12.615  27.278
89511W        W90376  13.683  12.414  27.677
89512W        W90377  12.888  13.088  27.611
89513W        W90378  13.358  13.462  25.743
89514W        W90379  13.030  11.483  27.071
89515W        W90380  14.509  11.761  26.339
89516W        W90381  11.003  14.350  28.370
89517W        W90382  11.420  13.576  27.902
89518W        W90383  10.987  14.422  26.134
89519W        W90384  12.886  11.692  27.940
89520W        W90385  12.249  13.715  25.789
89521W        W90386  14.154  14.097  25.975
89522W        W90387  13.129  12.750  25.989
89523W        W90388  11.972  11.941  26.506
89524W        W90389  12.804  11.851  25.558
89525W        W90390  13.388  13.416  28.736
89526W        W90391  13.741  11.322  26.353
89527W        W90392  11.071  11.170  25.801
89528W        W90393  12.357  13.489  28.091
89529W        W90394  12.156  13.405  27.183
89530W        W90395  11.898  13.357  25.581
89531W        W90396  11.139  13.598  26.349
89532W        W90397  11.643  12.668  28.791
89533W        W90398  12.347  11.228  28.977
89534W        W90399  13.056  11.370  28.333
89535W        W90400  12.251  11.138  26.614
89536W        W90401  13.310  11.215  26.119
89537W        W90402  11.255  11.147  27.696
89538W        W90403  11.303  12.110  27.066
89539W        W90404  13.992  11.218  27.472
89540W        W90405  11.414  11.716  26.286
89541W        W90406  13.985  11.404  27.902
89542W        W90407  14.381  12.607  25.587
89543W        W90408  11.673  11.365  27.406
89544W        W90409  12.787  11.937  28.346
89545W        W90410  10.935  11.627  25.824
89546W        W90411  11.721  13.016  28.385
89547W        W90412  13.079  12.414  27.564
89548W        W90413  12.946  14.493  25.860
89549W        W90414  11.092  13.000  25.557
89550W        W90415  11.827  13.411  28.683
89551W        W90416  11.348  12.578  28.314
89552W        W90417  12.339  12.683  28.108
89553W        W90418  14.107  11.042  28.370
89554W        W90419  14.505  12.652  28.361
89555W        W90420  14.493  12.852  26.047
89556W        W90421  13.356  13.184  26.146
89557W        W90422  13.830  14.484  25.841
89558W        W90423  13.007  12.474  28.983
89559W        W90424  11.337  13.441  29.023
89560W        W90425  14.543  11.363  28.975
89561W        W90426  14.261  12.291  27.596
89562W        W90427  12.569  14.421  29.073
89563W        W90428  12.424  11.050  25.800
89564W        W90429  13.963  13.649  25.743
89565W        W90430  11.732  11.742  28.629
89566W        W90431  12.166  13.736  28.491
89567W        W90432  14.292  11.727  28.289
89568W        W90433  13.503  14.386  26.257
89569W        W90434  13.742  13.005  27.624
89570W        W90435  11.992  11.421  28.291
89571W        W90436  12.461  12.490  29.048
89572W        W90437  11.964  13.669  26.242
89573W        W90438  13.719  13.167  26.506
89574W        W90439  11.487  11.793  28.230
89575W        W90440  12.816  13.855  26.694
89576W        W90441  14.566  12.415  26.875
89577W        W90442  12.788  11.048  28.594
89578W        W90443  13.568  13.753  27.673
89579W        W90444  13.871  14.097  27.381
89580W        W90445  13.090  13.899  25.809
89581W        W90446  11.100  13.791  28.651
89582W        W90447  11.843  11.783  27.889
89583W        W90448  11.813  11.131  26.999
89584W        W90449  13.434  11.973  27.691
89585W        W90450  12.232  13.144  25.891
89586W        W90451  14.230  13.086  27.390
89587W        W90452  11.557  13.844  28.813
89588W        W90453  13.944  14.526  26.610
89589W        W90454  12.043  11.546  27.055
89590W        W90455  11.812  13.039  27.145
89591W        W90456  12.125  14.450  27.895
89592W        W90457  14.192  14.546  28.927
89593W        W90458  13.351  12.734  27.860
89594W        W90459  11.200  12.532  25.775
89595W        W90460  14.334  14.190  26.472
89596W        W90461  14.171  11.514  26.091
89597W        W90462  12.310  11.033  28.494
89598W        W90463  14.016  13.835  26.952
89599W        W90464  14.045  12.391  26.857
89600W        W90465  12.162  12.064  27.073
89601W        W90466  12.407  12.326  28.397
89602W        W90467  13.518  13.479  28.260
89603W        W90468  12.168  11.933  28.372
89604W        W90469  12.147  14.399  26.988
89605W        W90470  11.464  14.358  28.622
89606W        W90471  11.576  13.719  25.752
89607W        W90472  14.093  13.477  26.562
89608W        W90473  11.697  12.269  28.448
89609W        W90474  14.470  12.199  25.929
89610W        W90475  12.215  13.256  26.400
89611W        W90476  13.314  12.638  28.481
89612W        W90477  13.205  12.266  28.025
89613W        W90478  11.765  12.638  28.054
89614W        W90479  13.975  14.526  27.883
89615W        W90480  13.766  11.160  28.877
89616W        W90481  11.430  11.310  28.464
89617W        W90482  11.769  12.333  27.517
89618W        W90483  12.138  12.147  25.639
89619W        W90484  10.941  13.906  28.184
89620W        W90485  12.526  12.615  27.627
89621W        W90486  12.349  11.640  25.732
89622W        W90487  11.484  12.456  26.513
89623W        W90488  11.255  14.308  27.950
89624W        W90489  14.050  12.534  26.058
89625W        W90490  14.145  11.450  28.744
89626W        W90491  13.581  13.659  26.707
89627W        W90492  11.179  12.583  28.884
89628W        W90493  14.145  11.047  26.180
89629W        W90494  13.665  13.522  26.191
89630W        W90495  12.567  12.580  26.276
89631W        W90496  13.754  11.384  25.799
89632W        W90497  13.819  11.991  27.985
89633W        W90498  11.528  12.584  27.192
89634W        W90499  11.822  13.523  26.841
89635W        W90500  13.585  12.143  26.806
89636W        W90501  12.608  11.522  27.502
89637W        W90502  14.570  13.433  28.013
89638W        W90503  14.488  11.420  27.574
89639W        W90504  11.536  13.437  26.486
89640W        W90505  11.451  11.054  29.039
89641W        W90506  12.570  13.907  29.141
89642W        W90507  14.325  12.875  26.931
89643W        W90508  13.679  13.052  25.811
89644W        W90509  12.974  14.573  28.023
89645W        W90510  13.831  13.295  29.060
89646W        W90511  12.646  11.005  26.340
89647W        W90512  13.359  11.874  27.199
89648W        W90513  11.045  13.461  27.531
89649W        W90514  12.298  11.423  26.172
89650W        W90515  12.102  12.907  29.021
89651W        W90516  13.096  11.888  26.735
89652W        W90517  13.301  13.298  27.857
89653W        W90518  11.455  13.903  28.292
89654W        W90519  12.046  13.886  29.015
89655W        W90520  11.897  11.683  26.029
89656W        W90521  13.414  11.825  26.354
89657W        W90522  13.372  13.933  28.591
89658W        W90523  12.057  12.525  27.190
89659W        W90524  11.712  14.223  28.055
89660W        W90525  14.457  14.340  25.656
89661W        W90526  11.320  13.012  28.652
89662W        W90527  13.315  13.274  27.340
89663W        W90528  11.751  12.923  26.582
89664W        W90529  12.122  13.930  27.977
89665W        W90530  12.500  11.349  27.018
89666W        W90531  11.111  13.333  25.948
89667W        W90532  12.630  12.284  25.818
89668W        W90533  11.276  12.833  26.837
89669W        W90534  12.566  11.475  28.301
89670W        W90535  14.238  11.184  25.728
89671W        W90536  14.331  12.930  28.827
89672W        W90537  12.985  14.187  28.979
89673W        W90538  14.543  13.281  28.501
89674W        W90539  13.951  14.079  29.112
89675W        W90540  11.690  14.535  27.590
89676W        W90541  14.549  13.157  26.464
89677W        W90542  13.079  12.424  26.977
89678W        W90543  12.846  11.036  26.867
89679W        W90544  11.905  14.020  26.704
89680W        W90545  12.404  11.761  27.929
89681W        W90546  12.104  11.130  27.398
89682W        W90547  11.167  13.952  25.946
89683W        W90548  12.983  13.316  26.664
89684W        W90549  11.858  14.111  28.543
89685W        W90550  11.335  12.934  26.239
89686W        W90551  11.220  11.477  27.238
89687W        W90552  12.768  13.442  27.295
89688W        W90553  11.020  11.296  26.315
89689W        W90554  13.684  12.502  28.242
89690W        W90555  13.561  11.888  25.814
89691W        W90556  14.078  13.560  27.462
89692W        W90557  12.739  14.044  27.293
89693W        W90558  12.151  14.148  26.204
89694W        W90559  13.433  11.051  25.634
89695W        W90560  11.233  14.311  27.375
89696W        W90561  13.430  12.069  29.010
89697W        W90562  11.413  11.599  29.009
89698W        W90563  11.144  12.199  26.342
89699W        W90564  11.835  12.188  26.067
89700W        W90565  13.598  12.515  28.884
89701W        W90566  11.941  12.796  27.593
89702W        W90567  13.415  11.082  26.713
89703W        W90568  12.546  14.513  27.216
89704W        W90569  13.760  13.975  28.153
89705W        W90570  13.344  14.124  27.264
89706W        W90571  13.363  13.104  26.858
89707W        W90572  12.825  11.329  25.929
89708W        W90573  14.506  10.957  26.651
89709W        W90574  12.194  12.592  25.814
89710W        W90575  14.360  11.929  26.804
89711W        W90576  13.052  13.099  25.681
89712W        W90577  13.988  13.299  28.429
89713W        W90578  13.642  14.000  25.896
89714W        W90579  12.257  11.675  28.802
89715W        W90580  12.077  12.259  28.043
89716W        W90581  14.169  13.754  28.320
89717W        W90582  13.269  11.704  28.697
89718W        W90583  11.113  12.175  28.474
89719W        W90584  12.873  12.652  28.200
89720W        W90585  11.230  13.410  26.857
89721W        W90586  11.377  12.707  27.747
89722W        W90587  13.694  12.993  28.097
89723W        W90588  13.466  14.373  28.908
89724W        W90589  13.362  12.112  28.461
89725W        W90590  13.639  14.166  26.866
89726W        W90591  12.641  13.886  28.189
89727W        W90592  12.126  14.241  27.458
89728W        W90593  13.931  13.412  27.877
89729W        W90594  12.981  13.484  29.014
89730W        W90595  11.586  13.437  27.353
89731W        W90596  13.932  13.196  26.998
89732W        W90597  13.573  14.262  27.749
89733W        W90598  11.551  13.991  27.619
89734W        W90599  12.572  12.043  28.829
89735W        W90600  13.023  14.209  26.340
89736W        W90601  12.331  13.464  28.978
89737W        W90602  12.457  13.702  26.355
89738W        W90603  11.678  12.442  25.614
89739W        W90604  11.017  18.172   3.359
89740W        W90605  11.393  17.065   2.882
89741W        W90606  14.098  16.795   0.652
89742W        W90607  14.228  17.880   2.679
89743W        W90608  12.146  17.871   0.205
89744W        W90609  12.229  16.023   1.188
89745W        W90610  11.744  15.871   1.352
89746W        W90611  12.735  16.686   0.786
89747W        W90612  12.410  17.778   3.141
89748W        W90613  11.059  15.339   3.104
89749W        W90614  11.821  14.619   2.906
89750W        W90615  13.515  15.007   1.793
89751W        W90616  13.164  15.878   0.363
89752W        W90617  13.734  15.312   3.454
89753W        W90618  11.100  15.104   2.579
89754W        W90619  11.199  17.723   3.600
89755W        W90620  12.721  17.113   0.332
89756W        W90621  11.153  15.896   2.025
89757W        W90622  12.046  15.787   3.262
89758W        W90623  14.505  15.646   1.761
89759W        W90624  14.269  16.689   2.620
89760W        W90625  12.577  16.022   1.647
89761W        W90626  13.123  17.361   2.016
89762W        W90627  11.623  16.795   2.248
89763W        W90628  10.982  16.323   1.819
89764W        W90629  12.018  16.295   3.011
89765W        W90630  14.289  16.078   3.265
89766W        W90631  11.905  17.522   1.710
89767W        W90632  13.026  17.211   2.844
89768W        W90633  12.246  15.851   2.069
89769W        W90634  12.538  16.635   1.712
89770W        W90635  13.535  17.408   3.560
89771W        W90636  12.614  16.728   3.570
89772W        W90637  12.595  16.444   3.048
89773W        W90638  11.004  15.835   3.570
89774W        W90639  13.836  17.370   3.169
89775W        W90640  11.417  14.952   1.167
89776W        W90641  11.944  17.210   2.166
89777W        W90642  14.407  16.993   1.456
89778W        W90643  13.820  15.393   2.023
89779W        W90644  14.105  15.346   0.118
89780W        W90645  14.570  16.147   2.424
89781W        W90646  12.537  17.854   2.177
89782W        W90647  14.311  17.320   0.615
89783W        W90648  11.440  18.106   0.369
89784W        W90649  11.833  18.152   1.045
89785W        W90650  11.630  14.906   2.471
89786W        W90651  14.253  15.924   2.746
89787W        W90652  13.658  16.346   1.205
89788W        W90653  13.624  16.034   0.232
89789W        W90654  12.832  17.178   2.372
89790W        W90655  12.638  15.508   1.571
89791W        W90656  13.238  17.595   2.565
89792W        W90657  14.109  16.386   0.987
89793W        W90658  13.011  15.044   1.003
89794W        W90659  11.668  17.738   0.686
89795W        W90660  11.039  15.237   1.285
89796W        W90661  13.825  15.844   1.759
89797W        W90662  11.283  17.461   1.674
89798W        W90663  12.624  17.811   0.544
89799W        W90664  14.016  15.837   0.008
89800W        W90665  11.039  17.595   2.172
89801W        W90666  11.830  17.167   2.652
89802W        W90667  12.203  16.527   1.271
89803W        W90668  12.225  14.932   2.364
89804W        W90669  14.454  14.694   1.661
89805W        W90670  11.673  16.566   0.129
89806W        W90671  11.328  15.599   0.308
89807W        W90672  11.390  17.555   1.102
89808W        W90673  12.521  17.038   1.350
89809W        W90674  13.853  17.897   3.064
89810W        W90675  12.779  15.539   0.748
89811W        W90676  14.162  17.937   1.520
89812W        W90677  13.839  15.790   3.118
89813W        W90678  14.552  17.446   1.252
89814W        W90679  13.179  16.738   2.736
89815W        W90680  10.945  16.289   0.942
89816W        W90681  12.056  16.704   2.515
89817W        W90682  13.260  15.968   0.893
89818W        W90683  13.137  16.458   0.997
89819W        W90684  11.480  15.878   2.471
89820W        W90685  11.465  15.754   3.393
89821W        W90686  11.355  14.671   1.552
89822W        W90687  13.123  15.018   2.113
89823W        W90688  12.771  15.203   3.276
89824W        W90689  13.126  15.352   0.454
89825W        W90690  14.309  17.745   3.208
89826W        W90691  13.276  14.826   3.247
89827W        W90692  14.295  17.127   3.369
89828W        W90693  13.725  15.294   2.965
89829W        W90694  13.525  15.232   1.235
89830W        W90695  13.918  16.366   3.639
89831W        W90696  11.658  17.942   1.625
89832W        W90697  12.316  15.659   0.611
89833W        W90698  11.885  14.943   3.275
89834W        W90699  13.937  15.427   0.956
89835W        W90700  14.304  15.909   0.901
89836W        W90701  12.047  18.126   3.372
89837W        W90702  11.973  14.662   0.607
89838W        W90703  14.294  15.196   1.642
89839W        W90704  14.444  17.445   0.087
89840W        W90705  11.351  16.648   1.789
89841W        W90706  13.268  15.235   0.019
89842W        W90707  14.402  17.567   1.739
89843W        W90708  14.441  14.761   2.489
89844W        W90709  12.886  15.973   3.043
89845W        W90710  12.979  17.312   0.746
89846W        W90711  13.379  16.606   3.486
89847W        W90712  13.053  14.583   1.795
89848W        W90713  11.665  15.486   1.858
89849W        W90714  11.219  16.686   2.632
89850W        W90715  13.078  17.879   1.338
89851W        W90716  14.272  15.476   2.210
89852W        W90717  12.909  17.823   2.977
89853W        W90718  14.252  16.882   0.182
89854W        W90719  12.687  16.365   1.243
89855W        W90720  14.539  14.876   2.984
89856W        W90721  12.688  16.711   2.578
89857W        W90722  12.905  15.597   2.023
89858W        W90723  13.757  15.895   0.861
89859W        W90724  14.044  15.628   0.503
89860W        W90725  13.853  17.668   0.892
89861W        W90726  13.687  17.271   1.688
89862W        W90727  13.583  16.350   0.666
89863W        W90728  13.016  16.560   1.652
89864W        W90729  13.897  16.348   1.719
89865W        W90730  11.272  15.363   2.143
89866W        W90731  14.050  16.415   2.970
89867W        W90732  14.401  18.033   2.116
89868W        W90733  12.331  17.477   1.518
89869W        W90734  13.338  18.010   2.842
89870W        W90735  13.332  15.340   2.606
89871W        W90736  12.539  18.048   2.667
89872W        W90737  14.236  15.002   1.133
89873W        W90738  14.027  16.321   2.434
89874W        W90739  11.010  15.642   2.472
89875W        W90740  13.870  15.437   1.490
89876W        W90741  14.281  15.588   3.267
89877W        W90742  13.166  17.287   1.485
89878W        W90743  12.422  17.878   1.098
89879W        W90744  11.537  15.058   0.356
89880W        W90745  12.641  14.712   2.166
89881W        W90746  11.669  17.832   0.014
89882W        W90747  12.043  16.298   0.765
89883W        W90748  12.697  16.927   3.078
89884W        W90749  12.527  15.285   1.068
89885W        W90750  13.883  14.882   1.496
89886W        W90751  13.603  18.164   1.824
89887W        W90752  13.015  17.812   2.164
89888W        W90753  12.411  16.849   2.125
89889W        W90754  14.181  17.572   2.251
89890W        W90755  11.875  15.075   1.020
89891W        W90756  12.397  17.372   1.980
89892W        W90757  11.880  15.303   0.045
89893W        W90758  12.681  15.912   2.439
89894W        W90759  13.529  14.778   2.309
89895W        W90760  10.949  16.621   2.194
89896W        W90761  12.653  16.439   0.352
89897W        W90762  11.921  14.754   0.122
89898W        W90763  12.659  15.835   1.173
89899W        W90764  13.629  14.811   2.872
89900W        W90765  12.217  16.823   2.981
89901W        W90766  13.021  16.605   3.198
89902W        W90767  13.638  16.635   3.091
89903W        W90768  12.922  14.775   3.596
89904W        W90769  12.144  15.391   1.989
89905W        W90770  11.570  15.347   1.387
89906W        W90771  11.356  18.059   1.063
89907W        W90772  12.688  17.389   3.188
89908W        W90773  11.723  16.874   0.547
89909W        W90774  13.403  16.259   1.768
89910W        W90775  13.683  16.058   2.167
89911W        W90776  12.888  16.732   2.101
89912W        W90777  13.358  17.106   0.233
89913W        W90778  13.030  15.127   1.561
89914W        W90779  14.509  15.405   0.829
89915W        W90780  11.003  17.994   2.860
89916W        W90781  11.420  17.220   2.392
89917W        W90782  10.987  18.066   0.624
89918W        W90783  12.886  15.336   2.430
89919W        W90784  12.249  17.359   0.279
89920W        W90785  14.154  17.741   0.465
89921W        W90786  13.129  16.394   0.479
89922W        W90787  11.972  15.585   0.996
89923W        W90788  12.804  15.495   0.048
89924W        W90789  13.388  17.060   3.226
89925W        W90790  13.741  14.966   0.843
89926W        W90791  11.071  14.814   0.291
89927W        W90792  12.357  17.133   2.581
89928W        W90793  12.156  17.049   1.673
89929W        W90794  11.898  17.001   0.071
89930W        W90795  11.139  17.242   0.839
89931W        W90796  11.643  16.312   3.281
89932W        W90797  12.347  14.872   3.467
89933W        W90798  13.056  15.014   2.823
89934W        W90799  12.251  14.782   1.104
89935W        W90800  13.310  14.859   0.609
89936W        W90801  11.255  14.791   2.186
89937W        W90802  11.303  15.754   1.556
89938W        W90803  13.992  14.862   1.962
89939W        W90804  11.414  15.360   0.776
89940W        W90805  13.985  15.048   2.392
89941W        W90806  14.381  16.251   0.077
89942W        W90807  11.673  15.009   1.896
89943W        W90808  12.787  15.581   2.836
89944W        W90809  10.935  15.271   0.314
89945W        W90810  11.721  16.660   2.875
89946W        W90811  13.079  16.058   2.054
89947W        W90812  12.946  18.137   0.350
89948W        W90813  11.092  16.644   0.047
89949W        W90814  11.827  17.055   3.173
89950W        W90815  11.348  16.222   2.804
89951W        W90816  12.339  16.327   2.598
89952W        W90817  14.107  14.686   2.860
89953W        W90818  14.505  16.296   2.851
89954W        W90819  14.493  16.496   0.537
89955W        W90820  13.356  16.828   0.636
89956W        W90821  13.830  18.128   0.331
89957W        W90822  13.007  16.118   3.473
89958W        W90823  11.337  17.085   3.513
89959W        W90824  14.261  15.935   2.086
89960W        W90825  12.569  18.065   3.563
89961W        W90826  12.424  14.694   0.290
89962W        W90827  13.963  17.293   0.233
89963W        W90828  11.732  15.386   3.119
89964W        W90829  12.166  17.380   2.981
89965W        W90830  14.292  15.371   2.779
89966W        W90831  13.503  18.030   0.747
89967W        W90832  13.742  16.649   2.114
89968W        W90833  11.992  15.065   2.781
89969W        W90834  12.461  16.134   3.538
89970W        W90835  11.964  17.313   0.732
89971W        W90836  13.719  16.811   0.996
89972W        W90837  11.487  15.437   2.720
89973W        W90838  12.816  17.499   1.184
89974W        W90839  14.566  16.059   1.365
89975W        W90840  12.788  14.692   3.084
89976W        W90841  13.568  17.397   2.163
89977W        W90842  13.871  17.741   1.871
89978W        W90843  13.090  17.543   0.299
89979W        W90844  11.100  17.435   3.141
89980W        W90845  11.843  15.427   2.379
89981W        W90846  11.813  14.775   1.489
89982W        W90847  13.434  15.617   2.181
89983W        W90848  12.232  16.788   0.381
89984W        W90849  14.230  16.730   1.880
89985W        W90850  11.557  17.488   3.303
89986W        W90851  13.944  18.170   1.100
89987W        W90852  12.043  15.190   1.545
89988W        W90853  11.812  16.683   1.635
89989W        W90854  12.125  18.094   2.385
89990W        W90855  14.192  18.190   3.417
89991W        W90856  13.351  16.378   2.350
89992W        W90857  11.200  16.176   0.265
89993W        W90858  14.334  17.834   0.962
89994W        W90859  14.171  15.158   0.581
89995W        W90860  12.310  14.677   2.984
89996W        W90861  14.016  17.479   1.442
89997W        W90862  14.045  16.035   1.347
89998W        W90863  12.162  15.708   1.563
89999W        W90864  12.407  15.970   2.887
90000W        W90865  13.518  17.123   2.750
90001W        W90866  12.168  15.577   2.862
90002W        W90867  12.147  18.043   1.478
90003W        W90868  11.464  18.002   3.112
90004W        W90869  11.576  17.363   0.242
90005W        W90870  14.093  17.121   1.052
90006W        W90871  11.697  15.913   2.938
90007W        W90872  14.470  15.843   0.419
90008W        W90873  12.215  16.900   0.890
90009W        W90874  13.314  16.282   2.971
90010W        W90875  13.205  15.910   2.515
90011W        W90876  11.765  16.282   2.544
90012W        W90877  13.975  18.170   2.373
90013W        W90878  13.766  14.804   3.367
90014W        W90879  11.430  14.954   2.954
90015W        W90880  11.769  15.977   2.007
90016W        W90881  12.138  15.791   0.129
90017W        W90882  10.941  17.550   2.674
90018W        W90883  12.526  16.259   2.117
90019W        W90884  12.349  15.284   0.222
90020W        W90885  11.484  16.100   1.003
90021W        W90886  11.255  17.952   2.440
90022W        W90887  14.050  16.178   0.548
90023W        W90888  14.145  15.094   3.234
90024W        W90889  13.581  17.303   1.197
90025W        W90890  11.179  16.227   3.374
90026W        W90891  14.145  14.691   0.670
90027W        W90892  13.665  17.166   0.681
90028W        W90893  12.567  16.224   0.766
90029W        W90894  13.754  15.028   0.289
90030W        W90895  13.819  15.635   2.475
90031W        W90896  11.528  16.228   1.682
90032W        W90897  11.822  17.167   1.331
90033W        W90898  13.585  15.787   1.296
90034W        W90899  12.608  15.166   1.992
90035W        W90900  14.570  17.077   2.503
90036W        W90901  14.488  15.064   2.064
90037W        W90902  11.027  17.894   1.440
90038W        W90903  11.536  17.081   0.976
90039W        W90904  11.451  14.698   3.529
90040W        W90905  12.570  17.551   3.631
90041W        W90906  14.325  16.519   1.421
90042W        W90907  13.679  16.696   0.301
90043W        W90908  12.974  18.217   2.513
90044W        W90909  13.831  16.939   3.550
90045W        W90910  12.646  14.649   0.830
90046W        W90911  13.359  15.518   1.689
90047W        W90912  11.045  17.105   2.021
90048W        W90913  12.298  15.067   0.662
90049W        W90914  12.102  16.551   3.511
90050W        W90915  13.096  15.532   1.225
90051W        W90916  13.301  16.942   2.347
90052W        W90917  11.455  17.547   2.782
90053W        W90918  12.046  17.530   3.505
90054W        W90919  11.897  15.327   0.519
90055W        W90920  13.414  15.469   0.844
90056W        W90921  13.372  17.577   3.081
90057W        W90922  12.057  16.169   1.680
90058W        W90923  11.712  17.867   2.545
90059W        W90924  14.457  17.984   0.146
90060W        W90925  11.320  16.656   3.142
90061W        W90926  13.315  16.918   1.830
90062W        W90927  11.751  16.567   1.072
90063W        W90928  12.122  17.574   2.467
90064W        W90929  12.500  14.993   1.508
90065W        W90930  11.111  16.977   0.438
90066W        W90931  12.630  15.928   0.308
90067W        W90932  11.276  16.477   1.327
90068W        W90933  12.566  15.119   2.791
90069W        W90934  14.238  14.828   0.218
90070W        W90935  14.331  16.574   3.317
90071W        W90936  12.985  17.831   3.469
90072W        W90937  14.543  16.925   2.991
90073W        W90938  13.951  17.723   3.602
90074W        W90939  11.690  18.179   2.080
90075W        W90940  14.549  16.801   0.954
90076W        W90941  13.079  16.068   1.467
90077W        W90942  12.846  14.680   1.357
90078W        W90943  11.905  17.664   1.194
90079W        W90944  12.404  15.405   2.419
90080W        W90945  12.104  14.774   1.888
90081W        W90946  11.167  17.596   0.436
90082W        W90947  12.983  16.960   1.154
90083W        W90948  11.858  17.755   3.033
90084W        W90949  11.335  16.578   0.729
90085W        W90950  11.220  15.121   1.728
90086W        W90951  12.768  17.086   1.785
90087W        W90952  11.020  14.940   0.805
90088W        W90953  13.684  16.146   2.732
90089W        W90954  13.561  15.532   0.304
90090W        W90955  14.078  17.204   1.952
90091W        W90956  12.739  17.688   1.783
90092W        W90957  12.151  17.792   0.694
90093W        W90958  13.433  14.695   0.124
90094W        W90959  11.233  17.955   1.865
90095W        W90960  13.430  15.713   3.500
90096W        W90961  11.413  15.243   3.499
90097W        W90962  11.144  15.843   0.832
90098W        W90963  11.835  15.832   0.557
90099W        W90964  13.598  16.159   3.374
90100W        W90965  11.941  16.440   2.083
90101W        W90966  13.415  14.726   1.203
90102W        W90967  12.546  18.157   1.706
90103W        W90968  13.760  17.619   2.643
90104W        W90969  13.344  17.768   1.754
90105W        W90970  13.363  16.748   1.348
90106W        W90971  12.825  14.973   0.419
90107W        W90972  14.506  14.601   1.141
90108W        W90973  12.194  16.236   0.304
90109W        W90974  14.360  15.573   1.294
90110W        W90975  13.052  16.743   0.171
90111W        W90976  13.988  16.943   2.919
90112W        W90977  13.642  17.644   0.386
90113W        W90978  12.257  15.319   3.292
90114W        W90979  12.077  15.903   2.533
90115W        W90980  14.169  17.398   2.810
90116W        W90981  13.269  15.348   3.187
90117W        W90982  11.113  15.819   2.964
90118W        W90983  12.873  16.296   2.690
90119W        W90984  11.230  17.054   1.347
90120W        W90985  11.377  16.351   2.237
90121W        W90986  13.694  16.637   2.587
90122W        W90987  13.466  18.017   3.398
90123W        W90988  13.362  15.756   2.951
90124W        W90989  13.639  17.810   1.356
90125W        W90990  12.641  17.530   2.679
90126W        W90991  12.126  17.885   1.948
90127W        W90992  13.931  17.056   2.367
90128W        W90993  12.981  17.128   3.504
90129W        W90994  11.586  17.081   1.843
90130W        W90995  13.932  16.840   1.488
90131W        W90996  13.573  17.906   2.239
90132W        W90997  11.551  17.635   2.109
90133W        W90998  12.572  15.687   3.319
90134W        W90999  13.023  17.853   0.830
90135W        W91000  12.331  17.108   3.468
90136W        W91001  12.457  17.346   0.845
90137W        W91002  11.678  16.086   0.104
90138W        W91003  11.017  18.172   7.003
90139W        W91004  11.393  17.065   6.526
90140W        W91005  14.098  16.795   4.296
90141W        W91006  14.228  17.880   6.323
90142W        W91007  12.146  17.871   3.849
90143W        W91008  12.229  16.023   4.832
90144W        W91009  11.744  15.871   4.996
90145W        W91010  12.735  16.686   4.430
90146W        W91011  12.410  17.778   6.785
90147W        W91012  11.059  15.339   6.748
90148W        W91013  11.821  14.619   6.550
90149W        W91014  13.515  15.007   5.437
90150W        W91015  13.164  15.878   4.007
90151W        W91016  13.734  15.312   7.098
90152W        W91017  11.100  15.104   6.223
90153W        W91018  11.199  17.723   7.244
90154W        W91019  12.721  17.113   3.976
90155W        W91020  11.153  15.896   5.669
90156W        W91021  12.046  15.787   6.906
90157W        W91022  14.505  15.646   5.405
90158W        W91023  14.269  16.689   6.264
90159W        W91024  12.577  16.022   5.291
90160W        W91025  13.123  17.361   5.660
90161W        W91026  11.623  16.795   5.892
90162W        W91027  10.982  16.323   5.463
90163W        W91028  12.018  16.295   6.655
90164W        W91029  14.289  16.078   6.909
90165W        W91030  11.905  17.522   5.354
90166W        W91031  13.026  17.211   6.488
90167W        W91032  12.246  15.851   5.713
90168W        W91033  12.538  16.635   5.356
90169W        W91034  13.535  17.408   7.204
90170W        W91035  12.614  16.728   7.214
90171W        W91036  12.595  16.444   6.692
90172W        W91037  11.004  15.835   7.214
90173W        W91038  13.836  17.370   6.813
90174W        W91039  11.417  14.952   4.811
90175W        W91040  11.944  17.210   5.810
90176W        W91041  14.407  16.993   5.100
90177W        W91042  13.820  15.393   5.667
90178W        W91043  14.105  15.346   3.762
90179W        W91044  14.570  16.147   6.068
90180W        W91045  12.537  17.854   5.821
90181W        W91046  14.311  17.320   4.259
90182W        W91047  11.440  18.106   4.013
90183W        W91048  11.833  18.152   4.689
90184W        W91049  11.630  14.906   6.115
90185W        W91050  14.253  15.924   6.390
90186W        W91051  13.658  16.346   4.849
90187W        W91052  13.624  16.034   3.876
90188W        W91053  12.832  17.178   6.016
90189W        W91054  12.638  15.508   5.215
90190W        W91055  13.238  17.595   6.209
90191W        W91056  14.109  16.386   4.631
90192W        W91057  13.011  15.044   4.647
90193W        W91058  11.668  17.738   4.330
90194W        W91059  11.039  15.237   4.929
90195W        W91060  13.825  15.844   5.403
90196W        W91061  11.283  17.461   5.318
90197W        W91062  12.624  17.811   4.188
90198W        W91063  14.016  15.837   3.652
90199W        W91064  11.039  17.595   5.816
90200W        W91065  11.830  17.167   6.296
90201W        W91066  12.203  16.527   4.915
90202W        W91067  12.225  14.932   6.008
90203W        W91068  14.454  14.694   5.305
90204W        W91069  11.673  16.566   3.773
90205W        W91070  11.328  15.599   3.952
90206W        W91071  11.390  17.555   4.746
90207W        W91072  12.521  17.038   4.994
90208W        W91073  13.853  17.897   6.708
90209W        W91074  12.779  15.539   4.392
90210W        W91075  14.162  17.937   5.164
90211W        W91076  13.839  15.790   6.762
90212W        W91077  14.552  17.446   4.896
90213W        W91078  13.179  16.738   6.380
90214W        W91079  10.945  16.289   4.586
90215W        W91080  12.056  16.704   6.159
90216W        W91081  13.260  15.968   4.537
90217W        W91082  13.137  16.458   4.641
90218W        W91083  11.480  15.878   6.115
90219W        W91084  11.465  15.754   7.037
90220W        W91085  11.355  14.671   5.196
90221W        W91086  13.123  15.018   5.757
90222W        W91087  12.771  15.203   6.920
90223W        W91088  13.126  15.352   4.098
90224W        W91089  14.309  17.745   6.852
90225W        W91090  13.276  14.826   6.891
90226W        W91091  14.295  17.127   7.013
90227W        W91092  13.725  15.294   6.609
90228W        W91093  13.525  15.232   4.879
90229W        W91094  13.918  16.366   7.283
90230W        W91095  11.658  17.942   5.269
90231W        W91096  12.316  15.659   4.255
90232W        W91097  11.885  14.943   6.919
90233W        W91098  13.937  15.427   4.600
90234W        W91099  14.304  15.909   4.545
90235W        W91100  12.047  18.126   7.016
90236W        W91101  11.973  14.662   4.251
90237W        W91102  14.294  15.196   5.286
90238W        W91103  14.444  17.445   3.731
90239W        W91104  11.351  16.648   5.433
90240W        W91105  13.268  15.235   3.663
90241W        W91106  14.402  17.567   5.383
90242W        W91107  14.441  14.761   6.133
90243W        W91108  12.886  15.973   6.687
90244W        W91109  12.979  17.312   4.390
90245W        W91110  13.379  16.606   7.130
90246W        W91111  13.053  14.583   5.439
90247W        W91112  11.665  15.486   5.502
90248W        W91113  11.219  16.686   6.276
90249W        W91114  13.078  17.879   4.982
90250W        W91115  14.272  15.476   5.854
90251W        W91116  12.909  17.823   6.621
90252W        W91117  14.252  16.882   3.826
90253W        W91118  12.687  16.365   4.887
90254W        W91119  14.539  14.876   6.628
90255W        W91120  12.688  16.711   6.222
90256W        W91121  12.905  15.597   5.667
90257W        W91122  13.757  15.895   4.505
90258W        W91123  14.044  15.628   4.147
90259W        W91124  13.853  17.668   4.536
90260W        W91125  13.687  17.271   5.332
90261W        W91126  13.583  16.350   4.310
90262W        W91127  13.016  16.560   5.296
90263W        W91128  13.897  16.348   5.363
90264W        W91129  11.272  15.363   5.787
90265W        W91130  14.050  16.415   6.614
90266W        W91131  14.401  18.033   5.760
90267W        W91132  12.331  17.477   5.162
90268W        W91133  13.338  18.010   6.486
90269W        W91134  13.332  15.340   6.250
90270W        W91135  12.539  18.048   6.311
90271W        W91136  14.236  15.002   4.777
90272W        W91137  14.027  16.321   6.078
90273W        W91138  11.010  15.642   6.116
90274W        W91139  13.870  15.437   5.134
90275W        W91140  14.281  15.588   6.911
90276W        W91141  13.166  17.287   5.129
90277W        W91142  12.422  17.878   4.742
90278W        W91143  11.537  15.058   4.000
90279W        W91144  12.641  14.712   5.810
90280W        W91145  11.669  17.832   3.658
90281W        W91146  12.043  16.298   4.409
90282W        W91147  12.697  16.927   6.722
90283W        W91148  12.527  15.285   4.712
90284W        W91149  13.883  14.882   5.140
90285W        W91150  13.603  18.164   5.468
90286W        W91151  13.015  17.812   5.808
90287W        W91152  12.411  16.849   5.769
90288W        W91153  14.181  17.572   5.895
90289W        W91154  11.875  15.075   4.664
90290W        W91155  12.397  17.372   5.624
90291W        W91156  11.880  15.303   3.689
90292W        W91157  12.681  15.912   6.083
90293W        W91158  13.529  14.778   5.953
90294W        W91159  10.949  16.621   5.838
90295W        W91160  12.653  16.439   3.996
90296W        W91161  11.921  14.754   3.766
90297W        W91162  12.659  15.835   4.817
90298W        W91163  13.629  14.811   6.516
90299W        W91164  12.217  16.823   6.625
90300W        W91165  13.021  16.605   6.842
90301W        W91166  13.638  16.635   6.735
90302W        W91167  12.922  14.775   7.240
90303W        W91168  12.144  15.391   5.633
90304W        W91169  11.570  15.347   5.031
90305W        W91170  11.356  18.059   4.707
90306W        W91171  12.688  17.389   6.832
90307W        W91172  11.723  16.874   4.191
90308W        W91173  13.403  16.259   5.412
90309W        W91174  13.683  16.058   5.811
90310W        W91175  12.888  16.732   5.745
90311W        W91176  13.358  17.106   3.877
90312W        W91177  13.030  15.127   5.205
90313W        W91178  14.509  15.405   4.473
90314W        W91179  11.003  17.994   6.504
90315W        W91180  11.420  17.220   6.036
90316W        W91181  10.987  18.066   4.268
90317W        W91182  12.886  15.336   6.074
90318W        W91183  12.249  17.359   3.923
90319W        W91184  14.154  17.741   4.109
90320W        W91185  13.129  16.394   4.123
90321W        W91186  11.972  15.585   4.640
90322W        W91187  12.804  15.495   3.692
90323W        W91188  13.388  17.060   6.870
90324W        W91189  13.741  14.966   4.487
90325W        W91190  11.071  14.814   3.935
90326W        W91191  12.357  17.133   6.225
90327W        W91192  12.156  17.049   5.317
90328W        W91193  11.898  17.001   3.715
90329W        W91194  11.139  17.242   4.483
90330W        W91195  11.643  16.312   6.925
90331W        W91196  12.347  14.872   7.111
90332W        W91197  13.056  15.014   6.467
90333W        W91198  12.251  14.782   4.748
90334W        W91199  13.310  14.859   4.253
90335W        W91200  11.255  14.791   5.830
90336W        W91201  11.303  15.754   5.200
90337W        W91202  13.992  14.862   5.606
90338W        W91203  11.414  15.360   4.420
90339W        W91204  13.985  15.048   6.036
90340W        W91205  14.381  16.251   3.721
90341W        W91206  11.673  15.009   5.540
90342W        W91207  12.787  15.581   6.480
90343W        W91208  10.935  15.271   3.958
90344W        W91209  11.721  16.660   6.519
90345W        W91210  13.079  16.058   5.698
90346W        W91211  12.946  18.137   3.994
90347W        W91212  11.092  16.644   3.691
90348W        W91213  11.827  17.055   6.817
90349W        W91214  11.348  16.222   6.448
90350W        W91215  12.339  16.327   6.242
90351W        W91216  14.107  14.686   6.504
90352W        W91217  14.505  16.296   6.495
90353W        W91218  14.493  16.496   4.181
90354W        W91219  13.356  16.828   4.280
90355W        W91220  13.830  18.128   3.975
90356W        W91221  13.007  16.118   7.117
90357W        W91222  11.337  17.085   7.157
90358W        W91223  14.543  15.007   7.109
90359W        W91224  14.261  15.935   5.730
90360W        W91225  12.569  18.065   7.207
90361W        W91226  12.424  14.694   3.934
90362W        W91227  13.963  17.293   3.877
90363W        W91228  11.732  15.386   6.763
90364W        W91229  12.166  17.380   6.625
90365W        W91230  14.292  15.371   6.423
90366W        W91231  13.503  18.030   4.391
90367W        W91232  13.742  16.649   5.758
90368W        W91233  11.992  15.065   6.425
90369W        W91234  12.461  16.134   7.182
90370W        W91235  11.964  17.313   4.376
90371W        W91236  13.719  16.811   4.640
90372W        W91237  11.487  15.437   6.364
90373W        W91238  12.816  17.499   4.828
90374W        W91239  14.566  16.059   5.009
90375W        W91240  12.788  14.692   6.728
90376W        W91241  13.568  17.397   5.807
90377W        W91242  13.871  17.741   5.515
90378W        W91243  13.090  17.543   3.943
90379W        W91244  11.100  17.435   6.785
90380W        W91245  11.843  15.427   6.023
90381W        W91246  11.813  14.775   5.133
90382W        W91247  13.434  15.617   5.825
90383W        W91248  12.232  16.788   4.025
90384W        W91249  14.230  16.730   5.524
90385W        W91250  11.557  17.488   6.947
90386W        W91251  13.944  18.170   4.744
90387W        W91252  12.043  15.190   5.189
90388W        W91253  11.812  16.683   5.279
90389W        W91254  12.125  18.094   6.029
90390W        W91255  14.192  18.190   7.061
90391W        W91256  13.351  16.378   5.994
90392W        W91257  11.200  16.176   3.909
90393W        W91258  14.334  17.834   4.606
90394W        W91259  14.171  15.158   4.225
90395W        W91260  12.310  14.677   6.628
90396W        W91261  14.016  17.479   5.086
90397W        W91262  14.045  16.035   4.991
90398W        W91263  12.162  15.708   5.207
90399W        W91264  12.407  15.970   6.531
90400W        W91265  13.518  17.123   6.394
90401W        W91266  12.168  15.577   6.506
90402W        W91267  12.147  18.043   5.122
90403W        W91268  11.464  18.002   6.756
90404W        W91269  11.576  17.363   3.886
90405W        W91270  14.093  17.121   4.696
90406W        W91271  11.697  15.913   6.582
90407W        W91272  14.470  15.843   4.063
90408W        W91273  12.215  16.900   4.534
90409W        W91274  13.314  16.282   6.615
90410W        W91275  13.205  15.910   6.159
90411W        W91276  11.765  16.282   6.188
90412W        W91277  13.975  18.170   6.017
90413W        W91278  13.766  14.804   7.011
90414W        W91279  11.430  14.954   6.598
90415W        W91280  11.769  15.977   5.651
90416W        W91281  12.138  15.791   3.773
90417W        W91282  10.941  17.550   6.318
90418W        W91283  12.526  16.259   5.761
90419W        W91284  12.349  15.284   3.866
90420W        W91285  11.484  16.100   4.647
90421W        W91286  11.255  17.952   6.084
90422W        W91287  14.050  16.178   4.192
90423W        W91288  14.145  15.094   6.878
90424W        W91289  13.581  17.303   4.841
90425W        W91290  11.179  16.227   7.018
90426W        W91291  14.145  14.691   4.314
90427W        W91292  13.665  17.166   4.325
90428W        W91293  12.567  16.224   4.410
90429W        W91294  13.754  15.028   3.933
90430W        W91295  13.819  15.635   6.119
90431W        W91296  11.528  16.228   5.326
90432W        W91297  11.822  17.167   4.975
90433W        W91298  13.585  15.787   4.940
90434W        W91299  12.608  15.166   5.636
90435W        W91300  14.570  17.077   6.147
90436W        W91301  14.488  15.064   5.708
90437W        W91302  11.027  17.894   5.084
90438W        W91303  11.536  17.081   4.620
90439W        W91304  11.451  14.698   7.173
90440W        W91305  12.570  17.551   7.275
90441W        W91306  14.325  16.519   5.065
90442W        W91307  13.679  16.696   3.945
90443W        W91308  12.974  18.217   6.157
90444W        W91309  13.831  16.939   7.194
90445W        W91310  12.646  14.649   4.474
90446W        W91311  13.359  15.518   5.333
90447W        W91312  11.045  17.105   5.665
90448W        W91313  12.298  15.067   4.306
90449W        W91314  12.102  16.551   7.155
90450W        W91315  13.096  15.532   4.869
90451W        W91316  13.301  16.942   5.991
90452W        W91317  11.455  17.547   6.426
90453W        W91318  12.046  17.530   7.149
90454W        W91319  11.897  15.327   4.163
90455W        W91320  13.414  15.469   4.488
90456W        W91321  13.372  17.577   6.725
90457W        W91322  12.057  16.169   5.324
90458W        W91323  11.712  17.867   6.189
90459W        W91324  14.457  17.984   3.790
90460W        W91325  11.320  16.656   6.786
90461W        W91326  13.315  16.918   5.474
90462W        W91327  11.751  16.567   4.716
90463W        W91328  12.122  17.574   6.111
90464W        W91329  12.500  14.993   5.152
90465W        W91330  11.111  16.977   4.082
90466W        W91331  12.630  15.928   3.952
90467W        W91332  11.276  16.477   4.971
90468W        W91333  12.566  15.119   6.435
90469W        W91334  14.238  14.828   3.862
90470W        W91335  14.331  16.574   6.961
90471W        W91336  12.985  17.831   7.113
90472W        W91337  14.543  16.925   6.635
90473W        W91338  13.951  17.723   7.246
90474W        W91339  11.690  18.179   5.724
90475W        W91340  14.549  16.801   4.598
90476W        W91341  13.079  16.068   5.111
90477W        W91342  12.846  14.680   5.001
90478W        W91343  12.404  15.405   6.063
90479W        W91344  12.104  14.774   5.532
90480W        W91345  11.167  17.596   4.080
90481W        W91346  12.983  16.960   4.798
90482W        W91347  11.858  17.755   6.677
90483W        W91348  11.335  16.578   4.373
90484W        W91349  11.220  15.121   5.372
90485W        W91350  12.768  17.086   5.429
90486W        W91351  11.020  14.940   4.449
90487W        W91352  13.684  16.146   6.376
90488W        W91353  13.561  15.532   3.948
90489W        W91354  14.078  17.204   5.596
90490W        W91355  12.739  17.688   5.427
90491W        W91356  12.151  17.792   4.338
90492W        W91357  13.433  14.695   3.768
90493W        W91358  11.233  17.955   5.509
90494W        W91359  13.430  15.713   7.144
90495W        W91360  11.413  15.243   7.143
90496W        W91361  11.144  15.843   4.476
90497W        W91362  11.835  15.832   4.201
90498W        W91363  13.598  16.159   7.018
90499W        W91364  11.941  16.440   5.727
90500W        W91365  13.415  14.726   4.847
90501W        W91366  12.546  18.157   5.350
90502W        W91367  13.760  17.619   6.287
90503W        W91368  13.344  17.768   5.398
90504W        W91369  13.363  16.748   4.992
90505W        W91370  12.825  14.973   4.063
90506W        W91371  14.506  14.601   4.785
90507W        W91372  12.194  16.236   3.948
90508W        W91373  14.360  15.573   4.938
90509W        W91374  13.052  16.743   3.815
90510W        W91375  13.988  16.943   6.563
90511W        W91376  13.642  17.644   4.030
90512W        W91377  12.257  15.319   6.936
90513W        W91378  12.077  15.903   6.177
90514W        W91379  14.169  17.398   6.454
90515W        W91380  13.269  15.348   6.831
90516W        W91381  11.113  15.819   6.608
90517W        W91382  12.873  16.296   6.334
90518W        W91383  11.230  17.054   4.991
90519W        W91384  11.377  16.351   5.881
90520W        W91385  13.694  16.637   6.231
90521W        W91386  13.466  18.017   7.042
90522W        W91387  13.362  15.756   6.595
90523W        W91388  13.639  17.810   5.000
90524W        W91389  12.641  17.530   6.323
90525W        W91390  12.126  17.885   5.592
90526W        W91391  13.931  17.056   6.011
90527W        W91392  12.981  17.128   7.148
90528W        W91393  11.586  17.081   5.487
90529W        W91394  13.932  16.840   5.132
90530W        W91395  13.573  17.906   5.883
90531W        W91396  11.551  17.635   5.753
90532W        W91397  12.572  15.687   6.963
90533W        W91398  13.023  17.853   4.474
90534W        W91399  12.331  17.108   7.112
90535W        W91400  12.457  17.346   4.489
90536W        W91401  11.678  16.086   3.748
90537W        W91402  11.017  18.172  10.648
90538W        W91403  11.393  17.065  10.171
90539W        W91404  14.098  16.795   7.941
90540W        W91405  14.228  17.880   9.968
90541W        W91406  12.146  17.871   7.494
90542W        W91407  12.229  16.023   8.477
90543W        W91408  11.744  15.871   8.641
90544W        W91409  12.735  16.686   8.075
90545W        W91410  12.410  17.778  10.430
90546W        W91411  11.059  15.339  10.393
90547W        W91412  11.821  14.619  10.195
90548W        W91413  13.515  15.007   9.082
90549W        W91414  13.164  15.878   7.652
90550W        W91415  13.734  15.312  10.743
90551W        W91416  11.100  15.104   9.868
90552W        W91417  11.199  17.723  10.889
90553W        W91418  12.721  17.113   7.621
90554W        W91419  11.153  15.896   9.314
90555W        W91420  12.046  15.787  10.551
90556W        W91421  14.505  15.646   9.050
90557W        W91422  14.269  16.689   9.909
90558W        W91423  12.577  16.022   8.936
90559W        W91424  13.123  17.361   9.305
90560W        W91425  11.623  16.795   9.537
90561W        W91426  10.982  16.323   9.108
90562W        W91427  12.018  16.295  10.300
90563W        W91428  14.289  16.078  10.554
90564W        W91429  11.905  17.522   8.999
90565W        W91430  13.026  17.211  10.133
90566W        W91431  12.246  15.851   9.358
90567W        W91432  12.538  16.635   9.001
90568W        W91433  13.535  17.408  10.849
90569W        W91434  12.614  16.728  10.859
90570W        W91435  12.595  16.444  10.337
90571W        W91436  11.004  15.835  10.859
90572W        W91437  13.836  17.370  10.458
90573W        W91438  11.417  14.952   8.456
90574W        W91439  11.944  17.210   9.455
90575W        W91440  14.407  16.993   8.745
90576W        W91441  13.820  15.393   9.312
90577W        W91442  14.105  15.346   7.407
90578W        W91443  14.570  16.147   9.713
90579W        W91444  12.537  17.854   9.466
90580W        W91445  14.311  17.320   7.904
90581W        W91446  11.440  18.106   7.658
90582W        W91447  11.833  18.152   8.334
90583W        W91448  11.630  14.906   9.760
90584W        W91449  14.253  15.924  10.035
90585W        W91450  13.658  16.346   8.494
90586W        W91451  13.624  16.034   7.521
90587W        W91452  12.832  17.178   9.661
90588W        W91453  12.638  15.508   8.860
90589W        W91454  13.238  17.595   9.854
90590W        W91455  14.109  16.386   8.276
90591W        W91456  13.011  15.044   8.292
90592W        W91457  11.668  17.738   7.975
90593W        W91458  11.039  15.237   8.574
90594W        W91459  13.825  15.844   9.048
90595W        W91460  11.283  17.461   8.963
90596W        W91461  12.624  17.811   7.833
90597W        W91462  14.016  15.837   7.297
90598W        W91463  11.039  17.595   9.461
90599W        W91464  11.830  17.167   9.941
90600W        W91465  12.203  16.527   8.560
90601W        W91466  12.225  14.932   9.653
90602W        W91467  14.454  14.694   8.950
90603W        W91468  11.673  16.566   7.418
90604W        W91469  11.328  15.599   7.597
90605W        W91470  11.390  17.555   8.391
90606W        W91471  12.521  17.038   8.639
90607W        W91472  13.853  17.897  10.353
90608W        W91473  12.779  15.539   8.037
90609W        W91474  14.162  17.937   8.809
90610W        W91475  13.839  15.790  10.407
90611W        W91476  14.552  17.446   8.541
90612W        W91477  13.179  16.738  10.025
90613W        W91478  10.945  16.289   8.231
90614W        W91479  12.056  16.704   9.804
90615W        W91480  13.260  15.968   8.182
90616W        W91481  13.137  16.458   8.286
90617W        W91482  11.480  15.878   9.760
90618W        W91483  11.465  15.754  10.682
90619W        W91484  11.355  14.671   8.841
90620W        W91485  13.123  15.018   9.402
90621W        W91486  12.771  15.203  10.565
90622W        W91487  13.126  15.352   7.743
90623W        W91488  14.309  17.745  10.497
90624W        W91489  13.276  14.826  10.536
90625W        W91490  14.295  17.127  10.658
90626W        W91491  13.725  15.294  10.254
90627W        W91492  13.525  15.232   8.524
90628W        W91493  13.918  16.366  10.928
90629W        W91494  11.658  17.942   8.914
90630W        W91495  12.316  15.659   7.900
90631W        W91496  11.885  14.943  10.564
90632W        W91497  13.937  15.427   8.245
90633W        W91498  14.304  15.909   8.190
90634W        W91499  12.047  18.126  10.661
90635W        W91500  11.973  14.662   7.896
90636W        W91501  14.294  15.196   8.931
90637W        W91502  14.444  17.445   7.376
90638W        W91503  11.351  16.648   9.078
90639W        W91504  13.268  15.235   7.308
90640W        W91505  14.402  17.567   9.028
90641W        W91506  14.441  14.761   9.778
90642W        W91507  12.886  15.973  10.332
90643W        W91508  12.979  17.312   8.035
90644W        W91509  13.379  16.606  10.775
90645W        W91510  13.053  14.583   9.084
90646W        W91511  11.665  15.486   9.147
90647W        W91512  11.219  16.686   9.921
90648W        W91513  13.078  17.879   8.627
90649W        W91514  14.272  15.476   9.499
90650W        W91515  12.909  17.823  10.266
90651W        W91516  14.252  16.882   7.471
90652W        W91517  12.687  16.365   8.532
90653W        W91518  14.539  14.876  10.273
90654W        W91519  12.688  16.711   9.867
90655W        W91520  12.905  15.597   9.312
90656W        W91521  13.757  15.895   8.150
90657W        W91522  14.044  15.628   7.792
90658W        W91523  13.853  17.668   8.181
90659W        W91524  13.687  17.271   8.977
90660W        W91525  13.583  16.350   7.955
90661W        W91526  13.016  16.560   8.941
90662W        W91527  13.897  16.348   9.008
90663W        W91528  11.272  15.363   9.432
90664W        W91529  14.050  16.415  10.259
90665W        W91530  14.401  18.033   9.405
90666W        W91531  12.331  17.477   8.807
90667W        W91532  13.338  18.010  10.131
90668W        W91533  13.332  15.340   9.895
90669W        W91534  12.539  18.048   9.956
90670W        W91535  14.236  15.002   8.422
90671W        W91536  14.027  16.321   9.723
90672W        W91537  11.010  15.642   9.761
90673W        W91538  13.870  15.437   8.779
90674W        W91539  14.281  15.588  10.556
90675W        W91540  13.166  17.287   8.774
90676W        W91541  12.422  17.878   8.387
90677W        W91542  11.537  15.058   7.645
90678W        W91543  12.641  14.712   9.455
90679W        W91544  11.669  17.832   7.303
90680W        W91545  12.043  16.298   8.054
90681W        W91546  12.697  16.927  10.367
90682W        W91547  12.527  15.285   8.357
90683W        W91548  13.883  14.882   8.785
90684W        W91549  13.603  18.164   9.113
90685W        W91550  13.015  17.812   9.453
90686W        W91551  12.411  16.849   9.414
90687W        W91552  14.181  17.572   9.540
90688W        W91553  11.875  15.075   8.309
90689W        W91554  12.397  17.372   9.269
90690W        W91555  11.880  15.303   7.334
90691W        W91556  12.681  15.912   9.728
90692W        W91557  13.529  14.778   9.598
90693W        W91558  10.949  16.621   9.483
90694W        W91559  12.653  16.439   7.641
90695W        W91560  11.921  14.754   7.411
90696W        W91561  12.659  15.835   8.462
90697W        W91562  13.629  14.811  10.161
90698W        W91563  12.217  16.823  10.270
90699W        W91564  13.021  16.605  10.487
90700W        W91565  13.638  16.635  10.380
90701W        W91566  12.922  14.775  10.885
90702W        W91567  12.144  15.391   9.278
90703W        W91568  11.570  15.347   8.676
90704W        W91569  11.356  18.059   8.352
90705W        W91570  12.688  17.389  10.477
90706W        W91571  11.723  16.874   7.836
90707W        W91572  13.403  16.259   9.057
90708W        W91573  13.683  16.058   9.456
90709W        W91574  12.888  16.732   9.390
90710W        W91575  13.358  17.106   7.522
90711W        W91576  14.509  15.405   8.118
90712W        W91577  11.003  17.994  10.149
90713W        W91578  11.420  17.220   9.681
90714W        W91579  10.987  18.066   7.913
90715W        W91580  12.886  15.336   9.719
90716W        W91581  12.249  17.359   7.568
90717W        W91582  14.154  17.741   7.754
90718W        W91583  13.129  16.394   7.768
90719W        W91584  11.972  15.585   8.285
90720W        W91585  12.804  15.495   7.337
90721W        W91586  13.388  17.060  10.515
90722W        W91587  13.741  14.966   8.132
90723W        W91588  11.071  14.814   7.580
90724W        W91589  12.357  17.133   9.870
90725W        W91590  12.156  17.049   8.962
90726W        W91591  11.898  17.001   7.360
90727W        W91592  11.139  17.242   8.128
90728W        W91593  11.643  16.312  10.570
90729W        W91594  12.347  14.872  10.756
90730W        W91595  13.056  15.014  10.112
90731W        W91596  12.251  14.782   8.393
90732W        W91597  13.310  14.859   7.898
90733W        W91598  11.255  14.791   9.475
90734W        W91599  11.303  15.754   8.845
90735W        W91600  13.992  14.862   9.251
90736W        W91601  11.414  15.360   8.065
90737W        W91602  13.985  15.048   9.681
90738W        W91603  14.381  16.251   7.366
90739W        W91604  11.673  15.009   9.185
90740W        W91605  12.787  15.581  10.125
90741W        W91606  10.935  15.271   7.603
90742W        W91607  11.721  16.660  10.164
90743W        W91608  13.079  16.058   9.343
90744W        W91609  12.946  18.137   7.639
90745W        W91610  11.092  16.644   7.336
90746W        W91611  11.827  17.055  10.462
90747W        W91612  11.348  16.222  10.093
90748W        W91613  12.339  16.327   9.887
90749W        W91614  14.107  14.686  10.149
90750W        W91615  14.505  16.296  10.140
90751W        W91616  14.493  16.496   7.826
90752W        W91617  13.356  16.828   7.925
90753W        W91618  13.830  18.128   7.620
90754W        W91619  13.007  16.118  10.762
90755W        W91620  11.337  17.085  10.802
90756W        W91621  14.543  15.007  10.754
90757W        W91622  14.261  15.935   9.375
90758W        W91623  12.569  18.065  10.852
90759W        W91624  12.424  14.694   7.579
90760W        W91625  13.963  17.293   7.522
90761W        W91626  11.732  15.386  10.408
90762W        W91627  12.166  17.380  10.270
90763W        W91628  14.292  15.371  10.068
90764W        W91629  13.503  18.030   8.036
90765W        W91630  13.742  16.649   9.403
90766W        W91631  11.992  15.065  10.070
90767W        W91632  12.461  16.134  10.827
90768W        W91633  11.964  17.313   8.021
90769W        W91634  13.719  16.811   8.285
90770W        W91635  11.487  15.437  10.009
90771W        W91636  12.816  17.499   8.473
90772W        W91637  14.566  16.059   8.654
90773W        W91638  12.788  14.692  10.373
90774W        W91639  13.568  17.397   9.452
90775W        W91640  13.871  17.741   9.160
90776W        W91641  13.090  17.543   7.588
90777W        W91642  11.100  17.435  10.430
90778W        W91643  11.843  15.427   9.668
90779W        W91644  11.813  14.775   8.778
90780W        W91645  13.434  15.617   9.470
90781W        W91646  12.232  16.788   7.670
90782W        W91647  14.230  16.730   9.169
90783W        W91648  11.557  17.488  10.592
90784W        W91649  13.944  18.170   8.389
90785W        W91650  12.043  15.190   8.834
90786W        W91651  11.812  16.683   8.924
90787W        W91652  12.125  18.094   9.674
90788W        W91653  14.192  18.190  10.706
90789W        W91654  13.351  16.378   9.639
90790W        W91655  11.200  16.176   7.554
90791W        W91656  14.334  17.834   8.251
90792W        W91657  14.171  15.158   7.870
90793W        W91658  12.310  14.677  10.273
90794W        W91659  14.016  17.479   8.731
90795W        W91660  14.045  16.035   8.636
90796W        W91661  12.162  15.708   8.852
90797W        W91662  12.407  15.970  10.176
90798W        W91663  13.518  17.123  10.039
90799W        W91664  12.168  15.577  10.151
90800W        W91665  12.147  18.043   8.767
90801W        W91666  11.464  18.002  10.401
90802W        W91667  11.576  17.363   7.531
90803W        W91668  14.093  17.121   8.341
90804W        W91669  11.697  15.913  10.227
90805W        W91670  14.470  15.843   7.708
90806W        W91671  12.215  16.900   8.179
90807W        W91672  13.314  16.282  10.260
90808W        W91673  13.205  15.910   9.804
90809W        W91674  11.765  16.282   9.833
90810W        W91675  13.975  18.170   9.662
90811W        W91676  13.766  14.804  10.656
90812W        W91677  11.430  14.954  10.243
90813W        W91678  11.769  15.977   9.296
90814W        W91679  12.138  15.791   7.418
90815W        W91680  10.941  17.550   9.963
90816W        W91681  12.526  16.259   9.406
90817W        W91682  12.349  15.284   7.511
90818W        W91683  11.484  16.100   8.292
90819W        W91684  11.255  17.952   9.729
90820W        W91685  14.050  16.178   7.837
90821W        W91686  14.145  15.094  10.523
90822W        W91687  13.581  17.303   8.486
90823W        W91688  11.179  16.227  10.663
90824W        W91689  14.145  14.691   7.959
90825W        W91690  13.665  17.166   7.970
90826W        W91691  12.567  16.224   8.055
90827W        W91692  13.754  15.028   7.578
90828W        W91693  13.819  15.635   9.764
90829W        W91694  11.528  16.228   8.971
90830W        W91695  11.822  17.167   8.620
90831W        W91696  13.585  15.787   8.585
90832W        W91697  12.608  15.166   9.281
90833W        W91698  14.570  17.077   9.792
90834W        W91699  14.488  15.064   9.353
90835W        W91700  11.027  17.894   8.729
90836W        W91701  11.536  17.081   8.265
90837W        W91702  11.451  14.698  10.818
90838W        W91703  12.570  17.551  10.920
90839W        W91704  14.325  16.519   8.710
90840W        W91705  13.679  16.696   7.590
90841W        W91706  12.974  18.217   9.802
90842W        W91707  13.831  16.939  10.839
90843W        W91708  12.646  14.649   8.119
90844W        W91709  13.359  15.518   8.978
90845W        W91710  11.045  17.105   9.310
90846W        W91711  12.298  15.067   7.951
90847W        W91712  12.102  16.551  10.800
90848W        W91713  13.096  15.532   8.514
90849W        W91714  13.301  16.942   9.636
90850W        W91715  11.455  17.547  10.071
90851W        W91716  12.046  17.530  10.794
90852W        W91717  11.897  15.327   7.808
90853W        W91718  13.414  15.469   8.133
90854W        W91719  13.372  17.577  10.370
90855W        W91720  12.057  16.169   8.969
90856W        W91721  11.712  17.867   9.834
90857W        W91722  14.457  17.984   7.435
90858W        W91723  11.320  16.656  10.431
90859W        W91724  13.315  16.918   9.119
90860W        W91725  11.751  16.567   8.361
90861W        W91726  12.122  17.574   9.756
90862W        W91727  12.500  14.993   8.797
90863W        W91728  11.111  16.977   7.727
90864W        W91729  12.630  15.928   7.597
90865W        W91730  11.276  16.477   8.616
90866W        W91731  12.566  15.119  10.080
90867W        W91732  14.238  14.828   7.507
90868W        W91733  14.331  16.574  10.606
90869W        W91734  12.985  17.831  10.758
90870W        W91735  14.543  16.925  10.280
90871W        W91736  13.951  17.723  10.891
90872W        W91737  11.690  18.179   9.369
90873W        W91738  14.549  16.801   8.243
90874W        W91739  13.079  16.068   8.756
90875W        W91740  12.846  14.680   8.646
90876W        W91741  11.905  17.664   8.483
90877W        W91742  12.404  15.405   9.708
90878W        W91743  12.104  14.774   9.177
90879W        W91744  11.167  17.596   7.725
90880W        W91745  12.983  16.960   8.443
90881W        W91746  11.858  17.755  10.322
90882W        W91747  11.335  16.578   8.018
90883W        W91748  11.220  15.121   9.017
90884W        W91749  12.768  17.086   9.074
90885W        W91750  11.020  14.940   8.094
90886W        W91751  13.684  16.146  10.021
90887W        W91752  13.561  15.532   7.593
90888W        W91753  14.078  17.204   9.241
90889W        W91754  12.739  17.688   9.072
90890W        W91755  12.151  17.792   7.983
90891W        W91756  13.433  14.695   7.413
90892W        W91757  11.233  17.955   9.154
90893W        W91758  13.430  15.713  10.789
90894W        W91759  11.413  15.243  10.788
90895W        W91760  11.144  15.843   8.121
90896W        W91761  11.835  15.832   7.846
90897W        W91762  13.598  16.159  10.663
90898W        W91763  11.941  16.440   9.372
90899W        W91764  13.415  14.726   8.492
90900W        W91765  12.546  18.157   8.995
90901W        W91766  13.760  17.619   9.932
90902W        W91767  13.344  17.768   9.043
90903W        W91768  13.363  16.748   8.637
90904W        W91769  12.825  14.973   7.708
90905W        W91770  14.506  14.601   8.430
90906W        W91771  12.194  16.236   7.593
90907W        W91772  14.360  15.573   8.583
90908W        W91773  13.052  16.743   7.460
90909W        W91774  13.988  16.943  10.208
90910W        W91775  13.642  17.644   7.675
90911W        W91776  12.257  15.319  10.581
90912W        W91777  12.077  15.903   9.822
90913W        W91778  14.169  17.398  10.099
90914W        W91779  13.269  15.348  10.476
90915W        W91780  11.113  15.819  10.253
90916W        W91781  12.873  16.296   9.979
90917W        W91782  11.230  17.054   8.636
90918W        W91783  11.377  16.351   9.526
90919W        W91784  13.694  16.637   9.876
90920W        W91785  13.466  18.017  10.687
90921W        W91786  13.362  15.756  10.240
90922W        W91787  13.639  17.810   8.645
90923W        W91788  12.641  17.530   9.968
90924W        W91789  12.126  17.885   9.237
90925W        W91790  13.931  17.056   9.656
90926W        W91791  12.981  17.128  10.793
90927W        W91792  11.586  17.081   9.132
90928W        W91793  13.932  16.840   8.777
90929W        W91794  13.573  17.906   9.528
90930W        W91795  11.551  17.635   9.398
90931W        W91796  12.572  15.687  10.608
90932W        W91797  13.023  17.853   8.119
90933W        W91798  12.331  17.108  10.757
90934W        W91799  12.457  17.346   8.134
90935W        W91800  11.678  16.086   7.393
90936W        W91801  11.017  18.172  14.292
90937W        W91802  11.393  17.065  13.815
90938W        W91803  14.098  16.795  11.585
90939W        W91804  14.228  17.880  13.612
90940W        W91805  12.146  17.871  11.138
90941W        W91806  12.229  16.023  12.121
90942W        W91807  11.744  15.871  12.285
90943W        W91808  12.735  16.686  11.719
90944W        W91809  12.410  17.778  14.074
90945W        W91810  11.059  15.339  14.037
90946W        W91811  11.821  14.619  13.839
90947W        W91812  13.515  15.007  12.726
90948W        W91813  13.164  15.878  11.296
90949W        W91814  13.734  15.312  14.387
90950W        W91815  11.100  15.104  13.512
90951W        W91816  11.199  17.723  14.533
90952W        W91817  12.721  17.113  11.265
90953W        W91818  11.153  15.896  12.958
90954W        W91819  12.046  15.787  14.195
90955W        W91820  14.505  15.646  12.694
90956W        W91821  14.269  16.689  13.553
90957W        W91822  12.577  16.022  12.580
90958W        W91823  13.123  17.361  12.949
90959W        W91824  11.623  16.795  13.181
90960W        W91825  10.982  16.323  12.752
90961W        W91826  12.018  16.295  13.944
90962W        W91827  14.289  16.078  14.198
90963W        W91828  11.905  17.522  12.643
90964W        W91829  13.026  17.211  13.777
90965W        W91830  12.246  15.851  13.002
90966W        W91831  12.538  16.635  12.645
90967W        W91832  13.535  17.408  14.493
90968W        W91833  12.614  16.728  14.503
90969W        W91834  12.595  16.444  13.981
90970W        W91835  11.004  15.835  14.503
90971W        W91836  13.836  17.370  14.102
90972W        W91837  11.417  14.952  12.100
90973W        W91838  11.944  17.210  13.099
90974W        W91839  14.407  16.993  12.389
90975W        W91840  13.820  15.393  12.956
90976W        W91841  14.105  15.346  11.051
90977W        W91842  14.570  16.147  13.357
90978W        W91843  12.537  17.854  13.110
90979W        W91844  14.311  17.320  11.548
90980W        W91845  11.440  18.106  11.302
90981W        W91846  11.833  18.152  11.978
90982W        W91847  11.630  14.906  13.404
90983W        W91848  14.253  15.924  13.679
90984W        W91849  13.658  16.346  12.138
90985W        W91850  13.624  16.034  11.165
90986W        W91851  12.832  17.178  13.305
90987W        W91852  12.638  15.508  12.504
90988W        W91853  13.238  17.595  13.498
90989W        W91854  14.109  16.386  11.920
90990W        W91855  13.011  15.044  11.936
90991W        W91856  11.039  15.237  12.218
90992W        W91857  13.825  15.844  12.692
90993W        W91858  12.624  17.811  11.477
90994W        W91859  14.016  15.837  10.941
90995W        W91860  11.039  17.595  13.105
90996W        W91861  11.830  17.167  13.585
90997W        W91862  12.203  16.527  12.204
90998W        W91863  12.225  14.932  13.297
90999W        W91864  14.454  14.694  12.594
91000W        W91865  11.673  16.566  11.062
91001W        W91866  11.328  15.599  11.241
91002W        W91867  11.390  17.555  12.035
91003W        W91868  12.521  17.038  12.283
91004W        W91869  13.853  17.897  13.997
91005W        W91870  12.779  15.539  11.681
91006W        W91871  14.162  17.937  12.453
91007W        W91872  13.839  15.790  14.051
91008W        W91873  14.552  17.446  12.185
91009W        W91874  13.179  16.738  13.669
91010W        W91875  10.945  16.289  11.875
91011W        W91876  12.056  16.704  13.448
91012W        W91877  13.260  15.968  11.826
91013W        W91878  13.137  16.458  11.930
91014W        W91879  11.480  15.878  13.404
91015W        W91880  11.465  15.754  14.326
91016W        W91881  11.355  14.671  12.485
91017W        W91882  13.123  15.018  13.046
91018W        W91883  12.771  15.203  14.209
91019W        W91884  13.126  15.352  11.387
91020W        W91885  14.309  17.745  14.141
91021W        W91886  13.276  14.826  14.180
91022W        W91887  14.295  17.127  14.302
91023W        W91888  13.725  15.294  13.898
91024W        W91889  13.525  15.232  12.168
91025W        W91890  13.918  16.366  14.572
91026W        W91891  11.658  17.942  12.558
91027W        W91892  12.316  15.659  11.544
91028W        W91893  11.885  14.943  14.208
91029W        W91894  13.937  15.427  11.889
91030W        W91895  14.304  15.909  11.834
91031W        W91896  12.047  18.126  14.305
91032W        W91897  11.973  14.662  11.540
91033W        W91898  14.294  15.196  12.575
91034W        W91899  14.444  17.445  11.020
91035W        W91900  11.351  16.648  12.722
91036W        W91901  13.268  15.235  10.952
91037W        W91902  14.402  17.567  12.672
91038W        W91903  14.441  14.761  13.422
91039W        W91904  12.886  15.973  13.976
91040W        W91905  12.979  17.312  11.679
91041W        W91906  13.379  16.606  14.419
91042W        W91907  13.053  14.583  12.728
91043W        W91908  11.665  15.486  12.791
91044W        W91909  11.219  16.686  13.565
91045W        W91910  13.078  17.879  12.271
91046W        W91911  14.272  15.476  13.143
91047W        W91912  12.909  17.823  13.910
91048W        W91913  14.252  16.882  11.115
91049W        W91914  12.687  16.365  12.176
91050W        W91915  14.539  14.876  13.917
91051W        W91916  12.688  16.711  13.511
91052W        W91917  12.905  15.597  12.956
91053W        W91918  13.757  15.895  11.794
91054W        W91919  14.044  15.628  11.436
91055W        W91920  13.853  17.668  11.825
91056W        W91921  13.687  17.271  12.621
91057W        W91922  13.583  16.350  11.599
91058W        W91923  13.016  16.560  12.585
91059W        W91924  13.897  16.348  12.652
91060W        W91925  11.272  15.363  13.076
91061W        W91926  14.050  16.415  13.903
91062W        W91927  14.401  18.033  13.049
91063W        W91928  12.331  17.477  12.451
91064W        W91929  13.338  18.010  13.775
91065W        W91930  13.332  15.340  13.539
91066W        W91931  12.539  18.048  13.600
91067W        W91932  14.236  15.002  12.066
91068W        W91933  14.027  16.321  13.367
91069W        W91934  11.010  15.642  13.405
91070W        W91935  13.870  15.437  12.423
91071W        W91936  14.281  15.588  14.200
91072W        W91937  13.166  17.287  12.418
91073W        W91938  12.422  17.878  12.031
91074W        W91939  11.537  15.058  11.289
91075W        W91940  12.641  14.712  13.099
91076W        W91941  11.669  17.832  10.947
91077W        W91942  12.043  16.298  11.698
91078W        W91943  12.697  16.927  14.011
91079W        W91944  12.527  15.285  12.001
91080W        W91945  13.883  14.882  12.429
91081W        W91946  13.603  18.164  12.757
91082W        W91947  13.015  17.812  13.097
91083W        W91948  12.411  16.849  13.058
91084W        W91949  14.181  17.572  13.184
91085W        W91950  11.875  15.075  11.953
91086W        W91951  12.397  17.372  12.913
91087W        W91952  11.880  15.303  10.978
91088W        W91953  12.681  15.912  13.372
91089W        W91954  13.529  14.778  13.242
91090W        W91955  10.949  16.621  13.127
91091W        W91956  12.653  16.439  11.285
91092W        W91957  11.921  14.754  11.055
91093W        W91958  12.659  15.835  12.106
91094W        W91959  13.629  14.811  13.805
91095W        W91960  12.217  16.823  13.914
91096W        W91961  13.021  16.605  14.131
91097W        W91962  13.638  16.635  14.024
91098W        W91963  12.922  14.775  14.529
91099W        W91964  12.144  15.391  12.922
91100W        W91965  11.570  15.347  12.320
91101W        W91966  11.356  18.059  11.996
91102W        W91967  12.688  17.389  14.121
91103W        W91968  11.723  16.874  11.480
91104W        W91969  13.403  16.259  12.701
91105W        W91970  13.683  16.058  13.100
91106W        W91971  12.888  16.732  13.034
91107W        W91972  13.358  17.106  11.166
91108W        W91973  13.030  15.127  12.494
91109W        W91974  14.509  15.405  11.762
91110W        W91975  11.003  17.994  13.793
91111W        W91976  11.420  17.220  13.325
91112W        W91977  10.987  18.066  11.557
91113W        W91978  12.886  15.336  13.363
91114W        W91979  12.249  17.359  11.212
91115W        W91980  14.154  17.741  11.398
91116W        W91981  13.129  16.394  11.412
91117W        W91982  11.972  15.585  11.929
91118W        W91983  12.804  15.495  10.981
91119W        W91984  13.388  17.060  14.159
91120W        W91985  13.741  14.966  11.776
91121W        W91986  11.071  14.814  11.224
91122W        W91987  12.357  17.133  13.514
91123W        W91988  12.156  17.049  12.606
91124W        W91989  11.898  17.001  11.004
91125W        W91990  11.139  17.242  11.772
91126W        W91991  11.643  16.312  14.214
91127W        W91992  12.347  14.872  14.400
91128W        W91993  13.056  15.014  13.756
91129W        W91994  12.251  14.782  12.037
91130W        W91995  13.310  14.859  11.542
91131W        W91996  11.255  14.791  13.119
91132W        W91997  11.303  15.754  12.489
91133W        W91998  13.992  14.862  12.895
91134W        W91999  11.414  15.360  11.709
91135W        W92000  13.985  15.048  13.325
91136W        W92001  14.381  16.251  11.010
91137W        W92002  11.673  15.009  12.829
91138W        W92003  12.787  15.581  13.769
91139W        W92004  10.935  15.271  11.247
91140W        W92005  11.721  16.660  13.808
91141W        W92006  13.079  16.058  12.987
91142W        W92007  12.946  18.137  11.283
91143W        W92008  11.092  16.644  10.980
91144W        W92009  11.827  17.055  14.106
91145W        W92010  11.348  16.222  13.737
91146W        W92011  12.339  16.327  13.531
91147W        W92012  14.107  14.686  13.793
91148W        W92013  14.505  16.296  13.784
91149W        W92014  14.493  16.496  11.470
91150W        W92015  13.356  16.828  11.569
91151W        W92016  13.830  18.128  11.264
91152W        W92017  13.007  16.118  14.406
91153W        W92018  11.337  17.085  14.446
91154W        W92019  14.543  15.007  14.398
91155W        W92020  14.261  15.935  13.019
91156W        W92021  12.569  18.065  14.496
91157W        W92022  12.424  14.694  11.223
91158W        W92023  13.963  17.293  11.166
91159W        W92024  11.732  15.386  14.052
91160W        W92025  12.166  17.380  13.914
91161W        W92026  14.292  15.371  13.712
91162W        W92027  13.503  18.030  11.680
91163W        W92028  13.742  16.649  13.047
91164W        W92029  11.992  15.065  13.714
91165W        W92030  12.461  16.134  14.471
91166W        W92031  11.964  17.313  11.665
91167W        W92032  13.719  16.811  11.929
91168W        W92033  11.487  15.437  13.653
91169W        W92034  12.816  17.499  12.117
91170W        W92035  14.566  16.059  12.298
91171W        W92036  12.788  14.692  14.017
91172W        W92037  13.568  17.397  13.096
91173W        W92038  13.871  17.741  12.804
91174W        W92039  13.090  17.543  11.232
91175W        W92040  11.100  17.435  14.074
91176W        W92041  11.843  15.427  13.312
91177W        W92042  11.813  14.775  12.422
91178W        W92043  13.434  15.617  13.114
91179W        W92044  12.232  16.788  11.314
91180W        W92045  14.230  16.730  12.813
91181W        W92046  11.557  17.488  14.236
91182W        W92047  13.944  18.170  12.033
91183W        W92048  12.043  15.190  12.478
91184W        W92049  11.812  16.683  12.568
91185W        W92050  12.125  18.094  13.318
91186W        W92051  14.192  18.190  14.350
91187W        W92052  13.351  16.378  13.283
91188W        W92053  11.200  16.176  11.198
91189W        W92054  14.334  17.834  11.895
91190W        W92055  14.171  15.158  11.514
91191W        W92056  12.310  14.677  13.917
91192W        W92057  14.016  17.479  12.375
91193W        W92058  14.045  16.035  12.280
91194W        W92059  12.162  15.708  12.496
91195W        W92060  12.407  15.970  13.820
91196W        W92061  13.518  17.123  13.683
91197W        W92062  12.168  15.577  13.795
91198W        W92063  12.147  18.043  12.411
91199W        W92064  11.464  18.002  14.045
91200W        W92065  11.576  17.363  11.175
91201W        W92066  14.093  17.121  11.985
91202W        W92067  11.697  15.913  13.871
91203W        W92068  14.470  15.843  11.352
91204W        W92069  12.215  16.900  11.823
91205W        W92070  13.314  16.282  13.904
91206W        W92071  13.205  15.910  13.448
91207W        W92072  11.765  16.282  13.477
91208W        W92073  13.975  18.170  13.306
91209W        W92074  13.766  14.804  14.300
91210W        W92075  11.430  14.954  13.887
91211W        W92076  11.769  15.977  12.940
91212W        W92077  12.138  15.791  11.062
91213W        W92078  10.941  17.550  13.607
91214W        W92079  12.526  16.259  13.050
91215W        W92080  12.349  15.284  11.155
91216W        W92081  11.484  16.100  11.936
91217W        W92082  11.255  17.952  13.373
91218W        W92083  14.050  16.178  11.481
91219W        W92084  14.145  15.094  14.167
91220W        W92085  13.581  17.303  12.130
91221W        W92086  11.179  16.227  14.307
91222W        W92087  14.145  14.691  11.603
91223W        W92088  13.665  17.166  11.614
91224W        W92089  12.567  16.224  11.699
91225W        W92090  13.754  15.028  11.222
91226W        W92091  13.819  15.635  13.408
91227W        W92092  11.528  16.228  12.615
91228W        W92093  11.822  17.167  12.264
91229W        W92094  13.585  15.787  12.229
91230W        W92095  12.608  15.166  12.925
91231W        W92096  14.570  17.077  13.436
91232W        W92097  14.488  15.064  12.997
91233W        W92098  11.027  17.894  12.373
91234W        W92099  11.536  17.081  11.909
91235W        W92100  11.451  14.698  14.462
91236W        W92101  12.570  17.551  14.564
91237W        W92102  14.325  16.519  12.354
91238W        W92103  13.679  16.696  11.234
91239W        W92104  12.974  18.217  13.446
91240W        W92105  13.831  16.939  14.483
91241W        W92106  12.646  14.649  11.763
91242W        W92107  13.359  15.518  12.622
91243W        W92108  11.045  17.105  12.954
91244W        W92109  12.298  15.067  11.595
91245W        W92110  12.102  16.551  14.444
91246W        W92111  13.096  15.532  12.158
91247W        W92112  13.301  16.942  13.280
91248W        W92113  11.455  17.547  13.715
91249W        W92114  12.046  17.530  14.438
91250W        W92115  11.897  15.327  11.452
91251W        W92116  13.414  15.469  11.777
91252W        W92117  13.372  17.577  14.014
91253W        W92118  12.057  16.169  12.613
91254W        W92119  11.712  17.867  13.478
91255W        W92120  14.457  17.984  11.079
91256W        W92121  11.320  16.656  14.075
91257W        W92122  13.315  16.918  12.763
91258W        W92123  11.751  16.567  12.005
91259W        W92124  12.122  17.574  13.400
91260W        W92125  12.500  14.993  12.441
91261W        W92126  11.111  16.977  11.371
91262W        W92127  12.630  15.928  11.241
91263W        W92128  11.276  16.477  12.260
91264W        W92129  12.566  15.119  13.724
91265W        W92130  14.238  14.828  11.151
91266W        W92131  14.331  16.574  14.250
91267W        W92132  12.985  17.831  14.402
91268W        W92133  14.543  16.925  13.924
91269W        W92134  13.951  17.723  14.535
91270W        W92135  11.690  18.179  13.013
91271W        W92136  14.549  16.801  11.887
91272W        W92137  13.079  16.068  12.400
91273W        W92138  12.846  14.680  12.290
91274W        W92139  11.905  17.664  12.127
91275W        W92140  12.404  15.405  13.352
91276W        W92141  12.104  14.774  12.821
91277W        W92142  11.167  17.596  11.369
91278W        W92143  12.983  16.960  12.087
91279W        W92144  11.858  17.755  13.966
91280W        W92145  11.335  16.578  11.662
91281W        W92146  11.220  15.121  12.661
91282W        W92147  12.768  17.086  12.718
91283W        W92148  11.020  14.940  11.738
91284W        W92149  13.684  16.146  13.665
91285W        W92150  13.561  15.532  11.237
91286W        W92151  14.078  17.204  12.885
91287W        W92152  12.739  17.688  12.716
91288W        W92153  12.151  17.792  11.627
91289W        W92154  13.433  14.695  11.057
91290W        W92155  11.233  17.955  12.798
91291W        W92156  13.430  15.713  14.433
91292W        W92157  11.413  15.243  14.432
91293W        W92158  11.144  15.843  11.765
91294W        W92159  11.835  15.832  11.490
91295W        W92160  13.598  16.159  14.307
91296W        W92161  11.941  16.440  13.016
91297W        W92162  13.415  14.726  12.136
91298W        W92163  12.546  18.157  12.639
91299W        W92164  13.760  17.619  13.576
91300W        W92165  13.344  17.768  12.687
91301W        W92166  13.363  16.748  12.281
91302W        W92167  12.825  14.973  11.352
91303W        W92168  14.506  14.601  12.074
91304W        W92169  12.194  16.236  11.237
91305W        W92170  14.360  15.573  12.227
91306W        W92171  13.052  16.743  11.104
91307W        W92172  13.988  16.943  13.852
91308W        W92173  13.642  17.644  11.319
91309W        W92174  12.257  15.319  14.225
91310W        W92175  12.077  15.903  13.466
91311W        W92176  14.169  17.398  13.743
91312W        W92177  13.269  15.348  14.120
91313W        W92178  11.113  15.819  13.897
91314W        W92179  12.873  16.296  13.623
91315W        W92180  11.230  17.054  12.280
91316W        W92181  11.377  16.351  13.170
91317W        W92182  13.694  16.637  13.520
91318W        W92183  13.466  18.017  14.331
91319W        W92184  13.362  15.756  13.884
91320W        W92185  13.639  17.810  12.289
91321W        W92186  12.641  17.530  13.612
91322W        W92187  12.126  17.885  12.881
91323W        W92188  13.931  17.056  13.300
91324W        W92189  12.981  17.128  14.437
91325W        W92190  11.586  17.081  12.776
91326W        W92191  13.932  16.840  12.421
91327W        W92192  13.573  17.906  13.172
91328W        W92193  11.551  17.635  13.042
91329W        W92194  12.572  15.687  14.252
91330W        W92195  13.023  17.853  11.763
91331W        W92196  12.331  17.108  14.401
91332W        W92197  12.457  17.346  11.778
91333W        W92198  11.678  16.086  11.037
91334W        W92199  11.017  18.172  17.936
91335W        W92200  11.393  17.065  17.459
91336W        W92201  14.098  16.795  15.229
91337W        W92202  14.228  17.880  17.256
91338W        W92203  12.146  17.871  14.782
91339W        W92204  12.229  16.023  15.765
91340W        W92205  11.744  15.871  15.929
91341W        W92206  12.735  16.686  15.363
91342W        W92207  12.410  17.778  17.718
91343W        W92208  11.059  15.339  17.681
91344W        W92209  11.821  14.619  17.483
91345W        W92210  13.515  15.007  16.370
91346W        W92211  13.164  15.878  14.940
91347W        W92212  13.734  15.312  18.031
91348W        W92213  11.100  15.104  17.156
91349W        W92214  11.199  17.723  18.177
91350W        W92215  12.721  17.113  14.909
91351W        W92216  11.153  15.896  16.602
91352W        W92217  12.046  15.787  17.839
91353W        W92218  14.505  15.646  16.338
91354W        W92219  14.269  16.689  17.197
91355W        W92220  12.577  16.022  16.224
91356W        W92221  13.123  17.361  16.593
91357W        W92222  11.623  16.795  16.825
91358W        W92223  10.982  16.323  16.396
91359W        W92224  12.018  16.295  17.588
91360W        W92225  14.289  16.078  17.842
91361W        W92226  11.905  17.522  16.287
91362W        W92227  13.026  17.211  17.421
91363W        W92228  12.246  15.851  16.646
91364W        W92229  12.538  16.635  16.289
91365W        W92230  13.535  17.408  18.137
91366W        W92231  12.614  16.728  18.147
91367W        W92232  12.595  16.444  17.625
91368W        W92233  11.004  15.835  18.147
91369W        W92234  13.836  17.370  17.746
91370W        W92235  11.417  14.952  15.744
91371W        W92236  11.944  17.210  16.743
91372W        W92237  14.407  16.993  16.033
91373W        W92238  13.820  15.393  16.600
91374W        W92239  14.105  15.346  14.695
91375W        W92240  14.570  16.147  17.001
91376W        W92241  12.537  17.854  16.754
91377W        W92242  14.311  17.320  15.192
91378W        W92243  11.440  18.106  14.946
91379W        W92244  11.833  18.152  15.622
91380W        W92245  11.630  14.906  17.048
91381W        W92246  14.253  15.924  17.323
91382W        W92247  13.658  16.346  15.782
91383W        W92248  13.624  16.034  14.809
91384W        W92249  12.832  17.178  16.949
91385W        W92250  12.638  15.508  16.148
91386W        W92251  13.238  17.595  17.142
91387W        W92252  14.109  16.386  15.564
91388W        W92253  13.011  15.044  15.580
91389W        W92254  11.668  17.738  15.263
91390W        W92255  11.039  15.237  15.862
91391W        W92256  13.825  15.844  16.336
91392W        W92257  11.283  17.461  16.251
91393W        W92258  12.624  17.811  15.121
91394W        W92259  14.016  15.837  14.585
91395W        W92260  11.039  17.595  16.749
91396W        W92261  11.830  17.167  17.229
91397W        W92262  12.203  16.527  15.848
91398W        W92263  12.225  14.932  16.941
91399W        W92264  14.454  14.694  16.238
91400W        W92265  11.673  16.566  14.706
91401W        W92266  11.328  15.599  14.885
91402W        W92267  11.390  17.555  15.679
91403W        W92268  12.521  17.038  15.927
91404W        W92269  13.853  17.897  17.641
91405W        W92270  12.779  15.539  15.325
91406W        W92271  14.162  17.937  16.097
91407W        W92272  13.839  15.790  17.695
91408W        W92273  14.552  17.446  15.829
91409W        W92274  13.179  16.738  17.313
91410W        W92275  10.945  16.289  15.519
91411W        W92276  12.056  16.704  17.092
91412W        W92277  13.260  15.968  15.470
91413W        W92278  13.137  16.458  15.574
91414W        W92279  11.480  15.878  17.048
91415W        W92280  11.465  15.754  17.970
91416W        W92281  11.355  14.671  16.129
91417W        W92282  13.123  15.018  16.690
91418W        W92283  12.771  15.203  17.853
91419W        W92284  13.126  15.352  15.031
91420W        W92285  14.309  17.745  17.785
91421W        W92286  13.276  14.826  17.824
91422W        W92287  14.295  17.127  17.946
91423W        W92288  13.725  15.294  17.542
91424W        W92289  13.525  15.232  15.812
91425W        W92290  13.918  16.366  18.216
91426W        W92291  11.658  17.942  16.202
91427W        W92292  12.316  15.659  15.188
91428W        W92293  11.885  14.943  17.852
91429W        W92294  13.937  15.427  15.533
91430W        W92295  14.304  15.909  15.478
91431W        W92296  12.047  18.126  17.949
91432W        W92297  11.973  14.662  15.184
91433W        W92298  14.294  15.196  16.219
91434W        W92299  14.444  17.445  14.664
91435W        W92300  11.351  16.648  16.366
91436W        W92301  13.268  15.235  14.596
91437W        W92302  14.402  17.567  16.316
91438W        W92303  14.441  14.761  17.066
91439W        W92304  12.886  15.973  17.620
91440W        W92305  12.979  17.312  15.323
91441W        W92306  13.379  16.606  18.063
91442W        W92307  13.053  14.583  16.372
91443W        W92308  11.665  15.486  16.435
91444W        W92309  11.219  16.686  17.209
91445W        W92310  13.078  17.879  15.915
91446W        W92311  14.272  15.476  16.787
91447W        W92312  12.909  17.823  17.554
91448W        W92313  14.252  16.882  14.759
91449W        W92314  12.687  16.365  15.820
91450W        W92315  14.539  14.876  17.561
91451W        W92316  12.688  16.711  17.155
91452W        W92317  12.905  15.597  16.600
91453W        W92318  13.757  15.895  15.438
91454W        W92319  14.044  15.628  15.080
91455W        W92320  13.853  17.668  15.469
91456W        W92321  13.687  17.271  16.265
91457W        W92322  13.583  16.350  15.243
91458W        W92323  13.016  16.560  16.229
91459W        W92324  13.897  16.348  16.296
91460W        W92325  11.272  15.363  16.720
91461W        W92326  14.050  16.415  17.547
91462W        W92327  14.401  18.033  16.693
91463W        W92328  12.331  17.477  16.095
91464W        W92329  13.338  18.010  17.419
91465W        W92330  13.332  15.340  17.183
91466W        W92331  12.539  18.048  17.244
91467W        W92332  14.236  15.002  15.710
91468W        W92333  14.027  16.321  17.011
91469W        W92334  11.010  15.642  17.049
91470W        W92335  13.870  15.437  16.067
91471W        W92336  14.281  15.588  17.844
91472W        W92337  13.166  17.287  16.062
91473W        W92338  12.422  17.878  15.675
91474W        W92339  11.537  15.058  14.933
91475W        W92340  12.641  14.712  16.743
91476W        W92341  11.669  17.832  14.591
91477W        W92342  12.043  16.298  15.342
91478W        W92343  12.697  16.927  17.655
91479W        W92344  12.527  15.285  15.645
91480W        W92345  13.883  14.882  16.073
91481W        W92346  13.603  18.164  16.401
91482W        W92347  13.015  17.812  16.741
91483W        W92348  12.411  16.849  16.702
91484W        W92349  14.181  17.572  16.828
91485W        W92350  11.875  15.075  15.597
91486W        W92351  12.397  17.372  16.557
91487W        W92352  11.880  15.303  14.622
91488W        W92353  12.681  15.912  17.016
91489W        W92354  13.529  14.778  16.886
91490W        W92355  10.949  16.621  16.771
91491W        W92356  12.653  16.439  14.929
91492W        W92357  11.921  14.754  14.699
91493W        W92358  12.659  15.835  15.750
91494W        W92359  13.629  14.811  17.449
91495W        W92360  12.217  16.823  17.558
91496W        W92361  13.021  16.605  17.775
91497W        W92362  13.638  16.635  17.668
91498W        W92363  12.922  14.775  18.173
91499W        W92364  12.144  15.391  16.566
91500W        W92365  11.570  15.347  15.964
91501W        W92366  11.356  18.059  15.640
91502W        W92367  12.688  17.389  17.765
91503W        W92368  11.723  16.874  15.124
91504W        W92369  13.403  16.259  16.345
91505W        W92370  13.683  16.058  16.744
91506W        W92371  12.888  16.732  16.678
91507W        W92372  13.358  17.106  14.810
91508W        W92373  13.030  15.127  16.138
91509W        W92374  14.509  15.405  15.406
91510W        W92375  11.003  17.994  17.437
91511W        W92376  11.420  17.220  16.969
91512W        W92377  10.987  18.066  15.201
91513W        W92378  12.886  15.336  17.007
91514W        W92379  12.249  17.359  14.856
91515W        W92380  14.154  17.741  15.042
91516W        W92381  13.129  16.394  15.056
91517W        W92382  11.972  15.585  15.573
91518W        W92383  12.804  15.495  14.625
91519W        W92384  13.388  17.060  17.803
91520W        W92385  13.741  14.966  15.420
91521W        W92386  11.071  14.814  14.868
91522W        W92387  12.357  17.133  17.158
91523W        W92388  12.156  17.049  16.250
91524W        W92389  11.898  17.001  14.648
91525W        W92390  11.139  17.242  15.416
91526W        W92391  11.643  16.312  17.858
91527W        W92392  12.347  14.872  18.044
91528W        W92393  13.056  15.014  17.400
91529W        W92394  12.251  14.782  15.681
91530W        W92395  13.310  14.859  15.186
91531W        W92396  11.255  14.791  16.763
91532W        W92397  11.303  15.754  16.133
91533W        W92398  13.992  14.862  16.539
91534W        W92399  11.414  15.360  15.353
91535W        W92400  13.985  15.048  16.969
91536W        W92401  14.381  16.251  14.654
91537W        W92402  11.673  15.009  16.473
91538W        W92403  12.787  15.581  17.413
91539W        W92404  10.935  15.271  14.891
91540W        W92405  11.721  16.660  17.452
91541W        W92406  13.079  16.058  16.631
91542W        W92407  12.946  18.137  14.927
91543W        W92408  11.092  16.644  14.624
91544W        W92409  11.827  17.055  17.750
91545W        W92410  11.348  16.222  17.381
91546W        W92411  12.339  16.327  17.175
91547W        W92412  14.107  14.686  17.437
91548W        W92413  14.505  16.296  17.428
91549W        W92414  14.493  16.496  15.114
91550W        W92415  13.356  16.828  15.213
91551W        W92416  13.830  18.128  14.908
91552W        W92417  13.007  16.118  18.050
91553W        W92418  11.337  17.085  18.090
91554W        W92419  14.543  15.007  18.042
91555W        W92420  14.261  15.935  16.663
91556W        W92421  12.569  18.065  18.140
91557W        W92422  12.424  14.694  14.867
91558W        W92423  13.963  17.293  14.810
91559W        W92424  11.732  15.386  17.696
91560W        W92425  12.166  17.380  17.558
91561W        W92426  14.292  15.371  17.356
91562W        W92427  13.503  18.030  15.324
91563W        W92428  13.742  16.649  16.691
91564W        W92429  11.992  15.065  17.358
91565W        W92430  12.461  16.134  18.115
91566W        W92431  11.964  17.313  15.309
91567W        W92432  13.719  16.811  15.573
91568W        W92433  11.487  15.437  17.297
91569W        W92434  12.816  17.499  15.761
91570W        W92435  14.566  16.059  15.942
91571W        W92436  12.788  14.692  17.661
91572W        W92437  13.568  17.397  16.740
91573W        W92438  13.871  17.741  16.448
91574W        W92439  13.090  17.543  14.876
91575W        W92440  11.100  17.435  17.718
91576W        W92441  11.843  15.427  16.956
91577W        W92442  11.813  14.775  16.066
91578W        W92443  13.434  15.617  16.758
91579W        W92444  12.232  16.788  14.958
91580W        W92445  14.230  16.730  16.457
91581W        W92446  11.557  17.488  17.880
91582W        W92447  13.944  18.170  15.677
91583W        W92448  12.043  15.190  16.122
91584W        W92449  11.812  16.683  16.212
91585W        W92450  12.125  18.094  16.962
91586W        W92451  14.192  18.190  17.994
91587W        W92452  13.351  16.378  16.927
91588W        W92453  11.200  16.176  14.842
91589W        W92454  14.334  17.834  15.539
91590W        W92455  14.171  15.158  15.158
91591W        W92456  12.310  14.677  17.561
91592W        W92457  14.016  17.479  16.019
91593W        W92458  14.045  16.035  15.924
91594W        W92459  12.162  15.708  16.140
91595W        W92460  12.407  15.970  17.464
91596W        W92461  13.518  17.123  17.327
91597W        W92462  12.168  15.577  17.439
91598W        W92463  12.147  18.043  16.055
91599W        W92464  11.464  18.002  17.689
91600W        W92465  11.576  17.363  14.819
91601W        W92466  14.093  17.121  15.629
91602W        W92467  11.697  15.913  17.515
91603W        W92468  14.470  15.843  14.996
91604W        W92469  12.215  16.900  15.467
91605W        W92470  13.314  16.282  17.548
91606W        W92471  13.205  15.910  17.092
91607W        W92472  11.765  16.282  17.121
91608W        W92473  13.975  18.170  16.950
91609W        W92474  13.766  14.804  17.944
91610W        W92475  11.430  14.954  17.531
91611W        W92476  11.769  15.977  16.584
91612W        W92477  12.138  15.791  14.706
91613W        W92478  10.941  17.550  17.251
91614W        W92479  12.526  16.259  16.694
91615W        W92480  12.349  15.284  14.799
91616W        W92481  11.484  16.100  15.580
91617W        W92482  11.255  17.952  17.017
91618W        W92483  14.050  16.178  15.125
91619W        W92484  14.145  15.094  17.811
91620W        W92485  13.581  17.303  15.774
91621W        W92486  11.179  16.227  17.951
91622W        W92487  14.145  14.691  15.247
91623W        W92488  13.665  17.166  15.258
91624W        W92489  12.567  16.224  15.343
91625W        W92490  13.754  15.028  14.866
91626W        W92491  13.819  15.635  17.052
91627W        W92492  11.528  16.228  16.259
91628W        W92493  11.822  17.167  15.908
91629W        W92494  13.585  15.787  15.873
91630W        W92495  12.608  15.166  16.569
91631W        W92496  14.570  17.077  17.080
91632W        W92497  14.488  15.064  16.641
91633W        W92498  11.027  17.894  16.017
91634W        W92499  11.536  17.081  15.553
91635W        W92500  11.451  14.698  18.106
91636W        W92501  12.570  17.551  18.208
91637W        W92502  14.325  16.519  15.998
91638W        W92503  13.679  16.696  14.878
91639W        W92504  12.974  18.217  17.090
91640W        W92505  13.831  16.939  18.127
91641W        W92506  12.646  14.649  15.407
91642W        W92507  13.359  15.518  16.266
91643W        W92508  11.045  17.105  16.598
91644W        W92509  12.298  15.067  15.239
91645W        W92510  12.102  16.551  18.088
91646W        W92511  13.096  15.532  15.802
91647W        W92512  13.301  16.942  16.924
91648W        W92513  11.455  17.547  17.359
91649W        W92514  12.046  17.530  18.082
91650W        W92515  11.897  15.327  15.096
91651W        W92516  13.414  15.469  15.421
91652W        W92517  13.372  17.577  17.658
91653W        W92518  12.057  16.169  16.257
91654W        W92519  11.712  17.867  17.122
91655W        W92520  14.457  17.984  14.723
91656W        W92521  11.320  16.656  17.719
91657W        W92522  13.315  16.918  16.407
91658W        W92523  11.751  16.567  15.649
91659W        W92524  12.122  17.574  17.044
91660W        W92525  12.500  14.993  16.085
91661W        W92526  11.111  16.977  15.015
91662W        W92527  12.630  15.928  14.885
91663W        W92528  11.276  16.477  15.904
91664W        W92529  12.566  15.119  17.368
91665W        W92530  14.238  14.828  14.795
91666W        W92531  14.331  16.574  17.894
91667W        W92532  12.985  17.831  18.046
91668W        W92533  14.543  16.925  17.568
91669W        W92534  13.951  17.723  18.179
91670W        W92535  11.690  18.179  16.657
91671W        W92536  14.549  16.801  15.531
91672W        W92537  13.079  16.068  16.044
91673W        W92538  12.846  14.680  15.934
91674W        W92539  11.905  17.664  15.771
91675W        W92540  12.404  15.405  16.996
91676W        W92541  12.104  14.774  16.465
91677W        W92542  11.167  17.596  15.013
91678W        W92543  12.983  16.960  15.731
91679W        W92544  11.858  17.755  17.610
91680W        W92545  11.335  16.578  15.306
91681W        W92546  11.220  15.121  16.305
91682W        W92547  12.768  17.086  16.362
91683W        W92548  11.020  14.940  15.382
91684W        W92549  13.684  16.146  17.309
91685W        W92550  13.561  15.532  14.881
91686W        W92551  14.078  17.204  16.529
91687W        W92552  12.739  17.688  16.360
91688W        W92553  12.151  17.792  15.271
91689W        W92554  13.433  14.695  14.701
91690W        W92555  11.233  17.955  16.442
91691W        W92556  13.430  15.713  18.077
91692W        W92557  11.413  15.243  18.076
91693W        W92558  11.144  15.843  15.409
91694W        W92559  11.835  15.832  15.134
91695W        W92560  13.598  16.159  17.951
91696W        W92561  11.941  16.440  16.660
91697W        W92562  13.415  14.726  15.780
91698W        W92563  12.546  18.157  16.283
91699W        W92564  13.760  17.619  17.220
91700W        W92565  13.344  17.768  16.331
91701W        W92566  13.363  16.748  15.925
91702W        W92567  12.825  14.973  14.996
91703W        W92568  14.506  14.601  15.718
91704W        W92569  12.194  16.236  14.881
91705W        W92570  14.360  15.573  15.871
91706W        W92571  13.052  16.743  14.748
91707W        W92572  13.988  16.943  17.496
91708W        W92573  13.642  17.644  14.963
91709W        W92574  12.257  15.319  17.869
91710W        W92575  12.077  15.903  17.110
91711W        W92576  14.169  17.398  17.387
91712W        W92577  13.269  15.348  17.764
91713W        W92578  11.113  15.819  17.541
91714W        W92579  12.873  16.296  17.267
91715W        W92580  11.230  17.054  15.924
91716W        W92581  11.377  16.351  16.814
91717W        W92582  13.694  16.637  17.164
91718W        W92583  13.466  18.017  17.975
91719W        W92584  13.362  15.756  17.528
91720W        W92585  13.639  17.810  15.933
91721W        W92586  12.641  17.530  17.256
91722W        W92587  12.126  17.885  16.525
91723W        W92588  13.931  17.056  16.944
91724W        W92589  12.981  17.128  18.081
91725W        W92590  11.586  17.081  16.420
91726W        W92591  13.932  16.840  16.065
91727W        W92592  13.573  17.906  16.816
91728W        W92593  11.551  17.635  16.686
91729W        W92594  12.572  15.687  17.896
91730W        W92595  13.023  17.853  15.407
91731W        W92596  12.331  17.108  18.045
91732W        W92597  12.457  17.346  15.422
91733W        W92598  11.678  16.086  14.681
91734W        W92599  11.017  18.172  21.580
91735W        W92600  11.393  17.065  21.103
91736W        W92601  14.098  16.795  18.873
91737W        W92602  14.228  17.880  20.900
91738W        W92603  12.146  17.871  18.426
91739W        W92604  12.229  16.023  19.409
91740W        W92605  11.744  15.871  19.573
91741W        W92606  12.735  16.686  19.007
91742W        W92607  12.410  17.778  21.362
91743W        W92608  11.059  15.339  21.325
91744W        W92609  11.821  14.619  21.127
91745W        W92610  13.515  15.007  20.014
91746W        W92611  13.164  15.878  18.584
91747W        W92612  13.734  15.312  21.675
91748W        W92613  11.100  15.104  20.800
91749W        W92614  11.199  17.723  21.821
91750W        W92615  12.721  17.113  18.553
91751W        W92616  11.153  15.896  20.246
91752W        W92617  12.046  15.787  21.483
91753W        W92618  14.505  15.646  19.982
91754W        W92619  14.269  16.689  20.841
91755W        W92620  12.577  16.022  19.868
91756W        W92621  13.123  17.361  20.237
91757W        W92622  11.623  16.795  20.469
91758W        W92623  10.982  16.323  20.040
91759W        W92624  12.018  16.295  21.232
91760W        W92625  14.289  16.078  21.486
91761W        W92626  11.905  17.522  19.931
91762W        W92627  13.026  17.211  21.065
91763W        W92628  12.246  15.851  20.290
91764W        W92629  12.538  16.635  19.933
91765W        W92630  13.535  17.408  21.781
91766W        W92631  12.614  16.728  21.791
91767W        W92632  12.595  16.444  21.269
91768W        W92633  11.004  15.835  21.791
91769W        W92634  13.836  17.370  21.390
91770W        W92635  11.417  14.952  19.388
91771W        W92636  11.944  17.210  20.387
91772W        W92637  14.407  16.993  19.677
91773W        W92638  13.820  15.393  20.244
91774W        W92639  14.105  15.346  18.339
91775W        W92640  14.570  16.147  20.645
91776W        W92641  12.537  17.854  20.398
91777W        W92642  14.311  17.320  18.836
91778W        W92643  11.440  18.106  18.590
91779W        W92644  11.833  18.152  19.266
91780W        W92645  11.630  14.906  20.692
91781W        W92646  14.253  15.924  20.967
91782W        W92647  13.658  16.346  19.426
91783W        W92648  13.624  16.034  18.453
91784W        W92649  12.832  17.178  20.593
91785W        W92650  12.638  15.508  19.792
91786W        W92651  13.238  17.595  20.786
91787W        W92652  14.109  16.386  19.208
91788W        W92653  13.011  15.044  19.224
91789W        W92654  11.668  17.738  18.907
91790W        W92655  11.039  15.237  19.506
91791W        W92656  13.825  15.844  19.980
91792W        W92657  11.283  17.461  19.895
91793W        W92658  12.624  17.811  18.765
91794W        W92659  14.016  15.837  18.229
91795W        W92660  11.039  17.595  20.393
91796W        W92661  11.830  17.167  20.873
91797W        W92662  12.203  16.527  19.492
91798W        W92663  12.225  14.932  20.585
91799W        W92664  14.454  14.694  19.882
91800W        W92665  11.673  16.566  18.350
91801W        W92666  11.328  15.599  18.529
91802W        W92667  11.390  17.555  19.323
91803W        W92668  12.521  17.038  19.571
91804W        W92669  13.853  17.897  21.285
91805W        W92670  12.779  15.539  18.969
91806W        W92671  14.162  17.937  19.741
91807W        W92672  13.839  15.790  21.339
91808W        W92673  14.552  17.446  19.473
91809W        W92674  13.179  16.738  20.957
91810W        W92675  10.945  16.289  19.163
91811W        W92676  12.056  16.704  20.736
91812W        W92677  13.260  15.968  19.114
91813W        W92678  13.137  16.458  19.218
91814W        W92679  11.480  15.878  20.692
91815W        W92680  11.465  15.754  21.614
91816W        W92681  11.355  14.671  19.773
91817W        W92682  13.123  15.018  20.334
91818W        W92683  12.771  15.203  21.497
91819W        W92684  13.126  15.352  18.675
91820W        W92685  14.309  17.745  21.429
91821W        W92686  13.276  14.826  21.468
91822W        W92687  14.295  17.127  21.590
91823W        W92688  13.725  15.294  21.186
91824W        W92689  13.525  15.232  19.456
91825W        W92690  13.918  16.366  21.860
91826W        W92691  11.658  17.942  19.846
91827W        W92692  12.316  15.659  18.832
91828W        W92693  11.885  14.943  21.496
91829W        W92694  13.937  15.427  19.177
91830W        W92695  14.304  15.909  19.122
91831W        W92696  12.047  18.126  21.593
91832W        W92697  11.973  14.662  18.828
91833W        W92698  14.294  15.196  19.863
91834W        W92699  14.444  17.445  18.308
91835W        W92700  11.351  16.648  20.010
91836W        W92701  13.268  15.235  18.240
91837W        W92702  14.402  17.567  19.960
91838W        W92703  14.441  14.761  20.710
91839W        W92704  12.886  15.973  21.264
91840W        W92705  12.979  17.312  18.967
91841W        W92706  13.379  16.606  21.707
91842W        W92707  13.053  14.583  20.016
91843W        W92708  11.665  15.486  20.079
91844W        W92709  11.219  16.686  20.853
91845W        W92710  13.078  17.879  19.559
91846W        W92711  14.272  15.476  20.431
91847W        W92712  12.909  17.823  21.198
91848W        W92713  14.252  16.882  18.403
91849W        W92714  12.687  16.365  19.464
91850W        W92715  14.539  14.876  21.205
91851W        W92716  12.688  16.711  20.799
91852W        W92717  12.905  15.597  20.244
91853W        W92718  13.757  15.895  19.082
91854W        W92719  14.044  15.628  18.724
91855W        W92720  13.853  17.668  19.113
91856W        W92721  13.687  17.271  19.909
91857W        W92722  13.583  16.350  18.887
91858W        W92723  13.016  16.560  19.873
91859W        W92724  13.897  16.348  19.940
91860W        W92725  11.272  15.363  20.364
91861W        W92726  14.050  16.415  21.191
91862W        W92727  14.401  18.033  20.337
91863W        W92728  12.331  17.477  19.739
91864W        W92729  13.338  18.010  21.063
91865W        W92730  13.332  15.340  20.827
91866W        W92731  12.539  18.048  20.888
91867W        W92732  14.236  15.002  19.354
91868W        W92733  14.027  16.321  20.655
91869W        W92734  11.010  15.642  20.693
91870W        W92735  13.870  15.437  19.711
91871W        W92736  14.281  15.588  21.488
91872W        W92737  13.166  17.287  19.706
91873W        W92738  12.422  17.878  19.319
91874W        W92739  11.537  15.058  18.577
91875W        W92740  12.641  14.712  20.387
91876W        W92741  11.669  17.832  18.235
91877W        W92742  12.043  16.298  18.986
91878W        W92743  12.697  16.927  21.299
91879W        W92744  12.527  15.285  19.289
91880W        W92745  13.883  14.882  19.717
91881W        W92746  13.603  18.164  20.045
91882W        W92747  13.015  17.812  20.385
91883W        W92748  12.411  16.849  20.346
91884W        W92749  14.181  17.572  20.472
91885W        W92750  11.875  15.075  19.241
91886W        W92751  12.397  17.372  20.201
91887W        W92752  11.880  15.303  18.266
91888W        W92753  12.681  15.912  20.660
91889W        W92754  13.529  14.778  20.530
91890W        W92755  10.949  16.621  20.415
91891W        W92756  12.653  16.439  18.573
91892W        W92757  11.921  14.754  18.343
91893W        W92758  12.659  15.835  19.394
91894W        W92759  13.629  14.811  21.093
91895W        W92760  12.217  16.823  21.202
91896W        W92761  13.021  16.605  21.419
91897W        W92762  13.638  16.635  21.312
91898W        W92763  12.922  14.775  21.817
91899W        W92764  12.144  15.391  20.210
91900W        W92765  11.570  15.347  19.608
91901W        W92766  11.356  18.059  19.284
91902W        W92767  12.688  17.389  21.409
91903W        W92768  11.723  16.874  18.768
91904W        W92769  13.403  16.259  19.989
91905W        W92770  13.683  16.058  20.388
91906W        W92771  12.888  16.732  20.322
91907W        W92772  13.358  17.106  18.454
91908W        W92773  13.030  15.127  19.782
91909W        W92774  14.509  15.405  19.050
91910W        W92775  11.003  17.994  21.081
91911W        W92776  11.420  17.220  20.613
91912W        W92777  10.987  18.066  18.845
91913W        W92778  12.886  15.336  20.651
91914W        W92779  12.249  17.359  18.500
91915W        W92780  14.154  17.741  18.686
91916W        W92781  13.129  16.394  18.700
91917W        W92782  11.972  15.585  19.217
91918W        W92783  12.804  15.495  18.269
91919W        W92784  13.388  17.060  21.447
91920W        W92785  13.741  14.966  19.064
91921W        W92786  11.071  14.814  18.512
91922W        W92787  12.357  17.133  20.802
91923W        W92788  12.156  17.049  19.894
91924W        W92789  11.898  17.001  18.292
91925W        W92790  11.139  17.242  19.060
91926W        W92791  11.643  16.312  21.502
91927W        W92792  12.347  14.872  21.688
91928W        W92793  13.056  15.014  21.044
91929W        W92794  12.251  14.782  19.325
91930W        W92795  13.310  14.859  18.830
91931W        W92796  11.255  14.791  20.407
91932W        W92797  11.303  15.754  19.777
91933W        W92798  13.992  14.862  20.183
91934W        W92799  11.414  15.360  18.997
91935W        W92800  13.985  15.048  20.613
91936W        W92801  14.381  16.251  18.298
91937W        W92802  11.673  15.009  20.117
91938W        W92803  12.787  15.581  21.057
91939W        W92804  10.935  15.271  18.535
91940W        W92805  11.721  16.660  21.096
91941W        W92806  13.079  16.058  20.275
91942W        W92807  12.946  18.137  18.571
91943W        W92808  11.092  16.644  18.268
91944W        W92809  11.827  17.055  21.394
91945W        W92810  11.348  16.222  21.025
91946W        W92811  12.339  16.327  20.819
91947W        W92812  14.107  14.686  21.081
91948W        W92813  14.505  16.296  21.072
91949W        W92814  14.493  16.496  18.758
91950W        W92815  13.356  16.828  18.857
91951W        W92816  13.830  18.128  18.552
91952W        W92817  13.007  16.118  21.694
91953W        W92818  11.337  17.085  21.734
91954W        W92819  14.543  15.007  21.686
91955W        W92820  14.261  15.935  20.307
91956W        W92821  12.569  18.065  21.784
91957W        W92822  12.424  14.694  18.511
91958W        W92823  13.963  17.293  18.454
91959W        W92824  11.732  15.386  21.340
91960W        W92825  12.166  17.380  21.202
91961W        W92826  14.292  15.371  21.000
91962W        W92827  13.503  18.030  18.968
91963W        W92828  13.742  16.649  20.335
91964W        W92829  11.992  15.065  21.002
91965W        W92830  12.461  16.134  21.759
91966W        W92831  11.964  17.313  18.953
91967W        W92832  13.719  16.811  19.217
91968W        W92833  11.487  15.437  20.941
91969W        W92834  12.816  17.499  19.405
91970W        W92835  14.566  16.059  19.586
91971W        W92836  12.788  14.692  21.305
91972W        W92837  13.568  17.397  20.384
91973W        W92838  13.871  17.741  20.092
91974W        W92839  13.090  17.543  18.520
91975W        W92840  11.100  17.435  21.362
91976W        W92841  11.843  15.427  20.600
91977W        W92842  11.813  14.775  19.710
91978W        W92843  13.434  15.617  20.402
91979W        W92844  12.232  16.788  18.602
91980W        W92845  14.230  16.730  20.101
91981W        W92846  11.557  17.488  21.524
91982W        W92847  13.944  18.170  19.321
91983W        W92848  12.043  15.190  19.766
91984W        W92849  11.812  16.683  19.856
91985W        W92850  12.125  18.094  20.606
91986W        W92851  14.192  18.190  21.638
91987W        W92852  13.351  16.378  20.571
91988W        W92853  11.200  16.176  18.486
91989W        W92854  14.334  17.834  19.183
91990W        W92855  14.171  15.158  18.802
91991W        W92856  12.310  14.677  21.205
91992W        W92857  14.016  17.479  19.663
91993W        W92858  14.045  16.035  19.568
91994W        W92859  12.162  15.708  19.784
91995W        W92860  12.407  15.970  21.108
91996W        W92861  13.518  17.123  20.971
91997W        W92862  12.168  15.577  21.083
91998W        W92863  12.147  18.043  19.699
91999W        W92864  11.464  18.002  21.333
92000W        W92865  11.576  17.363  18.463
92001W        W92866  14.093  17.121  19.273
92002W        W92867  11.697  15.913  21.159
92003W        W92868  14.470  15.843  18.640
92004W        W92869  12.215  16.900  19.111
92005W        W92870  13.314  16.282  21.192
92006W        W92871  13.205  15.910  20.736
92007W        W92872  11.765  16.282  20.765
92008W        W92873  13.975  18.170  20.594
92009W        W92874  13.766  14.804  21.588
92010W        W92875  11.430  14.954  21.175
92011W        W92876  11.769  15.977  20.228
92012W        W92877  12.138  15.791  18.350
92013W        W92878  10.941  17.550  20.895
92014W        W92879  12.526  16.259  20.338
92015W        W92880  12.349  15.284  18.443
92016W        W92881  11.484  16.100  19.224
92017W        W92882  11.255  17.952  20.661
92018W        W92883  14.050  16.178  18.769
92019W        W92884  14.145  15.094  21.455
92020W        W92885  13.581  17.303  19.418
92021W        W92886  11.179  16.227  21.595
92022W        W92887  14.145  14.691  18.891
92023W        W92888  13.665  17.166  18.902
92024W        W92889  12.567  16.224  18.987
92025W        W92890  13.754  15.028  18.510
92026W        W92891  13.819  15.635  20.696
92027W        W92892  11.528  16.228  19.903
92028W        W92893  11.822  17.167  19.552
92029W        W92894  13.585  15.787  19.517
92030W        W92895  12.608  15.166  20.213
92031W        W92896  14.570  17.077  20.724
92032W        W92897  14.488  15.064  20.285
92033W        W92898  11.027  17.894  19.661
92034W        W92899  11.536  17.081  19.197
92035W        W92900  11.451  14.698  21.750
92036W        W92901  12.570  17.551  21.852
92037W        W92902  14.325  16.519  19.642
92038W        W92903  13.679  16.696  18.522
92039W        W92904  12.974  18.217  20.734
92040W        W92905  13.831  16.939  21.771
92041W        W92906  12.646  14.649  19.051
92042W        W92907  13.359  15.518  19.910
92043W        W92908  11.045  17.105  20.242
92044W        W92909  12.298  15.067  18.883
92045W        W92910  12.102  16.551  21.732
92046W        W92911  13.096  15.532  19.446
92047W        W92912  13.301  16.942  20.568
92048W        W92913  11.455  17.547  21.003
92049W        W92914  12.046  17.530  21.726
92050W        W92915  11.897  15.327  18.740
92051W        W92916  13.414  15.469  19.065
92052W        W92917  13.372  17.577  21.302
92053W        W92918  12.057  16.169  19.901
92054W        W92919  11.712  17.867  20.766
92055W        W92920  14.457  17.984  18.367
92056W        W92921  11.320  16.656  21.363
92057W        W92922  13.315  16.918  20.051
92058W        W92923  11.751  16.567  19.293
92059W        W92924  12.122  17.574  20.688
92060W        W92925  12.500  14.993  19.729
92061W        W92926  11.111  16.977  18.659
92062W        W92927  12.630  15.928  18.529
92063W        W92928  11.276  16.477  19.548
92064W        W92929  12.566  15.119  21.012
92065W        W92930  14.238  14.828  18.439
92066W        W92931  14.331  16.574  21.538
92067W        W92932  12.985  17.831  21.690
92068W        W92933  14.543  16.925  21.212
92069W        W92934  13.951  17.723  21.823
92070W        W92935  11.690  18.179  20.301
92071W        W92936  14.549  16.801  19.175
92072W        W92937  13.079  16.068  19.688
92073W        W92938  12.846  14.680  19.578
92074W        W92939  11.905  17.664  19.415
92075W        W92940  12.404  15.405  20.640
92076W        W92941  12.104  14.774  20.109
92077W        W92942  11.167  17.596  18.657
92078W        W92943  12.983  16.960  19.375
92079W        W92944  11.858  17.755  21.254
92080W        W92945  11.335  16.578  18.950
92081W        W92946  11.220  15.121  19.949
92082W        W92947  12.768  17.086  20.006
92083W        W92948  11.020  14.940  19.026
92084W        W92949  13.684  16.146  20.953
92085W        W92950  13.561  15.532  18.525
92086W        W92951  14.078  17.204  20.173
92087W        W92952  12.739  17.688  20.004
92088W        W92953  12.151  17.792  18.915
92089W        W92954  13.433  14.695  18.345
92090W        W92955  11.233  17.955  20.086
92091W        W92956  13.430  15.713  21.721
92092W        W92957  11.413  15.243  21.720
92093W        W92958  11.144  15.843  19.053
92094W        W92959  11.835  15.832  18.778
92095W        W92960  13.598  16.159  21.595
92096W        W92961  11.941  16.440  20.304
92097W        W92962  13.415  14.726  19.424
92098W        W92963  12.546  18.157  19.927
92099W        W92964  13.760  17.619  20.864
92100W        W92965  13.344  17.768  19.975
92101W        W92966  13.363  16.748  19.569
92102W        W92967  12.825  14.973  18.640
92103W        W92968  14.506  14.601  19.362
92104W        W92969  12.194  16.236  18.525
92105W        W92970  14.360  15.573  19.515
92106W        W92971  13.052  16.743  18.392
92107W        W92972  13.988  16.943  21.140
92108W        W92973  13.642  17.644  18.607
92109W        W92974  12.257  15.319  21.513
92110W        W92975  12.077  15.903  20.754
92111W        W92976  14.169  17.398  21.031
92112W        W92977  13.269  15.348  21.408
92113W        W92978  11.113  15.819  21.185
92114W        W92979  12.873  16.296  20.911
92115W        W92980  11.230  17.054  19.568
92116W        W92981  11.377  16.351  20.458
92117W        W92982  13.694  16.637  20.808
92118W        W92983  13.466  18.017  21.619
92119W        W92984  13.362  15.756  21.172
92120W        W92985  13.639  17.810  19.577
92121W        W92986  12.641  17.530  20.900
92122W        W92987  12.126  17.885  20.169
92123W        W92988  13.931  17.056  20.588
92124W        W92989  12.981  17.128  21.725
92125W        W92990  11.586  17.081  20.064
92126W        W92991  13.932  16.840  19.709
92127W        W92992  13.573  17.906  20.460
92128W        W92993  11.551  17.635  20.330
92129W        W92994  12.572  15.687  21.540
92130W        W92995  13.023  17.853  19.051
92131W        W92996  12.331  17.108  21.689
92132W        W92997  12.457  17.346  19.066
92133W        W92998  11.678  16.086  18.325
92134W        W92999  11.017  18.172  25.225
92135W        W93000  11.393  17.065  24.748
92136W        W93001  14.098  16.795  22.518
92137W        W93002  14.228  17.880  24.545
92138W        W93003  12.146  17.871  22.071
92139W        W93004  12.229  16.023  23.054
92140W        W93005  11.744  15.871  23.218
92141W        W93006  12.735  16.686  22.652
92142W        W93007  12.410  17.778  25.007
92143W        W93008  11.059  15.339  24.970
92144W        W93009  11.821  14.619  24.772
92145W        W93010  13.515  15.007  23.659
92146W        W93011  13.164  15.878  22.229
92147W        W93012  13.734  15.312  25.320
92148W        W93013  11.100  15.104  24.445
92149W        W93014  11.199  17.723  25.466
92150W        W93015  12.721  17.113  22.198
92151W        W93016  11.153  15.896  23.891
92152W        W93017  12.046  15.787  25.128
92153W        W93018  14.505  15.646  23.627
92154W        W93019  14.269  16.689  24.486
92155W        W93020  12.577  16.022  23.513
92156W        W93021  13.123  17.361  23.882
92157W        W93022  11.623  16.795  24.114
92158W        W93023  10.982  16.323  23.685
92159W        W93024  12.018  16.295  24.877
92160W        W93025  14.289  16.078  25.131
92161W        W93026  11.905  17.522  23.576
92162W        W93027  13.026  17.211  24.710
92163W        W93028  12.246  15.851  23.935
92164W        W93029  12.538  16.635  23.578
92165W        W93030  13.535  17.408  25.426
92166W        W93031  12.614  16.728  25.436
92167W        W93032  12.595  16.444  24.914
92168W        W93033  11.004  15.835  25.436
92169W        W93034  13.836  17.370  25.035
92170W        W93035  11.417  14.952  23.033
92171W        W93036  11.944  17.210  24.032
92172W        W93037  14.407  16.993  23.322
92173W        W93038  13.820  15.393  23.889
92174W        W93039  14.105  15.346  21.984
92175W        W93040  14.570  16.147  24.290
92176W        W93041  12.537  17.854  24.043
92177W        W93042  14.311  17.320  22.481
92178W        W93043  11.440  18.106  22.235
92179W        W93044  11.833  18.152  22.911
92180W        W93045  11.630  14.906  24.337
92181W        W93046  14.253  15.924  24.612
92182W        W93047  13.658  16.346  23.071
92183W        W93048  13.624  16.034  22.098
92184W        W93049  12.832  17.178  24.238
92185W        W93050  12.638  15.508  23.437
92186W        W93051  13.238  17.595  24.431
92187W        W93052  14.109  16.386  22.853
92188W        W93053  13.011  15.044  22.869
92189W        W93054  11.668  17.738  22.552
92190W        W93055  11.039  15.237  23.151
92191W        W93056  13.825  15.844  23.625
92192W        W93057  11.283  17.461  23.540
92193W        W93058  12.624  17.811  22.410
92194W        W93059  14.016  15.837  21.874
92195W        W93060  11.039  17.595  24.038
92196W        W93061  11.830  17.167  24.518
92197W        W93062  12.203  16.527  23.137
92198W        W93063  12.225  14.932  24.230
92199W        W93064  14.454  14.694  23.527
92200W        W93065  11.673  16.566  21.995
92201W        W93066  11.328  15.599  22.174
92202W        W93067  11.390  17.555  22.968
92203W        W93068  12.521  17.038  23.216
92204W        W93069  13.853  17.897  24.930
92205W        W93070  12.779  15.539  22.614
92206W        W93071  14.162  17.937  23.386
92207W        W93072  13.839  15.790  24.984
92208W        W93073  14.552  17.446  23.118
92209W        W93074  13.179  16.738  24.602
92210W        W93075  10.945  16.289  22.808
92211W        W93076  12.056  16.704  24.381
92212W        W93077  13.260  15.968  22.759
92213W        W93078  13.137  16.458  22.863
92214W        W93079  11.480  15.878  24.337
92215W        W93080  11.465  15.754  25.259
92216W        W93081  11.355  14.671  23.418
92217W        W93082  13.123  15.018  23.979
92218W        W93083  12.771  15.203  25.142
92219W        W93084  13.126  15.352  22.320
92220W        W93085  14.309  17.745  25.074
92221W        W93086  13.276  14.826  25.113
92222W        W93087  14.295  17.127  25.235
92223W        W93088  13.725  15.294  24.831
92224W        W93089  13.525  15.232  23.101
92225W        W93090  13.918  16.366  25.505
92226W        W93091  11.658  17.942  23.491
92227W        W93092  12.316  15.659  22.477
92228W        W93093  11.885  14.943  25.141
92229W        W93094  13.937  15.427  22.822
92230W        W93095  14.304  15.909  22.767
92231W        W93096  12.047  18.126  25.238
92232W        W93097  11.973  14.662  22.473
92233W        W93098  14.294  15.196  23.508
92234W        W93099  14.444  17.445  21.953
92235W        W93100  11.351  16.648  23.655
92236W        W93101  13.268  15.235  21.885
92237W        W93102  14.402  17.567  23.605
92238W        W93103  14.441  14.761  24.355
92239W        W93104  12.886  15.973  24.909
92240W        W93105  12.979  17.312  22.612
92241W        W93106  13.379  16.606  25.352
92242W        W93107  13.053  14.583  23.661
92243W        W93108  11.665  15.486  23.724
92244W        W93109  11.219  16.686  24.498
92245W        W93110  13.078  17.879  23.204
92246W        W93111  14.272  15.476  24.076
92247W        W93112  12.909  17.823  24.843
92248W        W93113  14.252  16.882  22.048
92249W        W93114  12.687  16.365  23.109
92250W        W93115  14.539  14.876  24.850
92251W        W93116  12.688  16.711  24.444
92252W        W93117  12.905  15.597  23.889
92253W        W93118  13.757  15.895  22.727
92254W        W93119  14.044  15.628  22.369
92255W        W93120  13.853  17.668  22.758
92256W        W93121  13.687  17.271  23.554
92257W        W93122  13.583  16.350  22.532
92258W        W93123  13.016  16.560  23.518
92259W        W93124  13.897  16.348  23.585
92260W        W93125  11.272  15.363  24.009
92261W        W93126  14.050  16.415  24.836
92262W        W93127  14.401  18.033  23.982
92263W        W93128  12.331  17.477  23.384
92264W        W93129  13.338  18.010  24.708
92265W        W93130  13.332  15.340  24.472
92266W        W93131  12.539  18.048  24.533
92267W        W93132  14.236  15.002  22.999
92268W        W93133  14.027  16.321  24.300
92269W        W93134  11.010  15.642  24.338
92270W        W93135  13.870  15.437  23.356
92271W        W93136  14.281  15.588  25.133
92272W        W93137  13.166  17.287  23.351
92273W        W93138  12.422  17.878  22.964
92274W        W93139  11.537  15.058  22.222
92275W        W93140  12.641  14.712  24.032
92276W        W93141  11.669  17.832  21.880
92277W        W93142  12.043  16.298  22.631
92278W        W93143  12.697  16.927  24.944
92279W        W93144  12.527  15.285  22.934
92280W        W93145  13.883  14.882  23.362
92281W        W93146  13.603  18.164  23.690
92282W        W93147  13.015  17.812  24.030
92283W        W93148  12.411  16.849  23.991
92284W        W93149  14.181  17.572  24.117
92285W        W93150  11.875  15.075  22.886
92286W        W93151  12.397  17.372  23.846
92287W        W93152  11.880  15.303  21.911
92288W        W93153  12.681  15.912  24.305
92289W        W93154  13.529  14.778  24.175
92290W        W93155  10.949  16.621  24.060
92291W        W93156  12.653  16.439  22.218
92292W        W93157  11.921  14.754  21.988
92293W        W93158  12.659  15.835  23.039
92294W        W93159  13.629  14.811  24.738
92295W        W93160  12.217  16.823  24.847
92296W        W93161  13.021  16.605  25.064
92297W        W93162  13.638  16.635  24.957
92298W        W93163  12.922  14.775  25.462
92299W        W93164  12.144  15.391  23.855
92300W        W93165  11.570  15.347  23.253
92301W        W93166  11.356  18.059  22.929
92302W        W93167  12.688  17.389  25.054
92303W        W93168  11.723  16.874  22.413
92304W        W93169  13.403  16.259  23.634
92305W        W93170  13.683  16.058  24.033
92306W        W93171  12.888  16.732  23.967
92307W        W93172  13.358  17.106  22.099
92308W        W93173  13.030  15.127  23.427
92309W        W93174  14.509  15.405  22.695
92310W        W93175  11.003  17.994  24.726
92311W        W93176  11.420  17.220  24.258
92312W        W93177  10.987  18.066  22.490
92313W        W93178  12.886  15.336  24.296
92314W        W93179  12.249  17.359  22.145
92315W        W93180  14.154  17.741  22.331
92316W        W93181  13.129  16.394  22.345
92317W        W93182  11.972  15.585  22.862
92318W        W93183  12.804  15.495  21.914
92319W        W93184  13.388  17.060  25.092
92320W        W93185  13.741  14.966  22.709
92321W        W93186  11.071  14.814  22.157
92322W        W93187  12.357  17.133  24.447
92323W        W93188  12.156  17.049  23.539
92324W        W93189  11.898  17.001  21.937
92325W        W93190  11.139  17.242  22.705
92326W        W93191  11.643  16.312  25.147
92327W        W93192  12.347  14.872  25.333
92328W        W93193  13.056  15.014  24.689
92329W        W93194  12.251  14.782  22.970
92330W        W93195  13.310  14.859  22.475
92331W        W93196  11.255  14.791  24.052
92332W        W93197  11.303  15.754  23.422
92333W        W93198  13.992  14.862  23.828
92334W        W93199  11.414  15.360  22.642
92335W        W93200  13.985  15.048  24.258
92336W        W93201  14.381  16.251  21.943
92337W        W93202  11.673  15.009  23.762
92338W        W93203  12.787  15.581  24.702
92339W        W93204  10.935  15.271  22.180
92340W        W93205  11.721  16.660  24.741
92341W        W93206  13.079  16.058  23.920
92342W        W93207  12.946  18.137  22.216
92343W        W93208  11.092  16.644  21.913
92344W        W93209  11.827  17.055  25.039
92345W        W93210  11.348  16.222  24.670
92346W        W93211  12.339  16.327  24.464
92347W        W93212  14.107  14.686  24.726
92348W        W93213  14.505  16.296  24.717
92349W        W93214  14.493  16.496  22.403
92350W        W93215  13.356  16.828  22.502
92351W        W93216  13.830  18.128  22.197
92352W        W93217  13.007  16.118  25.339
92353W        W93218  11.337  17.085  25.379
92354W        W93219  14.543  15.007  25.331
92355W        W93220  14.261  15.935  23.952
92356W        W93221  12.569  18.065  25.429
92357W        W93222  12.424  14.694  22.156
92358W        W93223  13.963  17.293  22.099
92359W        W93224  11.732  15.386  24.985
92360W        W93225  12.166  17.380  24.847
92361W        W93226  14.292  15.371  24.645
92362W        W93227  13.503  18.030  22.613
92363W        W93228  13.742  16.649  23.980
92364W        W93229  11.992  15.065  24.647
92365W        W93230  12.461  16.134  25.404
92366W        W93231  11.964  17.313  22.598
92367W        W93232  13.719  16.811  22.862
92368W        W93233  11.487  15.437  24.586
92369W        W93234  12.816  17.499  23.050
92370W        W93235  14.566  16.059  23.231
92371W        W93236  12.788  14.692  24.950
92372W        W93237  13.568  17.397  24.029
92373W        W93238  13.871  17.741  23.737
92374W        W93239  13.090  17.543  22.165
92375W        W93240  11.100  17.435  25.007
92376W        W93241  11.843  15.427  24.245
92377W        W93242  11.813  14.775  23.355
92378W        W93243  13.434  15.617  24.047
92379W        W93244  12.232  16.788  22.247
92380W        W93245  14.230  16.730  23.746
92381W        W93246  11.557  17.488  25.169
92382W        W93247  13.944  18.170  22.966
92383W        W93248  12.043  15.190  23.411
92384W        W93249  11.812  16.683  23.501
92385W        W93250  12.125  18.094  24.251
92386W        W93251  14.192  18.190  25.283
92387W        W93252  13.351  16.378  24.216
92388W        W93253  11.200  16.176  22.131
92389W        W93254  14.334  17.834  22.828
92390W        W93255  14.171  15.158  22.447
92391W        W93256  12.310  14.677  24.850
92392W        W93257  14.016  17.479  23.308
92393W        W93258  14.045  16.035  23.213
92394W        W93259  12.162  15.708  23.429
92395W        W93260  12.407  15.970  24.753
92396W        W93261  13.518  17.123  24.616
92397W        W93262  12.168  15.577  24.728
92398W        W93263  12.147  18.043  23.344
92399W        W93264  11.464  18.002  24.978
92400W        W93265  11.576  17.363  22.108
92401W        W93266  14.093  17.121  22.918
92402W        W93267  11.697  15.913  24.804
92403W        W93268  14.470  15.843  22.285
92404W        W93269  12.215  16.900  22.756
92405W        W93270  13.314  16.282  24.837
92406W        W93271  13.205  15.910  24.381
92407W        W93272  11.765  16.282  24.410
92408W        W93273  13.975  18.170  24.239
92409W        W93274  13.766  14.804  25.233
92410W        W93275  11.430  14.954  24.820
92411W        W93276  11.769  15.977  23.873
92412W        W93277  12.138  15.791  21.995
92413W        W93278  10.941  17.550  24.540
92414W        W93279  12.526  16.259  23.983
92415W        W93280  12.349  15.284  22.088
92416W        W93281  11.484  16.100  22.869
92417W        W93282  11.255  17.952  24.306
92418W        W93283  14.050  16.178  22.414
92419W        W93284  14.145  15.094  25.100
92420W        W93285  13.581  17.303  23.063
92421W        W93286  11.179  16.227  25.240
92422W        W93287  14.145  14.691  22.536
92423W        W93288  13.665  17.166  22.547
92424W        W93289  12.567  16.224  22.632
92425W        W93290  13.754  15.028  22.155
92426W        W93291  13.819  15.635  24.341
92427W        W93292  11.528  16.228  23.548
92428W        W93293  11.822  17.167  23.197
92429W        W93294  13.585  15.787  23.162
92430W        W93295  12.608  15.166  23.858
92431W        W93296  14.570  17.077  24.369
92432W        W93297  14.488  15.064  23.930
92433W        W93298  11.027  17.894  23.306
92434W        W93299  11.536  17.081  22.842
92435W        W93300  11.451  14.698  25.395
92436W        W93301  12.570  17.551  25.497
92437W        W93302  14.325  16.519  23.287
92438W        W93303  13.679  16.696  22.167
92439W        W93304  12.974  18.217  24.379
92440W        W93305  13.831  16.939  25.416
92441W        W93306  12.646  14.649  22.696
92442W        W93307  13.359  15.518  23.555
92443W        W93308  11.045  17.105  23.887
92444W        W93309  12.298  15.067  22.528
92445W        W93310  12.102  16.551  25.377
92446W        W93311  13.096  15.532  23.091
92447W        W93312  13.301  16.942  24.213
92448W        W93313  11.455  17.547  24.648
92449W        W93314  11.897  15.327  22.385
92450W        W93315  13.414  15.469  22.710
92451W        W93316  13.372  17.577  24.947
92452W        W93317  12.057  16.169  23.546
92453W        W93318  11.712  17.867  24.411
92454W        W93319  14.457  17.984  22.012
92455W        W93320  11.320  16.656  25.008
92456W        W93321  13.315  16.918  23.696
92457W        W93322  11.751  16.567  22.938
92458W        W93323  12.122  17.574  24.333
92459W        W93324  12.500  14.993  23.374
92460W        W93325  11.111  16.977  22.304
92461W        W93326  12.630  15.928  22.174
92462W        W93327  11.276  16.477  23.193
92463W        W93328  12.566  15.119  24.657
92464W        W93329  14.238  14.828  22.084
92465W        W93330  14.331  16.574  25.183
92466W        W93331  12.985  17.831  25.335
92467W        W93332  14.543  16.925  24.857
92468W        W93333  13.951  17.723  25.468
92469W        W93334  11.690  18.179  23.946
92470W        W93335  14.549  16.801  22.820
92471W        W93336  13.079  16.068  23.333
92472W        W93337  12.846  14.680  23.223
92473W        W93338  11.905  17.664  23.060
92474W        W93339  12.404  15.405  24.285
92475W        W93340  12.104  14.774  23.754
92476W        W93341  11.167  17.596  22.302
92477W        W93342  12.983  16.960  23.020
92478W        W93343  11.858  17.755  24.899
92479W        W93344  11.335  16.578  22.595
92480W        W93345  11.220  15.121  23.594
92481W        W93346  12.768  17.086  23.651
92482W        W93347  11.020  14.940  22.671
92483W        W93348  13.684  16.146  24.598
92484W        W93349  13.561  15.532  22.170
92485W        W93350  14.078  17.204  23.818
92486W        W93351  12.739  17.688  23.649
92487W        W93352  12.151  17.792  22.560
92488W        W93353  13.433  14.695  21.990
92489W        W93354  11.233  17.955  23.731
92490W        W93355  13.430  15.713  25.366
92491W        W93356  11.413  15.243  25.365
92492W        W93357  11.144  15.843  22.698
92493W        W93358  11.835  15.832  22.423
92494W        W93359  13.598  16.159  25.240
92495W        W93360  11.941  16.440  23.949
92496W        W93361  13.415  14.726  23.069
92497W        W93362  12.546  18.157  23.572
92498W        W93363  13.760  17.619  24.509
92499W        W93364  13.344  17.768  23.620
92500W        W93365  13.363  16.748  23.214
92501W        W93366  12.825  14.973  22.285
92502W        W93367  14.506  14.601  23.007
92503W        W93368  12.194  16.236  22.170
92504W        W93369  14.360  15.573  23.160
92505W        W93370  13.052  16.743  22.037
92506W        W93371  13.988  16.943  24.785
92507W        W93372  13.642  17.644  22.252
92508W        W93373  12.257  15.319  25.158
92509W        W93374  12.077  15.903  24.399
92510W        W93375  14.169  17.398  24.676
92511W        W93376  13.269  15.348  25.053
92512W        W93377  11.113  15.819  24.830
92513W        W93378  12.873  16.296  24.556
92514W        W93379  11.230  17.054  23.213
92515W        W93380  11.377  16.351  24.103
92516W        W93381  13.694  16.637  24.453
92517W        W93382  13.466  18.017  25.264
92518W        W93383  13.362  15.756  24.817
92519W        W93384  13.639  17.810  23.222
92520W        W93385  12.641  17.530  24.545
92521W        W93386  12.126  17.885  23.814
92522W        W93387  13.931  17.056  24.233
92523W        W93388  12.981  17.128  25.370
92524W        W93389  11.586  17.081  23.709
92525W        W93390  13.932  16.840  23.354
92526W        W93391  13.573  17.906  24.105
92527W        W93392  11.551  17.635  23.975
92528W        W93393  12.572  15.687  25.185
92529W        W93394  13.023  17.853  22.696
92530W        W93395  12.331  17.108  25.334
92531W        W93396  12.457  17.346  22.711
92532W        W93397  11.678  16.086  21.970
92533W        W93398  11.017  18.172  28.869
92534W        W93399  11.393  17.065  28.392
92535W        W93400  14.098  16.795  26.162
92536W        W93401  14.228  17.880  28.189
92537W        W93402  12.146  17.871  25.715
92538W        W93403  12.229  16.023  26.698
92539W        W93404  11.744  15.871  26.862
92540W        W93405  12.735  16.686  26.296
92541W        W93406  12.410  17.778  28.651
92542W        W93407  11.059  15.339  28.614
92543W        W93408  11.821  14.619  28.416
92544W        W93409  13.515  15.007  27.303
92545W        W93410  13.164  15.878  25.873
92546W        W93411  13.734  15.312  28.964
92547W        W93412  11.100  15.104  28.089
92548W        W93413  11.199  17.723  29.110
92549W        W93414  12.721  17.113  25.842
92550W        W93415  11.153  15.896  27.535
92551W        W93416  12.046  15.787  28.772
92552W        W93417  14.505  15.646  27.271
92553W        W93418  14.269  16.689  28.130
92554W        W93419  12.577  16.022  27.157
92555W        W93420  13.123  17.361  27.526
92556W        W93421  11.623  16.795  27.758
92557W        W93422  10.982  16.323  27.329
92558W        W93423  12.018  16.295  28.521
92559W        W93424  14.289  16.078  28.775
92560W        W93425  11.905  17.522  27.220
92561W        W93426  13.026  17.211  28.354
92562W        W93427  12.246  15.851  27.579
92563W        W93428  12.538  16.635  27.222
92564W        W93429  13.535  17.408  29.070
92565W        W93430  12.614  16.728  29.080
92566W        W93431  12.595  16.444  28.558
92567W        W93432  11.004  15.835  29.080
92568W        W93433  13.836  17.370  28.679
92569W        W93434  11.417  14.952  26.677
92570W        W93435  11.944  17.210  27.676
92571W        W93436  14.407  16.993  26.966
92572W        W93437  13.820  15.393  27.533
92573W        W93438  14.105  15.346  25.628
92574W        W93439  14.570  16.147  27.934
92575W        W93440  12.537  17.854  27.687
92576W        W93441  14.311  17.320  26.125
92577W        W93442  11.440  18.106  25.879
92578W        W93443  11.833  18.152  26.555
92579W        W93444  11.630  14.906  27.981
92580W        W93445  14.253  15.924  28.256
92581W        W93446  13.658  16.346  26.715
92582W        W93447  13.624  16.034  25.742
92583W        W93448  12.832  17.178  27.882
92584W        W93449  12.638  15.508  27.081
92585W        W93450  13.238  17.595  28.075
92586W        W93451  14.109  16.386  26.497
92587W        W93452  13.011  15.044  26.513
92588W        W93453  11.668  17.738  26.196
92589W        W93454  11.039  15.237  26.795
92590W        W93455  13.825  15.844  27.269
92591W        W93456  11.283  17.461  27.184
92592W        W93457  12.624  17.811  26.054
92593W        W93458  14.016  15.837  25.518
92594W        W93459  11.039  17.595  27.682
92595W        W93460  11.830  17.167  28.162
92596W        W93461  12.203  16.527  26.781
92597W        W93462  12.225  14.932  27.874
92598W        W93463  14.454  14.694  27.171
92599W        W93464  11.673  16.566  25.639
92600W        W93465  11.328  15.599  25.818
92601W        W93466  11.390  17.555  26.612
92602W        W93467  12.521  17.038  26.860
92603W        W93468  13.853  17.897  28.574
92604W        W93469  12.779  15.539  26.258
92605W        W93470  14.162  17.937  27.030
92606W        W93471  13.839  15.790  28.628
92607W        W93472  14.552  17.446  26.762
92608W        W93473  13.179  16.738  28.246
92609W        W93474  10.945  16.289  26.452
92610W        W93475  12.056  16.704  28.025
92611W        W93476  13.260  15.968  26.403
92612W        W93477  13.137  16.458  26.507
92613W        W93478  11.480  15.878  27.981
92614W        W93479  11.465  15.754  28.903
92615W        W93480  11.355  14.671  27.062
92616W        W93481  13.123  15.018  27.623
92617W        W93482  12.771  15.203  28.786
92618W        W93483  13.126  15.352  25.964
92619W        W93484  14.309  17.745  28.718
92620W        W93485  13.276  14.826  28.757
92621W        W93486  14.295  17.127  28.879
92622W        W93487  13.725  15.294  28.475
92623W        W93488  13.525  15.232  26.745
92624W        W93489  13.918  16.366  29.149
92625W        W93490  11.658  17.942  27.135
92626W        W93491  12.316  15.659  26.121
92627W        W93492  11.885  14.943  28.785
92628W        W93493  13.937  15.427  26.466
92629W        W93494  14.304  15.909  26.411
92630W        W93495  12.047  18.126  28.882
92631W        W93496  11.973  14.662  26.117
92632W        W93497  14.294  15.196  27.152
92633W        W93498  14.444  17.445  25.597
92634W        W93499  11.351  16.648  27.299
92635W        W93500  13.268  15.235  25.529
92636W        W93501  14.402  17.567  27.249
92637W        W93502  14.441  14.761  27.999
92638W        W93503  12.886  15.973  28.553
92639W        W93504  12.979  17.312  26.256
92640W        W93505  13.379  16.606  28.996
92641W        W93506  13.053  14.583  27.305
92642W        W93507  11.665  15.486  27.368
92643W        W93508  11.219  16.686  28.142
92644W        W93509  13.078  17.879  26.848
92645W        W93510  14.272  15.476  27.720
92646W        W93511  12.909  17.823  28.487
92647W        W93512  14.252  16.882  25.692
92648W        W93513  12.687  16.365  26.753
92649W        W93514  14.539  14.876  28.494
92650W        W93515  12.688  16.711  28.088
92651W        W93516  12.905  15.597  27.533
92652W        W93517  13.757  15.895  26.371
92653W        W93518  14.044  15.628  26.013
92654W        W93519  13.853  17.668  26.402
92655W        W93520  13.687  17.271  27.198
92656W        W93521  13.583  16.350  26.176
92657W        W93522  13.016  16.560  27.162
92658W        W93523  13.897  16.348  27.229
92659W        W93524  11.272  15.363  27.653
92660W        W93525  14.050  16.415  28.480
92661W        W93526  14.401  18.033  27.626
92662W        W93527  12.331  17.477  27.028
92663W        W93528  13.338  18.010  28.352
92664W        W93529  13.332  15.340  28.116
92665W        W93530  12.539  18.048  28.177
92666W        W93531  14.236  15.002  26.643
92667W        W93532  14.027  16.321  27.944
92668W        W93533  11.010  15.642  27.982
92669W        W93534  13.870  15.437  27.000
92670W        W93535  14.281  15.588  28.777
92671W        W93536  13.166  17.287  26.995
92672W        W93537  12.422  17.878  26.608
92673W        W93538  11.537  15.058  25.866
92674W        W93539  12.641  14.712  27.676
92675W        W93540  11.669  17.832  25.524
92676W        W93541  12.043  16.298  26.275
92677W        W93542  12.697  16.927  28.588
92678W        W93543  12.527  15.285  26.578
92679W        W93544  13.883  14.882  27.006
92680W        W93545  13.603  18.164  27.334
92681W        W93546  13.015  17.812  27.674
92682W        W93547  12.411  16.849  27.635
92683W        W93548  14.181  17.572  27.761
92684W        W93549  11.875  15.075  26.530
92685W        W93550  12.397  17.372  27.490
92686W        W93551  11.880  15.303  25.555
92687W        W93552  12.681  15.912  27.949
92688W        W93553  13.529  14.778  27.819
92689W        W93554  10.949  16.621  27.704
92690W        W93555  12.653  16.439  25.862
92691W        W93556  11.921  14.754  25.632
92692W        W93557  12.659  15.835  26.683
92693W        W93558  13.629  14.811  28.382
92694W        W93559  12.217  16.823  28.491
92695W        W93560  13.021  16.605  28.708
92696W        W93561  13.638  16.635  28.601
92697W        W93562  12.922  14.775  29.106
92698W        W93563  12.144  15.391  27.499
92699W        W93564  11.570  15.347  26.897
92700W        W93565  11.356  18.059  26.573
92701W        W93566  12.688  17.389  28.698
92702W        W93567  11.723  16.874  26.057
92703W        W93568  13.403  16.259  27.278
92704W        W93569  13.683  16.058  27.677
92705W        W93570  12.888  16.732  27.611
92706W        W93571  13.358  17.106  25.743
92707W        W93572  13.030  15.127  27.071
92708W        W93573  14.509  15.405  26.339
92709W        W93574  11.003  17.994  28.370
92710W        W93575  11.420  17.220  27.902
92711W        W93576  10.987  18.066  26.134
92712W        W93577  12.886  15.336  27.940
92713W        W93578  12.249  17.359  25.789
92714W        W93579  14.154  17.741  25.975
92715W        W93580  13.129  16.394  25.989
92716W        W93581  11.972  15.585  26.506
92717W        W93582  12.804  15.495  25.558
92718W        W93583  13.388  17.060  28.736
92719W        W93584  13.741  14.966  26.353
92720W        W93585  11.071  14.814  25.801
92721W        W93586  12.357  17.133  28.091
92722W        W93587  12.156  17.049  27.183
92723W        W93588  11.898  17.001  25.581
92724W        W93589  11.139  17.242  26.349
92725W        W93590  11.643  16.312  28.791
92726W        W93591  12.347  14.872  28.977
92727W        W93592  13.056  15.014  28.333
92728W        W93593  12.251  14.782  26.614
92729W        W93594  13.310  14.859  26.119
92730W        W93595  11.255  14.791  27.696
92731W        W93596  11.303  15.754  27.066
92732W        W93597  13.992  14.862  27.472
92733W        W93598  11.414  15.360  26.286
92734W        W93599  13.985  15.048  27.902
92735W        W93600  14.381  16.251  25.587
92736W        W93601  11.673  15.009  27.406
92737W        W93602  12.787  15.581  28.346
92738W        W93603  10.935  15.271  25.824
92739W        W93604  11.721  16.660  28.385
92740W        W93605  13.079  16.058  27.564
92741W        W93606  12.946  18.137  25.860
92742W        W93607  11.092  16.644  25.557
92743W        W93608  11.827  17.055  28.683
92744W        W93609  11.348  16.222  28.314
92745W        W93610  12.339  16.327  28.108
92746W        W93611  14.107  14.686  28.370
92747W        W93612  14.505  16.296  28.361
92748W        W93613  14.493  16.496  26.047
92749W        W93614  13.356  16.828  26.146
92750W        W93615  13.830  18.128  25.841
92751W        W93616  13.007  16.118  28.983
92752W        W93617  11.337  17.085  29.023
92753W        W93618  14.543  15.007  28.975
92754W        W93619  14.261  15.935  27.596
92755W        W93620  12.569  18.065  29.073
92756W        W93621  12.424  14.694  25.800
92757W        W93622  13.963  17.293  25.743
92758W        W93623  11.732  15.386  28.629
92759W        W93624  12.166  17.380  28.491
92760W        W93625  14.292  15.371  28.289
92761W        W93626  13.503  18.030  26.257
92762W        W93627  13.742  16.649  27.624
92763W        W93628  11.992  15.065  28.291
92764W        W93629  12.461  16.134  29.048
92765W        W93630  11.964  17.313  26.242
92766W        W93631  13.719  16.811  26.506
92767W        W93632  11.487  15.437  28.230
92768W        W93633  12.816  17.499  26.694
92769W        W93634  14.566  16.059  26.875
92770W        W93635  12.788  14.692  28.594
92771W        W93636  13.568  17.397  27.673
92772W        W93637  13.871  17.741  27.381
92773W        W93638  13.090  17.543  25.809
92774W        W93639  11.100  17.435  28.651
92775W        W93640  11.843  15.427  27.889
92776W        W93641  11.813  14.775  26.999
92777W        W93642  13.434  15.617  27.691
92778W        W93643  12.232  16.788  25.891
92779W        W93644  14.230  16.730  27.390
92780W        W93645  11.557  17.488  28.813
92781W        W93646  13.944  18.170  26.610
92782W        W93647  12.043  15.190  27.055
92783W        W93648  11.812  16.683  27.145
92784W        W93649  12.125  18.094  27.895
92785W        W93650  14.192  18.190  28.927
92786W        W93651  13.351  16.378  27.860
92787W        W93652  11.200  16.176  25.775
92788W        W93653  14.334  17.834  26.472
92789W        W93654  14.171  15.158  26.091
92790W        W93655  12.310  14.677  28.494
92791W        W93656  14.016  17.479  26.952
92792W        W93657  14.045  16.035  26.857
92793W        W93658  12.162  15.708  27.073
92794W        W93659  12.407  15.970  28.397
92795W        W93660  13.518  17.123  28.260
92796W        W93661  12.168  15.577  28.372
92797W        W93662  12.147  18.043  26.988
92798W        W93663  11.464  18.002  28.622
92799W        W93664  11.576  17.363  25.752
92800W        W93665  14.093  17.121  26.562
92801W        W93666  11.697  15.913  28.448
92802W        W93667  14.470  15.843  25.929
92803W        W93668  12.215  16.900  26.400
92804W        W93669  13.314  16.282  28.481
92805W        W93670  13.205  15.910  28.025
92806W        W93671  11.765  16.282  28.054
92807W        W93672  13.975  18.170  27.883
92808W        W93673  13.766  14.804  28.877
92809W        W93674  11.430  14.954  28.464
92810W        W93675  11.769  15.977  27.517
92811W        W93676  12.138  15.791  25.639
92812W        W93677  10.941  17.550  28.184
92813W        W93678  12.526  16.259  27.627
92814W        W93679  12.349  15.284  25.732
92815W        W93680  11.484  16.100  26.513
92816W        W93681  11.255  17.952  27.950
92817W        W93682  14.050  16.178  26.058
92818W        W93683  14.145  15.094  28.744
92819W        W93684  13.581  17.303  26.707
92820W        W93685  11.179  16.227  28.884
92821W        W93686  14.145  14.691  26.180
92822W        W93687  13.665  17.166  26.191
92823W        W93688  12.567  16.224  26.276
92824W        W93689  13.754  15.028  25.799
92825W        W93690  13.819  15.635  27.985
92826W        W93691  11.528  16.228  27.192
92827W        W93692  11.822  17.167  26.841
92828W        W93693  13.585  15.787  26.806
92829W        W93694  12.608  15.166  27.502
92830W        W93695  14.570  17.077  28.013
92831W        W93696  14.488  15.064  27.574
92832W        W93697  11.027  17.894  26.950
92833W        W93698  11.536  17.081  26.486
92834W        W93699  11.451  14.698  29.039
92835W        W93700  12.570  17.551  29.141
92836W        W93701  14.325  16.519  26.931
92837W        W93702  13.679  16.696  25.811
92838W        W93703  12.974  18.217  28.023
92839W        W93704  13.831  16.939  29.060
92840W        W93705  12.646  14.649  26.340
92841W        W93706  13.359  15.518  27.199
92842W        W93707  11.045  17.105  27.531
92843W        W93708  12.298  15.067  26.172
92844W        W93709  12.102  16.551  29.021
92845W        W93710  13.096  15.532  26.735
92846W        W93711  13.301  16.942  27.857
92847W        W93712  11.455  17.547  28.292
92848W        W93713  12.046  17.530  29.015
92849W        W93714  11.897  15.327  26.029
92850W        W93715  13.414  15.469  26.354
92851W        W93716  13.372  17.577  28.591
92852W        W93717  12.057  16.169  27.190
92853W        W93718  11.712  17.867  28.055
92854W        W93719  14.457  17.984  25.656
92855W        W93720  11.320  16.656  28.652
92856W        W93721  13.315  16.918  27.340
92857W        W93722  11.751  16.567  26.582
92858W        W93723  12.122  17.574  27.977
92859W        W93724  12.500  14.993  27.018
92860W        W93725  11.111  16.977  25.948
92861W        W93726  12.630  15.928  25.818
92862W        W93727  11.276  16.477  26.837
92863W        W93728  12.566  15.119  28.301
92864W        W93729  14.238  14.828  25.728
92865W        W93730  14.331  16.574  28.827
92866W        W93731  12.985  17.831  28.979
92867W        W93732  14.543  16.925  28.501
92868W        W93733  13.951  17.723  29.112
92869W        W93734  11.690  18.179  27.590
92870W        W93735  14.549  16.801  26.464
92871W        W93736  13.079  16.068  26.977
92872W        W93737  12.846  14.680  26.867
92873W        W93738  11.905  17.664  26.704
92874W        W93739  12.404  15.405  27.929
92875W        W93740  12.104  14.774  27.398
92876W        W93741  11.167  17.596  25.946
92877W        W93742  12.983  16.960  26.664
92878W        W93743  11.858  17.755  28.543
92879W        W93744  11.335  16.578  26.239
92880W        W93745  11.220  15.121  27.238
92881W        W93746  12.768  17.086  27.295
92882W        W93747  11.020  14.940  26.315
92883W        W93748  13.684  16.146  28.242
92884W        W93749  13.561  15.532  25.814
92885W        W93750  14.078  17.204  27.462
92886W        W93751  12.739  17.688  27.293
92887W        W93752  12.151  17.792  26.204
92888W        W93753  13.433  14.695  25.634
92889W        W93754  11.233  17.955  27.375
92890W        W93755  13.430  15.713  29.010
92891W        W93756  11.413  15.243  29.009
92892W        W93757  11.144  15.843  26.342
92893W        W93758  11.835  15.832  26.067
92894W        W93759  13.598  16.159  28.884
92895W        W93760  11.941  16.440  27.593
92896W        W93761  13.415  14.726  26.713
92897W        W93762  12.546  18.157  27.216
92898W        W93763  13.760  17.619  28.153
92899W        W93764  13.344  17.768  27.264
92900W        W93765  13.363  16.748  26.858
92901W        W93766  12.825  14.973  25.929
92902W        W93767  14.506  14.601  26.651
92903W        W93768  12.194  16.236  25.814
92904W        W93769  14.360  15.573  26.804
92905W        W93770  13.052  16.743  25.681
92906W        W93771  13.988  16.943  28.429
92907W        W93772  13.642  17.644  25.896
92908W        W93773  12.257  15.319  28.802
92909W        W93774  12.077  15.903  28.043
92910W        W93775  14.169  17.398  28.320
92911W        W93776  13.269  15.348  28.697
92912W        W93777  11.113  15.819  28.474
92913W        W93778  12.873  16.296  28.200
92914W        W93779  11.230  17.054  26.857
92915W        W93780  11.377  16.351  27.747
92916W        W93781  13.694  16.637  28.097
92917W        W93782  13.466  18.017  28.908
92918W        W93783  13.362  15.756  28.461
92919W        W93784  13.639  17.810  26.866
92920W        W93785  12.641  17.530  28.189
92921W        W93786  12.126  17.885  27.458
92922W        W93787  13.931  17.056  27.877
92923W        W93788  12.981  17.128  29.014
92924W        W93789  11.586  17.081  27.353
92925W        W93790  13.932  16.840  26.998
92926W        W93791  13.573  17.906  27.749
92927W        W93792  11.551  17.635  27.619
92928W        W93793  12.572  15.687  28.829
92929W        W93794  13.023  17.853  26.340
92930W        W93795  12.331  17.108  28.978
92931W        W93796  12.457  17.346  26.355
92932W        W93797  11.678  16.086  25.614
92933W        W93798  11.017  21.816   3.359
92934W        W93799  11.393  20.709   2.882
92935W        W93800  14.098  20.439   0.652
92936W        W93801  14.228  21.524   2.679
92937W        W93802  12.146  21.515   0.205
92938W        W93803  12.229  19.667   1.188
92939W        W93804  11.744  19.515   1.352
92940W        W93805  12.735  20.330   0.786
92941W        W93806  12.410  21.422   3.141
92942W        W93807  11.059  18.983   3.104
92943W        W93808  11.821  18.263   2.906
92944W        W93809  13.515  18.651   1.793
92945W        W93810  13.164  19.522   0.363
92946W        W93811  13.734  18.956   3.454
92947W        W93812  11.100  18.748   2.579
92948W        W93813  11.199  21.367   3.600
92949W        W93814  12.721  20.757   0.332
92950W        W93815  11.153  19.540   2.025
92951W        W93816  12.046  19.431   3.262
92952W        W93817  14.505  19.290   1.761
92953W        W93818  14.269  20.333   2.620
92954W        W93819  12.577  19.666   1.647
92955W        W93820  13.123  21.005   2.016
92956W        W93821  11.623  20.439   2.248
92957W        W93822  10.982  19.967   1.819
92958W        W93823  12.018  19.939   3.011
92959W        W93824  14.289  19.722   3.265
92960W        W93825  11.905  21.166   1.710
92961W        W93826  13.026  20.855   2.844
92962W        W93827  12.246  19.495   2.069
92963W        W93828  12.538  20.279   1.712
92964W        W93829  13.535  21.052   3.560
92965W        W93830  12.614  20.372   3.570
92966W        W93831  12.595  20.088   3.048
92967W        W93832  11.004  19.479   3.570
92968W        W93833  13.836  21.014   3.169
92969W        W93834  11.417  18.596   1.167
92970W        W93835  11.944  20.854   2.166
92971W        W93836  14.407  20.637   1.456
92972W        W93837  13.820  19.037   2.023
92973W        W93838  14.105  18.990   0.118
92974W        W93839  14.570  19.791   2.424
92975W        W93840  12.537  21.498   2.177
92976W        W93841  14.311  20.964   0.615
92977W        W93842  11.440  21.750   0.369
92978W        W93843  11.833  21.796   1.045
92979W        W93844  11.630  18.550   2.471
92980W        W93845  14.253  19.568   2.746
92981W        W93846  13.658  19.990   1.205
92982W        W93847  13.624  19.678   0.232
92983W        W93848  12.832  20.822   2.372
92984W        W93849  12.638  19.152   1.571
92985W        W93850  13.238  21.239   2.565
92986W        W93851  14.109  20.030   0.987
92987W        W93852  13.011  18.688   1.003
92988W        W93853  11.668  21.382   0.686
92989W        W93854  11.039  18.881   1.285
92990W        W93855  13.825  19.488   1.759
92991W        W93856  11.283  21.105   1.674
92992W        W93857  12.624  21.455   0.544
92993W        W93858  14.016  19.481   0.008
92994W        W93859  11.039  21.239   2.172
92995W        W93860  11.830  20.811   2.652
92996W        W93861  12.203  20.171   1.271
92997W        W93862  12.225  18.576   2.364
92998W        W93863  14.454  18.338   1.661
92999W        W93864  11.673  20.210   0.129
93000W        W93865  11.328  19.243   0.308
93001W        W93866  11.390  21.199   1.102
93002W        W93867  12.521  20.682   1.350
93003W        W93868  13.853  21.541   3.064
93004W        W93869  12.779  19.183   0.748
93005W        W93870  14.162  21.581   1.520
93006W        W93871  13.839  19.434   3.118
93007W        W93872  14.552  21.090   1.252
93008W        W93873  13.179  20.382   2.736
93009W        W93874  10.945  19.933   0.942
93010W        W93875  12.056  20.348   2.515
93011W        W93876  13.260  19.612   0.893
93012W        W93877  13.137  20.102   0.997
93013W        W93878  11.480  19.522   2.471
93014W        W93879  11.465  19.398   3.393
93015W        W93880  11.355  18.315   1.552
93016W        W93881  13.123  18.662   2.113
93017W        W93882  12.771  18.847   3.276
93018W        W93883  13.126  18.996   0.454
93019W        W93884  14.309  21.389   3.208
93020W        W93885  13.276  18.470   3.247
93021W        W93886  14.295  20.771   3.369
93022W        W93887  13.725  18.938   2.965
93023W        W93888  13.525  18.876   1.235
93024W        W93889  13.918  20.010   3.639
93025W        W93890  11.658  21.586   1.625
93026W        W93891  12.316  19.303   0.611
93027W        W93892  11.885  18.587   3.275
93028W        W93893  13.937  19.071   0.956
93029W        W93894  14.304  19.553   0.901
93030W        W93895  12.047  21.770   3.372
93031W        W93896  11.973  18.306   0.607
93032W        W93897  14.294  18.840   1.642
93033W        W93898  14.444  21.089   0.087
93034W        W93899  11.351  20.292   1.789
93035W        W93900  13.268  18.879   0.019
93036W        W93901  14.402  21.211   1.739
93037W        W93902  14.441  18.405   2.489
93038W        W93903  12.886  19.617   3.043
93039W        W93904  12.979  20.956   0.746
93040W        W93905  13.379  20.250   3.486
93041W        W93906  13.053  18.227   1.795
93042W        W93907  11.665  19.130   1.858
93043W        W93908  11.219  20.330   2.632
93044W        W93909  13.078  21.523   1.338
93045W        W93910  14.272  19.120   2.210
93046W        W93911  12.909  21.467   2.977
93047W        W93912  14.252  20.526   0.182
93048W        W93913  12.687  20.009   1.243
93049W        W93914  14.539  18.520   2.984
93050W        W93915  12.688  20.355   2.578
93051W        W93916  12.905  19.241   2.023
93052W        W93917  13.757  19.539   0.861
93053W        W93918  14.044  19.272   0.503
93054W        W93919  13.853  21.312   0.892
93055W        W93920  13.687  20.915   1.688
93056W        W93921  13.583  19.994   0.666
93057W        W93922  13.016  20.204   1.652
93058W        W93923  13.897  19.992   1.719
93059W        W93924  11.272  19.007   2.143
93060W        W93925  14.050  20.059   2.970
93061W        W93926  14.401  21.677   2.116
93062W        W93927  12.331  21.121   1.518
93063W        W93928  13.338  21.654   2.842
93064W        W93929  13.332  18.984   2.606
93065W        W93930  12.539  21.692   2.667
93066W        W93931  14.236  18.646   1.133
93067W        W93932  14.027  19.965   2.434
93068W        W93933  11.010  19.286   2.472
93069W        W93934  13.870  19.081   1.490
93070W        W93935  14.281  19.232   3.267
93071W        W93936  13.166  20.931   1.485
93072W        W93937  12.422  21.522   1.098
93073W        W93938  11.537  18.702   0.356
93074W        W93939  12.641  18.356   2.166
93075W        W93940  11.669  21.476   0.014
93076W        W93941  12.043  19.942   0.765
93077W        W93942  12.697  20.571   3.078
93078W        W93943  12.527  18.929   1.068
93079W        W93944  13.883  18.526   1.496
93080W        W93945  13.603  21.808   1.824
93081W        W93946  13.015  21.456   2.164
93082W        W93947  12.411  20.493   2.125
93083W        W93948  14.181  21.216   2.251
93084W        W93949  11.875  18.719   1.020
93085W        W93950  12.397  21.016   1.980
93086W        W93951  11.880  18.947   0.045
93087W        W93952  12.681  19.556   2.439
93088W        W93953  13.529  18.422   2.309
93089W        W93954  10.949  20.265   2.194
93090W        W93955  12.653  20.083   0.352
93091W        W93956  11.921  18.398   0.122
93092W        W93957  12.659  19.479   1.173
93093W        W93958  13.629  18.455   2.872
93094W        W93959  12.217  20.467   2.981
93095W        W93960  13.021  20.249   3.198
93096W        W93961  13.638  20.279   3.091
93097W        W93962  12.922  18.419   3.596
93098W        W93963  12.144  19.035   1.989
93099W        W93964  11.570  18.991   1.387
93100W        W93965  11.356  21.703   1.063
93101W        W93966  12.688  21.033   3.188
93102W        W93967  11.723  20.518   0.547
93103W        W93968  13.403  19.903   1.768
93104W        W93969  13.683  19.702   2.167
93105W        W93970  12.888  20.376   2.101
93106W        W93971  13.358  20.750   0.233
93107W        W93972  13.030  18.771   1.561
93108W        W93973  14.509  19.049   0.829
93109W        W93974  11.003  21.638   2.860
93110W        W93975  11.420  20.864   2.392
93111W        W93976  10.987  21.710   0.624
93112W        W93977  12.886  18.980   2.430
93113W        W93978  12.249  21.003   0.279
93114W        W93979  14.154  21.385   0.465
93115W        W93980  13.129  20.038   0.479
93116W        W93981  11.972  19.229   0.996
93117W        W93982  12.804  19.139   0.048
93118W        W93983  13.388  20.704   3.226
93119W        W93984  13.741  18.610   0.843
93120W        W93985  11.071  18.458   0.291
93121W        W93986  12.357  20.777   2.581
93122W        W93987  12.156  20.693   1.673
93123W        W93988  11.898  20.645   0.071
93124W        W93989  11.139  20.886   0.839
93125W        W93990  11.643  19.956   3.281
93126W        W93991  12.347  18.516   3.467
93127W        W93992  13.056  18.658   2.823
93128W        W93993  12.251  18.426   1.104
93129W        W93994  13.310  18.503   0.609
93130W        W93995  11.255  18.435   2.186
93131W        W93996  11.303  19.398   1.556
93132W        W93997  13.992  18.506   1.962
93133W        W93998  11.414  19.004   0.776
93134W        W93999  13.985  18.692   2.392
93135W        W94000  14.381  19.895   0.077
93136W        W94001  11.673  18.653   1.896
93137W        W94002  12.787  19.225   2.836
93138W        W94003  10.935  18.915   0.314
93139W        W94004  11.721  20.304   2.875
93140W        W94005  13.079  19.702   2.054
93141W        W94006  12.946  21.781   0.350
93142W        W94007  11.092  20.288   0.047
93143W        W94008  11.827  20.699   3.173
93144W        W94009  11.348  19.866   2.804
93145W        W94010  12.339  19.971   2.598
93146W        W94011  14.107  18.330   2.860
93147W        W94012  14.505  19.940   2.851
93148W        W94013  14.493  20.140   0.537
93149W        W94014  13.356  20.472   0.636
93150W        W94015  13.830  21.772   0.331
93151W        W94016  13.007  19.762   3.473
93152W        W94017  11.337  20.729   3.513
93153W        W94018  14.543  18.651   3.465
93154W        W94019  14.261  19.579   2.086
93155W        W94020  12.569  21.709   3.563
93156W        W94021  12.424  18.338   0.290
93157W        W94022  13.963  20.937   0.233
93158W        W94023  11.732  19.030   3.119
93159W        W94024  12.166  21.024   2.981
93160W        W94025  14.292  19.015   2.779
93161W        W94026  13.503  21.674   0.747
93162W        W94027  13.742  20.293   2.114
93163W        W94028  11.992  18.709   2.781
93164W        W94029  12.461  19.778   3.538
93165W        W94030  11.964  20.957   0.732
93166W        W94031  13.719  20.455   0.996
93167W        W94032  11.487  19.081   2.720
93168W        W94033  12.816  21.143   1.184
93169W        W94034  14.566  19.703   1.365
93170W        W94035  12.788  18.336   3.084
93171W        W94036  13.568  21.041   2.163
93172W        W94037  13.871  21.385   1.871
93173W        W94038  13.090  21.187   0.299
93174W        W94039  11.100  21.079   3.141
93175W        W94040  11.843  19.071   2.379
93176W        W94041  11.813  18.419   1.489
93177W        W94042  13.434  19.261   2.181
93178W        W94043  12.232  20.432   0.381
93179W        W94044  14.230  20.374   1.880
93180W        W94045  11.557  21.132   3.303
93181W        W94046  13.944  21.814   1.100
93182W        W94047  12.043  18.834   1.545
93183W        W94048  11.812  20.327   1.635
93184W        W94049  12.125  21.738   2.385
93185W        W94050  14.192  21.834   3.417
93186W        W94051  13.351  20.022   2.350
93187W        W94052  11.200  19.820   0.265
93188W        W94053  14.334  21.478   0.962
93189W        W94054  14.171  18.802   0.581
93190W        W94055  12.310  18.321   2.984
93191W        W94056  14.016  21.123   1.442
93192W        W94057  14.045  19.679   1.347
93193W        W94058  12.162  19.352   1.563
93194W        W94059  12.407  19.614   2.887
93195W        W94060  13.518  20.767   2.750
93196W        W94061  12.168  19.221   2.862
93197W        W94062  12.147  21.687   1.478
93198W        W94063  11.464  21.646   3.112
93199W        W94064  11.576  21.007   0.242
93200W        W94065  14.093  20.765   1.052
93201W        W94066  11.697  19.557   2.938
93202W        W94067  14.470  19.487   0.419
93203W        W94068  12.215  20.544   0.890
93204W        W94069  13.314  19.926   2.971
93205W        W94070  13.205  19.554   2.515
93206W        W94071  11.765  19.926   2.544
93207W        W94072  13.975  21.814   2.373
93208W        W94073  13.766  18.448   3.367
93209W        W94074  11.430  18.598   2.954
93210W        W94075  11.769  19.621   2.007
93211W        W94076  12.138  19.435   0.129
93212W        W94077  10.941  21.194   2.674
93213W        W94078  12.526  19.903   2.117
93214W        W94079  12.349  18.928   0.222
93215W        W94080  11.484  19.744   1.003
93216W        W94081  11.255  21.596   2.440
93217W        W94082  14.050  19.822   0.548
93218W        W94083  14.145  18.738   3.234
93219W        W94084  13.581  20.947   1.197
93220W        W94085  11.179  19.871   3.374
93221W        W94086  14.145  18.335   0.670
93222W        W94087  13.665  20.810   0.681
93223W        W94088  12.567  19.868   0.766
93224W        W94089  13.754  18.672   0.289
93225W        W94090  13.819  19.279   2.475
93226W        W94091  11.528  19.872   1.682
93227W        W94092  11.822  20.811   1.331
93228W        W94093  13.585  19.431   1.296
93229W        W94094  12.608  18.810   1.992
93230W        W94095  14.570  20.721   2.503
93231W        W94096  14.488  18.708   2.064
93232W        W94097  11.027  21.538   1.440
93233W        W94098  11.536  20.725   0.976
93234W        W94099  11.451  18.342   3.529
93235W        W94100  12.570  21.195   3.631
93236W        W94101  14.325  20.163   1.421
93237W        W94102  13.679  20.340   0.301
93238W        W94103  12.974  21.861   2.513
93239W        W94104  13.831  20.583   3.550
93240W        W94105  12.646  18.293   0.830
93241W        W94106  13.359  19.162   1.689
93242W        W94107  11.045  20.749   2.021
93243W        W94108  12.298  18.711   0.662
93244W        W94109  12.102  20.195   3.511
93245W        W94110  13.096  19.176   1.225
93246W        W94111  13.301  20.586   2.347
93247W        W94112  11.455  21.191   2.782
93248W        W94113  12.046  21.174   3.505
93249W        W94114  11.897  18.971   0.519
93250W        W94115  13.414  19.113   0.844
93251W        W94116  13.372  21.221   3.081
93252W        W94117  12.057  19.813   1.680
93253W        W94118  11.712  21.511   2.545
93254W        W94119  14.457  21.628   0.146
93255W        W94120  11.320  20.300   3.142
93256W        W94121  13.315  20.562   1.830
93257W        W94122  11.751  20.211   1.072
93258W        W94123  12.122  21.218   2.467
93259W        W94124  12.500  18.637   1.508
93260W        W94125  11.111  20.621   0.438
93261W        W94126  12.630  19.572   0.308
93262W        W94127  11.276  20.121   1.327
93263W        W94128  12.566  18.763   2.791
93264W        W94129  14.238  18.472   0.218
93265W        W94130  14.331  20.218   3.317
93266W        W94131  12.985  21.475   3.469
93267W        W94132  14.543  20.569   2.991
93268W        W94133  13.951  21.367   3.602
93269W        W94134  11.690  21.823   2.080
93270W        W94135  14.549  20.445   0.954
93271W        W94136  13.079  19.712   1.467
93272W        W94137  12.846  18.324   1.357
93273W        W94138  11.905  21.308   1.194
93274W        W94139  12.404  19.049   2.419
93275W        W94140  12.104  18.418   1.888
93276W        W94141  11.167  21.240   0.436
93277W        W94142  12.983  20.604   1.154
93278W        W94143  11.858  21.399   3.033
93279W        W94144  11.335  20.222   0.729
93280W        W94145  11.220  18.765   1.728
93281W        W94146  12.768  20.730   1.785
93282W        W94147  11.020  18.584   0.805
93283W        W94148  13.684  19.790   2.732
93284W        W94149  13.561  19.176   0.304
93285W        W94150  14.078  20.848   1.952
93286W        W94151  12.739  21.332   1.783
93287W        W94152  12.151  21.436   0.694
93288W        W94153  13.433  18.339   0.124
93289W        W94154  11.233  21.599   1.865
93290W        W94155  13.430  19.357   3.500
93291W        W94156  11.413  18.887   3.499
93292W        W94157  11.144  19.487   0.832
93293W        W94158  11.835  19.476   0.557
93294W        W94159  13.598  19.803   3.374
93295W        W94160  11.941  20.084   2.083
93296W        W94161  13.415  18.370   1.203
93297W        W94162  12.546  21.801   1.706
93298W        W94163  13.760  21.263   2.643
93299W        W94164  13.344  21.412   1.754
93300W        W94165  13.363  20.392   1.348
93301W        W94166  12.825  18.617   0.419
93302W        W94167  14.506  18.245   1.141
93303W        W94168  12.194  19.880   0.304
93304W        W94169  14.360  19.217   1.294
93305W        W94170  13.052  20.387   0.171
93306W        W94171  13.988  20.587   2.919
93307W        W94172  13.642  21.288   0.386
93308W        W94173  12.257  18.963   3.292
93309W        W94174  12.077  19.547   2.533
93310W        W94175  14.169  21.042   2.810
93311W        W94176  13.269  18.992   3.187
93312W        W94177  11.113  19.463   2.964
93313W        W94178  12.873  19.940   2.690
93314W        W94179  11.230  20.698   1.347
93315W        W94180  11.377  19.995   2.237
93316W        W94181  13.694  20.281   2.587
93317W        W94182  13.466  21.661   3.398
93318W        W94183  13.362  19.400   2.951
93319W        W94184  13.639  21.454   1.356
93320W        W94185  12.641  21.174   2.679
93321W        W94186  12.126  21.529   1.948
93322W        W94187  13.931  20.700   2.367
93323W        W94188  12.981  20.772   3.504
93324W        W94189  11.586  20.725   1.843
93325W        W94190  13.932  20.484   1.488
93326W        W94191  13.573  21.550   2.239
93327W        W94192  11.551  21.279   2.109
93328W        W94193  12.572  19.331   3.319
93329W        W94194  13.023  21.497   0.830
93330W        W94195  12.331  20.752   3.468
93331W        W94196  12.457  20.990   0.845
93332W        W94197  11.678  19.730   0.104
93333W        W94198  11.017  21.816   7.003
93334W        W94199  11.393  20.709   6.526
93335W        W94200  14.098  20.439   4.296
93336W        W94201  14.228  21.524   6.323
93337W        W94202  12.146  21.515   3.849
93338W        W94203  12.229  19.667   4.832
93339W        W94204  11.744  19.515   4.996
93340W        W94205  12.735  20.330   4.430
93341W        W94206  12.410  21.422   6.785
93342W        W94207  11.059  18.983   6.748
93343W        W94208  11.821  18.263   6.550
93344W        W94209  13.515  18.651   5.437
93345W        W94210  13.164  19.522   4.007
93346W        W94211  11.100  18.748   6.223
93347W        W94212  11.199  21.367   7.244
93348W        W94213  12.721  20.757   3.976
93349W        W94214  11.153  19.540   5.669
93350W        W94215  12.046  19.431   6.906
93351W        W94216  14.505  19.290   5.405
93352W        W94217  14.269  20.333   6.264
93353W        W94218  12.577  19.666   5.291
93354W        W94219  13.123  21.005   5.660
93355W        W94220  11.623  20.439   5.892
93356W        W94221  10.982  19.967   5.463
93357W        W94222  12.018  19.939   6.655
93358W        W94223  14.289  19.722   6.909
93359W        W94224  11.905  21.166   5.354
93360W        W94225  13.026  20.855   6.488
93361W        W94226  12.246  19.495   5.713
93362W        W94227  12.538  20.279   5.356
93363W        W94228  13.535  21.052   7.204
93364W        W94229  12.614  20.372   7.214
93365W        W94230  12.595  20.088   6.692
93366W        W94231  11.004  19.479   7.214
93367W        W94232  13.836  21.014   6.813
93368W        W94233  11.417  18.596   4.811
93369W        W94234  11.944  20.854   5.810
93370W        W94235  14.407  20.637   5.100
93371W        W94236  13.820  19.037   5.667
93372W        W94237  14.105  18.990   3.762
93373W        W94238  14.570  19.791   6.068
93374W        W94239  12.537  21.498   5.821
93375W        W94240  14.311  20.964   4.259
93376W        W94241  11.440  21.750   4.013
93377W        W94242  11.833  21.796   4.689
93378W        W94243  11.630  18.550   6.115
93379W        W94244  14.253  19.568   6.390
93380W        W94245  13.658  19.990   4.849
93381W        W94246  13.624  19.678   3.876
93382W        W94247  12.832  20.822   6.016
93383W        W94248  12.638  19.152   5.215
93384W        W94249  13.238  21.239   6.209
93385W        W94250  14.109  20.030   4.631
93386W        W94251  13.011  18.688   4.647
93387W        W94252  11.668  21.382   4.330
93388W        W94253  11.039  18.881   4.929
93389W        W94254  13.825  19.488   5.403
93390W        W94255  11.283  21.105   5.318
93391W        W94256  12.624  21.455   4.188
93392W        W94257  14.016  19.481   3.652
93393W        W94258  11.039  21.239   5.816
93394W        W94259  11.830  20.811   6.296
93395W        W94260  12.203  20.171   4.915
93396W        W94261  12.225  18.576   6.008
93397W        W94262  14.454  18.338   5.305
93398W        W94263  11.673  20.210   3.773
93399W        W94264  11.328  19.243   3.952
93400W        W94265  11.390  21.199   4.746
93401W        W94266  12.521  20.682   4.994
93402W        W94267  13.853  21.541   6.708
93403W        W94268  12.779  19.183   4.392
93404W        W94269  14.162  21.581   5.164
93405W        W94270  13.839  19.434   6.762
93406W        W94271  14.552  21.090   4.896
93407W        W94272  13.179  20.382   6.380
93408W        W94273  10.945  19.933   4.586
93409W        W94274  12.056  20.348   6.159
93410W        W94275  13.260  19.612   4.537
93411W        W94276  13.137  20.102   4.641
93412W        W94277  11.480  19.522   6.115
93413W        W94278  11.465  19.398   7.037
93414W        W94279  11.355  18.315   5.196
93415W        W94280  13.123  18.662   5.757
93416W        W94281  12.771  18.847   6.920
93417W        W94282  13.126  18.996   4.098
93418W        W94283  14.309  21.389   6.852
93419W        W94284  13.276  18.470   6.891
93420W        W94285  14.295  20.771   7.013
93421W        W94286  13.525  18.876   4.879
93422W        W94287  13.918  20.010   7.283
93423W        W94288  11.658  21.586   5.269
93424W        W94289  12.316  19.303   4.255
93425W        W94290  11.885  18.587   6.919
93426W        W94291  13.937  19.071   4.600
93427W        W94292  14.304  19.553   4.545
93428W        W94293  12.047  21.770   7.016
93429W        W94294  11.973  18.306   4.251
93430W        W94295  14.294  18.840   5.286
93431W        W94296  14.444  21.089   3.731
93432W        W94297  11.351  20.292   5.433
93433W        W94298  13.268  18.879   3.663
93434W        W94299  14.402  21.211   5.383
93435W        W94300  14.441  18.405   6.133
93436W        W94301  12.886  19.617   6.687
93437W        W94302  12.979  20.956   4.390
93438W        W94303  13.379  20.250   7.130
93439W        W94304  13.053  18.227   5.439
93440W        W94305  11.665  19.130   5.502
93441W        W94306  11.219  20.330   6.276
93442W        W94307  13.078  21.523   4.982
93443W        W94308  14.272  19.120   5.854
93444W        W94309  12.909  21.467   6.621
93445W        W94310  14.252  20.526   3.826
93446W        W94311  12.687  20.009   4.887
93447W        W94312  14.539  18.520   6.628
93448W        W94313  12.688  20.355   6.222
93449W        W94314  12.905  19.241   5.667
93450W        W94315  13.757  19.539   4.505
93451W        W94316  14.044  19.272   4.147
93452W        W94317  13.853  21.312   4.536
93453W        W94318  13.687  20.915   5.332
93454W        W94319  13.583  19.994   4.310
93455W        W94320  13.016  20.204   5.296
93456W        W94321  13.897  19.992   5.363
93457W        W94322  11.272  19.007   5.787
93458W        W94323  14.050  20.059   6.614
93459W        W94324  14.401  21.677   5.760
93460W        W94325  12.331  21.121   5.162
93461W        W94326  13.338  21.654   6.486
93462W        W94327  13.332  18.984   6.250
93463W        W94328  12.539  21.692   6.311
93464W        W94329  14.236  18.646   4.777
93465W        W94330  14.027  19.965   6.078
93466W        W94331  11.010  19.286   6.116
93467W        W94332  13.870  19.081   5.134
93468W        W94333  14.281  19.232   6.911
93469W        W94334  13.166  20.931   5.129
93470W        W94335  12.422  21.522   4.742
93471W        W94336  11.537  18.702   4.000
93472W        W94337  12.641  18.356   5.810
93473W        W94338  11.669  21.476   3.658
93474W        W94339  12.043  19.942   4.409
93475W        W94340  12.697  20.571   6.722
93476W        W94341  12.527  18.929   4.712
93477W        W94342  13.883  18.526   5.140
93478W        W94343  13.603  21.808   5.468
93479W        W94344  13.015  21.456   5.808
93480W        W94345  12.411  20.493   5.769
93481W        W94346  14.181  21.216   5.895
93482W        W94347  11.875  18.719   4.664
93483W        W94348  12.397  21.016   5.624
93484W        W94349  11.880  18.947   3.689
93485W        W94350  12.681  19.556   6.083
93486W        W94351  13.529  18.422   5.953
93487W        W94352  10.949  20.265   5.838
93488W        W94353  12.653  20.083   3.996
93489W        W94354  11.921  18.398   3.766
93490W        W94355  12.659  19.479   4.817
93491W        W94356  13.629  18.455   6.516
93492W        W94357  12.217  20.467   6.625
93493W        W94358  13.021  20.249   6.842
93494W        W94359  13.638  20.279   6.735
93495W        W94360  12.922  18.419   7.240
93496W        W94361  12.144  19.035   5.633
93497W        W94362  11.570  18.991   5.031
93498W        W94363  11.356  21.703   4.707
93499W        W94364  12.688  21.033   6.832
93500W        W94365  11.723  20.518   4.191
93501W        W94366  13.403  19.903   5.412
93502W        W94367  13.683  19.702   5.811
93503W        W94368  12.888  20.376   5.745
93504W        W94369  13.358  20.750   3.877
93505W        W94370  13.030  18.771   5.205
93506W        W94371  14.509  19.049   4.473
93507W        W94372  11.003  21.638   6.504
93508W        W94373  11.420  20.864   6.036
93509W        W94374  10.987  21.710   4.268
93510W        W94375  12.886  18.980   6.074
93511W        W94376  12.249  21.003   3.923
93512W        W94377  14.154  21.385   4.109
93513W        W94378  13.129  20.038   4.123
93514W        W94379  11.972  19.229   4.640
93515W        W94380  12.804  19.139   3.692
93516W        W94381  13.388  20.704   6.870
93517W        W94382  13.741  18.610   4.487
93518W        W94383  11.071  18.458   3.935
93519W        W94384  12.357  20.777   6.225
93520W        W94385  12.156  20.693   5.317
93521W        W94386  11.898  20.645   3.715
93522W        W94387  11.139  20.886   4.483
93523W        W94388  11.643  19.956   6.925
93524W        W94389  12.347  18.516   7.111
93525W        W94390  13.056  18.658   6.467
93526W        W94391  12.251  18.426   4.748
93527W        W94392  13.310  18.503   4.253
93528W        W94393  11.255  18.435   5.830
93529W        W94394  11.303  19.398   5.200
93530W        W94395  13.992  18.506   5.606
93531W        W94396  11.414  19.004   4.420
93532W        W94397  13.985  18.692   6.036
93533W        W94398  14.381  19.895   3.721
93534W        W94399  11.673  18.653   5.540
93535W        W94400  12.787  19.225   6.480
93536W        W94401  10.935  18.915   3.958
93537W        W94402  11.721  20.304   6.519
93538W        W94403  13.079  19.702   5.698
93539W        W94404  12.946  21.781   3.994
93540W        W94405  11.092  20.288   3.691
93541W        W94406  11.827  20.699   6.817
93542W        W94407  11.348  19.866   6.448
93543W        W94408  12.339  19.971   6.242
93544W        W94409  14.107  18.330   6.504
93545W        W94410  14.505  19.940   6.495
93546W        W94411  14.493  20.140   4.181
93547W        W94412  13.356  20.472   4.280
93548W        W94413  13.830  21.772   3.975
93549W        W94414  13.007  19.762   7.117
93550W        W94415  11.337  20.729   7.157
93551W        W94416  14.543  18.651   7.109
93552W        W94417  14.261  19.579   5.730
93553W        W94418  12.569  21.709   7.207
93554W        W94419  12.424  18.338   3.934
93555W        W94420  13.963  20.937   3.877
93556W        W94421  11.732  19.030   6.763
93557W        W94422  12.166  21.024   6.625
93558W        W94423  14.292  19.015   6.423
93559W        W94424  13.503  21.674   4.391
93560W        W94425  13.742  20.293   5.758
93561W        W94426  11.992  18.709   6.425
93562W        W94427  12.461  19.778   7.182
93563W        W94428  11.964  20.957   4.376
93564W        W94429  13.719  20.455   4.640
93565W        W94430  11.487  19.081   6.364
93566W        W94431  12.816  21.143   4.828
93567W        W94432  14.566  19.703   5.009
93568W        W94433  12.788  18.336   6.728
93569W        W94434  13.568  21.041   5.807
93570W        W94435  13.871  21.385   5.515
93571W        W94436  13.090  21.187   3.943
93572W        W94437  11.100  21.079   6.785
93573W        W94438  11.843  19.071   6.023
93574W        W94439  11.813  18.419   5.133
93575W        W94440  13.434  19.261   5.825
93576W        W94441  12.232  20.432   4.025
93577W        W94442  14.230  20.374   5.524
93578W        W94443  11.557  21.132   6.947
93579W        W94444  13.944  21.814   4.744
93580W        W94445  12.043  18.834   5.189
93581W        W94446  11.812  20.327   5.279
93582W        W94447  12.125  21.738   6.029
93583W        W94448  14.192  21.834   7.061
93584W        W94449  13.351  20.022   5.994
93585W        W94450  11.200  19.820   3.909
93586W        W94451  14.334  21.478   4.606
93587W        W94452  14.171  18.802   4.225
93588W        W94453  12.310  18.321   6.628
93589W        W94454  14.016  21.123   5.086
93590W        W94455  14.045  19.679   4.991
93591W        W94456  12.162  19.352   5.207
93592W        W94457  12.407  19.614   6.531
93593W        W94458  13.518  20.767   6.394
93594W        W94459  12.168  19.221   6.506
93595W        W94460  12.147  21.687   5.122
93596W        W94461  11.464  21.646   6.756
93597W        W94462  11.576  21.007   3.886
93598W        W94463  14.093  20.765   4.696
93599W        W94464  11.697  19.557   6.582
93600W        W94465  14.470  19.487   4.063
93601W        W94466  12.215  20.544   4.534
93602W        W94467  13.314  19.926   6.615
93603W        W94468  13.205  19.554   6.159
93604W        W94469  11.765  19.926   6.188
93605W        W94470  13.975  21.814   6.017
93606W        W94471  11.430  18.598   6.598
93607W        W94472  11.769  19.621   5.651
93608W        W94473  12.138  19.435   3.773
93609W        W94474  10.941  21.194   6.318
93610W        W94475  12.526  19.903   5.761
93611W        W94476  12.349  18.928   3.866
93612W        W94477  11.484  19.744   4.647
93613W        W94478  11.255  21.596   6.084
93614W        W94479  14.050  19.822   4.192
93615W        W94480  14.145  18.738   6.878
93616W        W94481  13.581  20.947   4.841
93617W        W94482  11.179  19.871   7.018
93618W        W94483  14.145  18.335   4.314
93619W        W94484  13.665  20.810   4.325
93620W        W94485  12.567  19.868   4.410
93621W        W94486  13.754  18.672   3.933
93622W        W94487  13.819  19.279   6.119
93623W        W94488  11.528  19.872   5.326
93624W        W94489  11.822  20.811   4.975
93625W        W94490  13.585  19.431   4.940
93626W        W94491  12.608  18.810   5.636
93627W        W94492  14.570  20.721   6.147
93628W        W94493  14.488  18.708   5.708
93629W        W94494  11.027  21.538   5.084
93630W        W94495  11.536  20.725   4.620
93631W        W94496  11.451  18.342   7.173
93632W        W94497  12.570  21.195   7.275
93633W        W94498  14.325  20.163   5.065
93634W        W94499  13.679  20.340   3.945
93635W        W94500  12.974  21.861   6.157
93636W        W94501  13.831  20.583   7.194
93637W        W94502  12.646  18.293   4.474
93638W        W94503  13.359  19.162   5.333
93639W        W94504  11.045  20.749   5.665
93640W        W94505  12.298  18.711   4.306
93641W        W94506  12.102  20.195   7.155
93642W        W94507  13.096  19.176   4.869
93643W        W94508  13.301  20.586   5.991
93644W        W94509  11.455  21.191   6.426
93645W        W94510  12.046  21.174   7.149
93646W        W94511  11.897  18.971   4.163
93647W        W94512  13.414  19.113   4.488
93648W        W94513  13.372  21.221   6.725
93649W        W94514  12.057  19.813   5.324
93650W        W94515  11.712  21.511   6.189
93651W        W94516  14.457  21.628   3.790
93652W        W94517  11.320  20.300   6.786
93653W        W94518  13.315  20.562   5.474
93654W        W94519  11.751  20.211   4.716
93655W        W94520  12.122  21.218   6.111
93656W        W94521  12.500  18.637   5.152
93657W        W94522  11.111  20.621   4.082
93658W        W94523  12.630  19.572   3.952
93659W        W94524  11.276  20.121   4.971
93660W        W94525  12.566  18.763   6.435
93661W        W94526  14.238  18.472   3.862
93662W        W94527  14.331  20.218   6.961
93663W        W94528  12.985  21.475   7.113
93664W        W94529  14.543  20.569   6.635
93665W        W94530  13.951  21.367   7.246
93666W        W94531  11.690  21.823   5.724
93667W        W94532  14.549  20.445   4.598
93668W        W94533  13.079  19.712   5.111
93669W        W94534  12.846  18.324   5.001
93670W        W94535  11.905  21.308   4.838
93671W        W94536  12.404  19.049   6.063
93672W        W94537  12.104  18.418   5.532
93673W        W94538  11.167  21.240   4.080
93674W        W94539  12.983  20.604   4.798
93675W        W94540  11.858  21.399   6.677
93676W        W94541  11.335  20.222   4.373
93677W        W94542  11.220  18.765   5.372
93678W        W94543  12.768  20.730   5.429
93679W        W94544  11.020  18.584   4.449
93680W        W94545  13.684  19.790   6.376
93681W        W94546  13.561  19.176   3.948
93682W        W94547  14.078  20.848   5.596
93683W        W94548  12.739  21.332   5.427
93684W        W94549  12.151  21.436   4.338
93685W        W94550  13.433  18.339   3.768
93686W        W94551  11.233  21.599   5.509
93687W        W94552  13.430  19.357   7.144
93688W        W94553  11.413  18.887   7.143
93689W        W94554  11.144  19.487   4.476
93690W        W94555  11.835  19.476   4.201
93691W        W94556  13.598  19.803   7.018
93692W        W94557  11.941  20.084   5.727
93693W        W94558  13.415  18.370   4.847
93694W        W94559  12.546  21.801   5.350
93695W        W94560  13.760  21.263   6.287
93696W        W94561  13.344  21.412   5.398
93697W        W94562  13.363  20.392   4.992
93698W        W94563  12.825  18.617   4.063
93699W        W94564  14.506  18.245   4.785
93700W        W94565  12.194  19.880   3.948
93701W        W94566  14.360  19.217   4.938
93702W        W94567  13.052  20.387   3.815
93703W        W94568  13.988  20.587   6.563
93704W        W94569  13.642  21.288   4.030
93705W        W94570  12.257  18.963   6.936
93706W        W94571  12.077  19.547   6.177
93707W        W94572  14.169  21.042   6.454
93708W        W94573  13.269  18.992   6.831
93709W        W94574  11.113  19.463   6.608
93710W        W94575  12.873  19.940   6.334
93711W        W94576  11.230  20.698   4.991
93712W        W94577  11.377  19.995   5.881
93713W        W94578  13.694  20.281   6.231
93714W        W94579  13.466  21.661   7.042
93715W        W94580  13.362  19.400   6.595
93716W        W94581  13.639  21.454   5.000
93717W        W94582  12.641  21.174   6.323
93718W        W94583  12.126  21.529   5.592
93719W        W94584  13.931  20.700   6.011
93720W        W94585  12.981  20.772   7.148
93721W        W94586  11.586  20.725   5.487
93722W        W94587  13.932  20.484   5.132
93723W        W94588  13.573  21.550   5.883
93724W        W94589  11.551  21.279   5.753
93725W        W94590  12.572  19.331   6.963
93726W        W94591  13.023  21.497   4.474
93727W        W94592  12.331  20.752   7.112
93728W        W94593  12.457  20.990   4.489
93729W        W94594  11.678  19.730   3.748
93730W        W94595  11.017  21.816  10.648
93731W        W94596  11.393  20.709  10.171
93732W        W94597  14.098  20.439   7.941
93733W        W94598  14.228  21.524   9.968
93734W        W94599  12.146  21.515   7.494
93735W        W94600  12.229  19.667   8.477
93736W        W94601  11.744  19.515   8.641
93737W        W94602  12.735  20.330   8.075
93738W        W94603  12.410  21.422  10.430
93739W        W94604  11.059  18.983  10.393
93740W        W94605  11.821  18.263  10.195
93741W        W94606  13.515  18.651   9.082
93742W        W94607  13.164  19.522   7.652
93743W        W94608  13.734  18.956  10.743
93744W        W94609  11.100  18.748   9.868
93745W        W94610  11.199  21.367  10.889
93746W        W94611  12.721  20.757   7.621
93747W        W94612  11.153  19.540   9.314
93748W        W94613  12.046  19.431  10.551
93749W        W94614  14.505  19.290   9.050
93750W        W94615  14.269  20.333   9.909
93751W        W94616  12.577  19.666   8.936
93752W        W94617  13.123  21.005   9.305
93753W        W94618  11.623  20.439   9.537
93754W        W94619  10.982  19.967   9.108
93755W        W94620  12.018  19.939  10.300
93756W        W94621  14.289  19.722  10.554
93757W        W94622  11.905  21.166   8.999
93758W        W94623  13.026  20.855  10.133
93759W        W94624  12.246  19.495   9.358
93760W        W94625  12.538  20.279   9.001
93761W        W94626  13.535  21.052  10.849
93762W        W94627  12.614  20.372  10.859
93763W        W94628  12.595  20.088  10.337
93764W        W94629  11.004  19.479  10.859
93765W        W94630  13.836  21.014  10.458
93766W        W94631  11.417  18.596   8.456
93767W        W94632  11.944  20.854   9.455
93768W        W94633  14.407  20.637   8.745
93769W        W94634  13.820  19.037   9.312
93770W        W94635  14.105  18.990   7.407
93771W        W94636  14.570  19.791   9.713
93772W        W94637  12.537  21.498   9.466
93773W        W94638  14.311  20.964   7.904
93774W        W94639  11.440  21.750   7.658
93775W        W94640  11.833  21.796   8.334
93776W        W94641  11.630  18.550   9.760
93777W        W94642  14.253  19.568  10.035
93778W        W94643  13.658  19.990   8.494
93779W        W94644  13.624  19.678   7.521
93780W        W94645  12.832  20.822   9.661
93781W        W94646  12.638  19.152   8.860
93782W        W94647  13.238  21.239   9.854
93783W        W94648  14.109  20.030   8.276
93784W        W94649  13.011  18.688   8.292
93785W        W94650  11.668  21.382   7.975
93786W        W94651  11.039  18.881   8.574
93787W        W94652  13.825  19.488   9.048
93788W        W94653  11.283  21.105   8.963
93789W        W94654  12.624  21.455   7.833
93790W        W94655  14.016  19.481   7.297
93791W        W94656  11.039  21.239   9.461
93792W        W94657  11.830  20.811   9.941
93793W        W94658  12.203  20.171   8.560
93794W        W94659  12.225  18.576   9.653
93795W        W94660  14.454  18.338   8.950
93796W        W94661  11.673  20.210   7.418
93797W        W94662  11.328  19.243   7.597
93798W        W94663  11.390  21.199   8.391
93799W        W94664  12.521  20.682   8.639
93800W        W94665  13.853  21.541  10.353
93801W        W94666  12.779  19.183   8.037
93802W        W94667  14.162  21.581   8.809
93803W        W94668  13.839  19.434  10.407
93804W        W94669  14.552  21.090   8.541
93805W        W94670  13.179  20.382  10.025
93806W        W94671  10.945  19.933   8.231
93807W        W94672  12.056  20.348   9.804
93808W        W94673  13.260  19.612   8.182
93809W        W94674  13.137  20.102   8.286
93810W        W94675  11.480  19.522   9.760
93811W        W94676  11.465  19.398  10.682
93812W        W94677  11.355  18.315   8.841
93813W        W94678  13.123  18.662   9.402
93814W        W94679  12.771  18.847  10.565
93815W        W94680  13.126  18.996   7.743
93816W        W94681  14.309  21.389  10.497
93817W        W94682  13.276  18.470  10.536
93818W        W94683  14.295  20.771  10.658
93819W        W94684  13.725  18.938  10.254
93820W        W94685  13.525  18.876   8.524
93821W        W94686  13.918  20.010  10.928
93822W        W94687  11.658  21.586   8.914
93823W        W94688  12.316  19.303   7.900
93824W        W94689  11.885  18.587  10.564
93825W        W94690  13.937  19.071   8.245
93826W        W94691  14.304  19.553   8.190
93827W        W94692  12.047  21.770  10.661
93828W        W94693  11.973  18.306   7.896
93829W        W94694  14.294  18.840   8.931
93830W        W94695  14.444  21.089   7.376
93831W        W94696  11.351  20.292   9.078
93832W        W94697  13.268  18.879   7.308
93833W        W94698  14.402  21.211   9.028
93834W        W94699  14.441  18.405   9.778
93835W        W94700  12.886  19.617  10.332
93836W        W94701  12.979  20.956   8.035
93837W        W94702  13.379  20.250  10.775
93838W        W94703  13.053  18.227   9.084
93839W        W94704  11.665  19.130   9.147
93840W        W94705  11.219  20.330   9.921
93841W        W94706  13.078  21.523   8.627
93842W        W94707  14.272  19.120   9.499
93843W        W94708  12.909  21.467  10.266
93844W        W94709  14.252  20.526   7.471
93845W        W94710  12.687  20.009   8.532
93846W        W94711  14.539  18.520  10.273
93847W        W94712  12.688  20.355   9.867
93848W        W94713  12.905  19.241   9.312
93849W        W94714  13.757  19.539   8.150
93850W        W94715  14.044  19.272   7.792
93851W        W94716  13.853  21.312   8.181
93852W        W94717  13.687  20.915   8.977
93853W        W94718  13.583  19.994   7.955
93854W        W94719  13.016  20.204   8.941
93855W        W94720  13.897  19.992   9.008
93856W        W94721  11.272  19.007   9.432
93857W        W94722  14.050  20.059  10.259
93858W        W94723  14.401  21.677   9.405
93859W        W94724  12.331  21.121   8.807
93860W        W94725  13.338  21.654  10.131
93861W        W94726  13.332  18.984   9.895
93862W        W94727  12.539  21.692   9.956
93863W        W94728  14.236  18.646   8.422
93864W        W94729  14.027  19.965   9.723
93865W        W94730  11.010  19.286   9.761
93866W        W94731  13.870  19.081   8.779
93867W        W94732  14.281  19.232  10.556
93868W        W94733  13.166  20.931   8.774
93869W        W94734  12.422  21.522   8.387
93870W        W94735  11.537  18.702   7.645
93871W        W94736  12.641  18.356   9.455
93872W        W94737  11.669  21.476   7.303
93873W        W94738  12.043  19.942   8.054
93874W        W94739  12.697  20.571  10.367
93875W        W94740  12.527  18.929   8.357
93876W        W94741  13.883  18.526   8.785
93877W        W94742  13.603  21.808   9.113
93878W        W94743  13.015  21.456   9.453
93879W        W94744  12.411  20.493   9.414
93880W        W94745  14.181  21.216   9.540
93881W        W94746  11.875  18.719   8.309
93882W        W94747  12.397  21.016   9.269
93883W        W94748  11.880  18.947   7.334
93884W        W94749  12.681  19.556   9.728
93885W        W94750  13.529  18.422   9.598
93886W        W94751  10.949  20.265   9.483
93887W        W94752  12.653  20.083   7.641
93888W        W94753  11.921  18.398   7.411
93889W        W94754  12.659  19.479   8.462
93890W        W94755  13.629  18.455  10.161
93891W        W94756  12.217  20.467  10.270
93892W        W94757  13.021  20.249  10.487
93893W        W94758  13.638  20.279  10.380
93894W        W94759  12.922  18.419  10.885
93895W        W94760  12.144  19.035   9.278
93896W        W94761  11.570  18.991   8.676
93897W        W94762  11.356  21.703   8.352
93898W        W94763  12.688  21.033  10.477
93899W        W94764  11.723  20.518   7.836
93900W        W94765  13.403  19.903   9.057
93901W        W94766  13.683  19.702   9.456
93902W        W94767  12.888  20.376   9.390
93903W        W94768  13.358  20.750   7.522
93904W        W94769  13.030  18.771   8.850
93905W        W94770  14.509  19.049   8.118
93906W        W94771  11.003  21.638  10.149
93907W        W94772  11.420  20.864   9.681
93908W        W94773  10.987  21.710   7.913
93909W        W94774  12.886  18.980   9.719
93910W        W94775  12.249  21.003   7.568
93911W        W94776  14.154  21.385   7.754
93912W        W94777  13.129  20.038   7.768
93913W        W94778  11.972  19.229   8.285
93914W        W94779  12.804  19.139   7.337
93915W        W94780  13.388  20.704  10.515
93916W        W94781  13.741  18.610   8.132
93917W        W94782  11.071  18.458   7.580
93918W        W94783  12.357  20.777   9.870
93919W        W94784  12.156  20.693   8.962
93920W        W94785  11.898  20.645   7.360
93921W        W94786  11.139  20.886   8.128
93922W        W94787  11.643  19.956  10.570
93923W        W94788  12.347  18.516  10.756
93924W        W94789  13.056  18.658  10.112
93925W        W94790  12.251  18.426   8.393
93926W        W94791  13.310  18.503   7.898
93927W        W94792  11.255  18.435   9.475
93928W        W94793  11.303  19.398   8.845
93929W        W94794  13.992  18.506   9.251
93930W        W94795  11.414  19.004   8.065
93931W        W94796  13.985  18.692   9.681
93932W        W94797  14.381  19.895   7.366
93933W        W94798  11.673  18.653   9.185
93934W        W94799  12.787  19.225  10.125
93935W        W94800  10.935  18.915   7.603
93936W        W94801  11.721  20.304  10.164
93937W        W94802  13.079  19.702   9.343
93938W        W94803  12.946  21.781   7.639
93939W        W94804  11.092  20.288   7.336
93940W        W94805  11.827  20.699  10.462
93941W        W94806  11.348  19.866  10.093
93942W        W94807  12.339  19.971   9.887
93943W        W94808  14.107  18.330  10.149
93944W        W94809  14.505  19.940  10.140
93945W        W94810  14.493  20.140   7.826
93946W        W94811  13.356  20.472   7.925
93947W        W94812  13.830  21.772   7.620
93948W        W94813  13.007  19.762  10.762
93949W        W94814  11.337  20.729  10.802
93950W        W94815  14.543  18.651  10.754
93951W        W94816  14.261  19.579   9.375
93952W        W94817  12.569  21.709  10.852
93953W        W94818  12.424  18.338   7.579
93954W        W94819  13.963  20.937   7.522
93955W        W94820  11.732  19.030  10.408
93956W        W94821  12.166  21.024  10.270
93957W        W94822  14.292  19.015  10.068
93958W        W94823  13.503  21.674   8.036
93959W        W94824  13.742  20.293   9.403
93960W        W94825  11.992  18.709  10.070
93961W        W94826  12.461  19.778  10.827
93962W        W94827  11.964  20.957   8.021
93963W        W94828  13.719  20.455   8.285
93964W        W94829  11.487  19.081  10.009
93965W        W94830  12.816  21.143   8.473
93966W        W94831  14.566  19.703   8.654
93967W        W94832  12.788  18.336  10.373
93968W        W94833  13.568  21.041   9.452
93969W        W94834  13.871  21.385   9.160
93970W        W94835  13.090  21.187   7.588
93971W        W94836  11.100  21.079  10.430
93972W        W94837  11.843  19.071   9.668
93973W        W94838  11.813  18.419   8.778
93974W        W94839  13.434  19.261   9.470
93975W        W94840  12.232  20.432   7.670
93976W        W94841  14.230  20.374   9.169
93977W        W94842  11.557  21.132  10.592
93978W        W94843  13.944  21.814   8.389
93979W        W94844  12.043  18.834   8.834
93980W        W94845  11.812  20.327   8.924
93981W        W94846  12.125  21.738   9.674
93982W        W94847  14.192  21.834  10.706
93983W        W94848  13.351  20.022   9.639
93984W        W94849  11.200  19.820   7.554
93985W        W94850  14.334  21.478   8.251
93986W        W94851  14.171  18.802   7.870
93987W        W94852  12.310  18.321  10.273
93988W        W94853  14.016  21.123   8.731
93989W        W94854  14.045  19.679   8.636
93990W        W94855  12.162  19.352   8.852
93991W        W94856  12.407  19.614  10.176
93992W        W94857  13.518  20.767  10.039
93993W        W94858  12.168  19.221  10.151
93994W        W94859  12.147  21.687   8.767
93995W        W94860  11.464  21.646  10.401
93996W        W94861  11.576  21.007   7.531
93997W        W94862  14.093  20.765   8.341
93998W        W94863  11.697  19.557  10.227
93999W        W94864  14.470  19.487   7.708
94000W        W94865  12.215  20.544   8.179
94001W        W94866  13.314  19.926  10.260
94002W        W94867  13.205  19.554   9.804
94003W        W94868  11.765  19.926   9.833
94004W        W94869  13.975  21.814   9.662
94005W        W94870  13.766  18.448  10.656
94006W        W94871  11.430  18.598  10.243
94007W        W94872  11.769  19.621   9.296
94008W        W94873  12.138  19.435   7.418
94009W        W94874  10.941  21.194   9.963
94010W        W94875  12.526  19.903   9.406
94011W        W94876  12.349  18.928   7.511
94012W        W94877  11.484  19.744   8.292
94013W        W94878  11.255  21.596   9.729
94014W        W94879  14.050  19.822   7.837
94015W        W94880  14.145  18.738  10.523
94016W        W94881  13.581  20.947   8.486
94017W        W94882  11.179  19.871  10.663
94018W        W94883  14.145  18.335   7.959
94019W        W94884  13.665  20.810   7.970
94020W        W94885  12.567  19.868   8.055
94021W        W94886  13.754  18.672   7.578
94022W        W94887  13.819  19.279   9.764
94023W        W94888  11.528  19.872   8.971
94024W        W94889  11.822  20.811   8.620
94025W        W94890  13.585  19.431   8.585
94026W        W94891  12.608  18.810   9.281
94027W        W94892  14.570  20.721   9.792
94028W        W94893  14.488  18.708   9.353
94029W        W94894  11.027  21.538   8.729
94030W        W94895  11.536  20.725   8.265
94031W        W94896  11.451  18.342  10.818
94032W        W94897  12.570  21.195  10.920
94033W        W94898  14.325  20.163   8.710
94034W        W94899  13.679  20.340   7.590
94035W        W94900  12.974  21.861   9.802
94036W        W94901  13.831  20.583  10.839
94037W        W94902  12.646  18.293   8.119
94038W        W94903  13.359  19.162   8.978
94039W        W94904  11.045  20.749   9.310
94040W        W94905  12.298  18.711   7.951
94041W        W94906  12.102  20.195  10.800
94042W        W94907  13.096  19.176   8.514
94043W        W94908  13.301  20.586   9.636
94044W        W94909  11.455  21.191  10.071
94045W        W94910  12.046  21.174  10.794
94046W        W94911  11.897  18.971   7.808
94047W        W94912  13.414  19.113   8.133
94048W        W94913  13.372  21.221  10.370
94049W        W94914  12.057  19.813   8.969
94050W        W94915  11.712  21.511   9.834
94051W        W94916  14.457  21.628   7.435
94052W        W94917  11.320  20.300  10.431
94053W        W94918  13.315  20.562   9.119
94054W        W94919  11.751  20.211   8.361
94055W        W94920  12.122  21.218   9.756
94056W        W94921  12.500  18.637   8.797
94057W        W94922  11.111  20.621   7.727
94058W        W94923  12.630  19.572   7.597
94059W        W94924  11.276  20.121   8.616
94060W        W94925  12.566  18.763  10.080
94061W        W94926  14.238  18.472   7.507
94062W        W94927  14.331  20.218  10.606
94063W        W94928  12.985  21.475  10.758
94064W        W94929  14.543  20.569  10.280
94065W        W94930  13.951  21.367  10.891
94066W        W94931  11.690  21.823   9.369
94067W        W94932  14.549  20.445   8.243
94068W        W94933  13.079  19.712   8.756
94069W        W94934  12.846  18.324   8.646
94070W        W94935  11.905  21.308   8.483
94071W        W94936  12.404  19.049   9.708
94072W        W94937  12.104  18.418   9.177
94073W        W94938  11.167  21.240   7.725
94074W        W94939  12.983  20.604   8.443
94075W        W94940  11.858  21.399  10.322
94076W        W94941  11.335  20.222   8.018
94077W        W94942  11.220  18.765   9.017
94078W        W94943  12.768  20.730   9.074
94079W        W94944  11.020  18.584   8.094
94080W        W94945  13.684  19.790  10.021
94081W        W94946  13.561  19.176   7.593
94082W        W94947  14.078  20.848   9.241
94083W        W94948  12.739  21.332   9.072
94084W        W94949  12.151  21.436   7.983
94085W        W94950  13.433  18.339   7.413
94086W        W94951  11.233  21.599   9.154
94087W        W94952  13.430  19.357  10.789
94088W        W94953  11.413  18.887  10.788
94089W        W94954  11.144  19.487   8.121
94090W        W94955  11.835  19.476   7.846
94091W        W94956  13.598  19.803  10.663
94092W        W94957  11.941  20.084   9.372
94093W        W94958  13.415  18.370   8.492
94094W        W94959  12.546  21.801   8.995
94095W        W94960  13.760  21.263   9.932
94096W        W94961  13.344  21.412   9.043
94097W        W94962  13.363  20.392   8.637
94098W        W94963  12.825  18.617   7.708
94099W        W94964  14.506  18.245   8.430
94100W        W94965  12.194  19.880   7.593
94101W        W94966  14.360  19.217   8.583
94102W        W94967  13.052  20.387   7.460
94103W        W94968  13.988  20.587  10.208
94104W        W94969  13.642  21.288   7.675
94105W        W94970  12.257  18.963  10.581
94106W        W94971  12.077  19.547   9.822
94107W        W94972  14.169  21.042  10.099
94108W        W94973  13.269  18.992  10.476
94109W        W94974  11.113  19.463  10.253
94110W        W94975  12.873  19.940   9.979
94111W        W94976  11.230  20.698   8.636
94112W        W94977  11.377  19.995   9.526
94113W        W94978  13.694  20.281   9.876
94114W        W94979  13.466  21.661  10.687
94115W        W94980  13.362  19.400  10.240
94116W        W94981  13.639  21.454   8.645
94117W        W94982  12.641  21.174   9.968
94118W        W94983  12.126  21.529   9.237
94119W        W94984  13.931  20.700   9.656
94120W        W94985  12.981  20.772  10.793
94121W        W94986  11.586  20.725   9.132
94122W        W94987  13.932  20.484   8.777
94123W        W94988  13.573  21.550   9.528
94124W        W94989  11.551  21.279   9.398
94125W        W94990  12.572  19.331  10.608
94126W        W94991  13.023  21.497   8.119
94127W        W94992  12.331  20.752  10.757
94128W        W94993  12.457  20.990   8.134
94129W        W94994  11.678  19.730   7.393
94130W        W94995  11.017  21.816  14.292
94131W        W94996  11.393  20.709  13.815
94132W        W94997  14.098  20.439  11.585
94133W        W94998  14.228  21.524  13.612
94134W        W94999  12.146  21.515  11.138
94135W        W95000  12.229  19.667  12.121
94136W        W95001  11.744  19.515  12.285
94137W        W95002  12.735  20.330  11.719
94138W        W95003  12.410  21.422  14.074
94139W        W95004  11.059  18.983  14.037
94140W        W95005  11.821  18.263  13.839
94141W        W95006  13.515  18.651  12.726
94142W        W95007  13.164  19.522  11.296
94143W        W95008  13.734  18.956  14.387
94144W        W95009  11.100  18.748  13.512
94145W        W95010  11.199  21.367  14.533
94146W        W95011  12.721  20.757  11.265
94147W        W95012  11.153  19.540  12.958
94148W        W95013  12.046  19.431  14.195
94149W        W95014  14.505  19.290  12.694
94150W        W95015  14.269  20.333  13.553
94151W        W95016  12.577  19.666  12.580
94152W        W95017  13.123  21.005  12.949
94153W        W95018  11.623  20.439  13.181
94154W        W95019  10.982  19.967  12.752
94155W        W95020  12.018  19.939  13.944
94156W        W95021  14.289  19.722  14.198
94157W        W95022  11.905  21.166  12.643
94158W        W95023  13.026  20.855  13.777
94159W        W95024  12.246  19.495  13.002
94160W        W95025  12.538  20.279  12.645
94161W        W95026  13.535  21.052  14.493
94162W        W95027  12.614  20.372  14.503
94163W        W95028  12.595  20.088  13.981
94164W        W95029  11.004  19.479  14.503
94165W        W95030  13.836  21.014  14.102
94166W        W95031  11.417  18.596  12.100
94167W        W95032  11.944  20.854  13.099
94168W        W95033  14.407  20.637  12.389
94169W        W95034  13.820  19.037  12.956
94170W        W95035  14.105  18.990  11.051
94171W        W95036  14.570  19.791  13.357
94172W        W95037  12.537  21.498  13.110
94173W        W95038  14.311  20.964  11.548
94174W        W95039  11.440  21.750  11.302
94175W        W95040  11.833  21.796  11.978
94176W        W95041  11.630  18.550  13.404
94177W        W95042  14.253  19.568  13.679
94178W        W95043  13.658  19.990  12.138
94179W        W95044  13.624  19.678  11.165
94180W        W95045  12.832  20.822  13.305
94181W        W95046  12.638  19.152  12.504
94182W        W95047  13.238  21.239  13.498
94183W        W95048  14.109  20.030  11.920
94184W        W95049  13.011  18.688  11.936
94185W        W95050  11.668  21.382  11.619
94186W        W95051  11.039  18.881  12.218
94187W        W95052  13.825  19.488  12.692
94188W        W95053  11.283  21.105  12.607
94189W        W95054  12.624  21.455  11.477
94190W        W95055  14.016  19.481  10.941
94191W        W95056  11.039  21.239  13.105
94192W        W95057  11.830  20.811  13.585
94193W        W95058  12.203  20.171  12.204
94194W        W95059  12.225  18.576  13.297
94195W        W95060  14.454  18.338  12.594
94196W        W95061  11.673  20.210  11.062
94197W        W95062  11.328  19.243  11.241
94198W        W95063  11.390  21.199  12.035
94199W        W95064  12.521  20.682  12.283
94200W        W95065  13.853  21.541  13.997
94201W        W95066  12.779  19.183  11.681
94202W        W95067  14.162  21.581  12.453
94203W        W95068  13.839  19.434  14.051
94204W        W95069  14.552  21.090  12.185
94205W        W95070  13.179  20.382  13.669
94206W        W95071  10.945  19.933  11.875
94207W        W95072  12.056  20.348  13.448
94208W        W95073  13.260  19.612  11.826
94209W        W95074  13.137  20.102  11.930
94210W        W95075  11.480  19.522  13.404
94211W        W95076  11.465  19.398  14.326
94212W        W95077  11.355  18.315  12.485
94213W        W95078  13.123  18.662  13.046
94214W        W95079  12.771  18.847  14.209
94215W        W95080  13.126  18.996  11.387
94216W        W95081  14.309  21.389  14.141
94217W        W95082  13.276  18.470  14.180
94218W        W95083  14.295  20.771  14.302
94219W        W95084  13.725  18.938  13.898
94220W        W95085  13.525  18.876  12.168
94221W        W95086  13.918  20.010  14.572
94222W        W95087  11.658  21.586  12.558
94223W        W95088  12.316  19.303  11.544
94224W        W95089  11.885  18.587  14.208
94225W        W95090  13.937  19.071  11.889
94226W        W95091  14.304  19.553  11.834
94227W        W95092  12.047  21.770  14.305
94228W        W95093  11.973  18.306  11.540
94229W        W95094  14.294  18.840  12.575
94230W        W95095  14.444  21.089  11.020
94231W        W95096  11.351  20.292  12.722
94232W        W95097  13.268  18.879  10.952
94233W        W95098  14.402  21.211  12.672
94234W        W95099  14.441  18.405  13.422
94235W        W95100  12.886  19.617  13.976
94236W        W95101  12.979  20.956  11.679
94237W        W95102  13.379  20.250  14.419
94238W        W95103  13.053  18.227  12.728
94239W        W95104  11.665  19.130  12.791
94240W        W95105  11.219  20.330  13.565
94241W        W95106  13.078  21.523  12.271
94242W        W95107  14.272  19.120  13.143
94243W        W95108  12.909  21.467  13.910
94244W        W95109  14.252  20.526  11.115
94245W        W95110  12.687  20.009  12.176
94246W        W95111  14.539  18.520  13.917
94247W        W95112  12.688  20.355  13.511
94248W        W95113  12.905  19.241  12.956
94249W        W95114  13.757  19.539  11.794
94250W        W95115  14.044  19.272  11.436
94251W        W95116  13.853  21.312  11.825
94252W        W95117  13.687  20.915  12.621
94253W        W95118  13.583  19.994  11.599
94254W        W95119  13.016  20.204  12.585
94255W        W95120  13.897  19.992  12.652
94256W        W95121  11.272  19.007  13.076
94257W        W95122  14.050  20.059  13.903
94258W        W95123  14.401  21.677  13.049
94259W        W95124  12.331  21.121  12.451
94260W        W95125  13.338  21.654  13.775
94261W        W95126  13.332  18.984  13.539
94262W        W95127  12.539  21.692  13.600
94263W        W95128  14.236  18.646  12.066
94264W        W95129  14.027  19.965  13.367
94265W        W95130  11.010  19.286  13.405
94266W        W95131  13.870  19.081  12.423
94267W        W95132  14.281  19.232  14.200
94268W        W95133  13.166  20.931  12.418
94269W        W95134  12.422  21.522  12.031
94270W        W95135  11.537  18.702  11.289
94271W        W95136  12.641  18.356  13.099
94272W        W95137  11.669  21.476  10.947
94273W        W95138  12.043  19.942  11.698
94274W        W95139  12.697  20.571  14.011
94275W        W95140  12.527  18.929  12.001
94276W        W95141  13.883  18.526  12.429
94277W        W95142  13.603  21.808  12.757
94278W        W95143  12.411  20.493  13.058
94279W        W95144  14.181  21.216  13.184
94280W        W95145  11.875  18.719  11.953
94281W        W95146  12.397  21.016  12.913
94282W        W95147  11.880  18.947  10.978
94283W        W95148  12.681  19.556  13.372
94284W        W95149  13.529  18.422  13.242
94285W        W95150  10.949  20.265  13.127
94286W        W95151  12.653  20.083  11.285
94287W        W95152  11.921  18.398  11.055
94288W        W95153  12.659  19.479  12.106
94289W        W95154  13.629  18.455  13.805
94290W        W95155  12.217  20.467  13.914
94291W        W95156  13.021  20.249  14.131
94292W        W95157  13.638  20.279  14.024
94293W        W95158  12.922  18.419  14.529
94294W        W95159  12.144  19.035  12.922
94295W        W95160  11.570  18.991  12.320
94296W        W95161  11.356  21.703  11.996
94297W        W95162  12.688  21.033  14.121
94298W        W95163  11.723  20.518  11.480
94299W        W95164  13.403  19.903  12.701
94300W        W95165  13.683  19.702  13.100
94301W        W95166  12.888  20.376  13.034
94302W        W95167  13.358  20.750  11.166
94303W        W95168  13.030  18.771  12.494
94304W        W95169  14.509  19.049  11.762
94305W        W95170  11.003  21.638  13.793
94306W        W95171  11.420  20.864  13.325
94307W        W95172  10.987  21.710  11.557
94308W        W95173  12.886  18.980  13.363
94309W        W95174  12.249  21.003  11.212
94310W        W95175  14.154  21.385  11.398
94311W        W95176  13.129  20.038  11.412
94312W        W95177  11.972  19.229  11.929
94313W        W95178  12.804  19.139  10.981
94314W        W95179  13.388  20.704  14.159
94315W        W95180  13.741  18.610  11.776
94316W        W95181  11.071  18.458  11.224
94317W        W95182  12.357  20.777  13.514
94318W        W95183  12.156  20.693  12.606
94319W        W95184  11.898  20.645  11.004
94320W        W95185  11.139  20.886  11.772
94321W        W95186  11.643  19.956  14.214
94322W        W95187  12.347  18.516  14.400
94323W        W95188  13.056  18.658  13.756
94324W        W95189  12.251  18.426  12.037
94325W        W95190  13.310  18.503  11.542
94326W        W95191  11.255  18.435  13.119
94327W        W95192  11.303  19.398  12.489
94328W        W95193  13.992  18.506  12.895
94329W        W95194  11.414  19.004  11.709
94330W        W95195  13.985  18.692  13.325
94331W        W95196  14.381  19.895  11.010
94332W        W95197  11.673  18.653  12.829
94333W        W95198  12.787  19.225  13.769
94334W        W95199  10.935  18.915  11.247
94335W        W95200  11.721  20.304  13.808
94336W        W95201  13.079  19.702  12.987
94337W        W95202  12.946  21.781  11.283
94338W        W95203  11.092  20.288  10.980
94339W        W95204  11.827  20.699  14.106
94340W        W95205  11.348  19.866  13.737
94341W        W95206  12.339  19.971  13.531
94342W        W95207  14.107  18.330  13.793
94343W        W95208  14.505  19.940  13.784
94344W        W95209  14.493  20.140  11.470
94345W        W95210  13.356  20.472  11.569
94346W        W95211  13.830  21.772  11.264
94347W        W95212  13.007  19.762  14.406
94348W        W95213  11.337  20.729  14.446
94349W        W95214  14.543  18.651  14.398
94350W        W95215  14.261  19.579  13.019
94351W        W95216  12.569  21.709  14.496
94352W        W95217  12.424  18.338  11.223
94353W        W95218  13.963  20.937  11.166
94354W        W95219  11.732  19.030  14.052
94355W        W95220  12.166  21.024  13.914
94356W        W95221  14.292  19.015  13.712
94357W        W95222  13.503  21.674  11.680
94358W        W95223  13.742  20.293  13.047
94359W        W95224  11.992  18.709  13.714
94360W        W95225  12.461  19.778  14.471
94361W        W95226  11.964  20.957  11.665
94362W        W95227  13.719  20.455  11.929
94363W        W95228  11.487  19.081  13.653
94364W        W95229  12.816  21.143  12.117
94365W        W95230  14.566  19.703  12.298
94366W        W95231  12.788  18.336  14.017
94367W        W95232  13.568  21.041  13.096
94368W        W95233  13.871  21.385  12.804
94369W        W95234  13.090  21.187  11.232
94370W        W95235  11.100  21.079  14.074
94371W        W95236  11.843  19.071  13.312
94372W        W95237  11.813  18.419  12.422
94373W        W95238  13.434  19.261  13.114
94374W        W95239  12.232  20.432  11.314
94375W        W95240  14.230  20.374  12.813
94376W        W95241  11.557  21.132  14.236
94377W        W95242  13.944  21.814  12.033
94378W        W95243  12.043  18.834  12.478
94379W        W95244  11.812  20.327  12.568
94380W        W95245  12.125  21.738  13.318
94381W        W95246  14.192  21.834  14.350
94382W        W95247  13.351  20.022  13.283
94383W        W95248  11.200  19.820  11.198
94384W        W95249  14.334  21.478  11.895
94385W        W95250  14.171  18.802  11.514
94386W        W95251  12.310  18.321  13.917
94387W        W95252  14.016  21.123  12.375
94388W        W95253  14.045  19.679  12.280
94389W        W95254  12.162  19.352  12.496
94390W        W95255  12.407  19.614  13.820
94391W        W95256  13.518  20.767  13.683
94392W        W95257  12.168  19.221  13.795
94393W        W95258  12.147  21.687  12.411
94394W        W95259  11.464  21.646  14.045
94395W        W95260  11.576  21.007  11.175
94396W        W95261  14.093  20.765  11.985
94397W        W95262  11.697  19.557  13.871
94398W        W95263  14.470  19.487  11.352
94399W        W95264  12.215  20.544  11.823
94400W        W95265  13.314  19.926  13.904
94401W        W95266  13.205  19.554  13.448
94402W        W95267  11.765  19.926  13.477
94403W        W95268  13.975  21.814  13.306
94404W        W95269  13.766  18.448  14.300
94405W        W95270  11.430  18.598  13.887
94406W        W95271  11.769  19.621  12.940
94407W        W95272  12.138  19.435  11.062
94408W        W95273  10.941  21.194  13.607
94409W        W95274  12.526  19.903  13.050
94410W        W95275  12.349  18.928  11.155
94411W        W95276  11.484  19.744  11.936
94412W        W95277  11.255  21.596  13.373
94413W        W95278  14.050  19.822  11.481
94414W        W95279  14.145  18.738  14.167
94415W        W95280  13.581  20.947  12.130
94416W        W95281  11.179  19.871  14.307
94417W        W95282  14.145  18.335  11.603
94418W        W95283  13.665  20.810  11.614
94419W        W95284  12.567  19.868  11.699
94420W        W95285  13.754  18.672  11.222
94421W        W95286  13.819  19.279  13.408
94422W        W95287  11.528  19.872  12.615
94423W        W95288  11.822  20.811  12.264
94424W        W95289  13.585  19.431  12.229
94425W        W95290  12.608  18.810  12.925
94426W        W95291  14.570  20.721  13.436
94427W        W95292  14.488  18.708  12.997
94428W        W95293  11.027  21.538  12.373
94429W        W95294  11.536  20.725  11.909
94430W        W95295  11.451  18.342  14.462
94431W        W95296  12.570  21.195  14.564
94432W        W95297  14.325  20.163  12.354
94433W        W95298  13.679  20.340  11.234
94434W        W95299  12.974  21.861  13.446
94435W        W95300  13.831  20.583  14.483
94436W        W95301  12.646  18.293  11.763
94437W        W95302  13.359  19.162  12.622
94438W        W95303  11.045  20.749  12.954
94439W        W95304  12.298  18.711  11.595
94440W        W95305  12.102  20.195  14.444
94441W        W95306  13.096  19.176  12.158
94442W        W95307  13.301  20.586  13.280
94443W        W95308  11.455  21.191  13.715
94444W        W95309  12.046  21.174  14.438
94445W        W95310  11.897  18.971  11.452
94446W        W95311  13.414  19.113  11.777
94447W        W95312  13.372  21.221  14.014
94448W        W95313  12.057  19.813  12.613
94449W        W95314  11.712  21.511  13.478
94450W        W95315  14.457  21.628  11.079
94451W        W95316  11.320  20.300  14.075
94452W        W95317  13.315  20.562  12.763
94453W        W95318  11.751  20.211  12.005
94454W        W95319  12.122  21.218  13.400
94455W        W95320  12.500  18.637  12.441
94456W        W95321  11.111  20.621  11.371
94457W        W95322  12.630  19.572  11.241
94458W        W95323  11.276  20.121  12.260
94459W        W95324  12.566  18.763  13.724
94460W        W95325  14.238  18.472  11.151
94461W        W95326  14.331  20.218  14.250
94462W        W95327  12.985  21.475  14.402
94463W        W95328  14.543  20.569  13.924
94464W        W95329  13.951  21.367  14.535
94465W        W95330  11.690  21.823  13.013
94466W        W95331  14.549  20.445  11.887
94467W        W95332  13.079  19.712  12.400
94468W        W95333  12.846  18.324  12.290
94469W        W95334  11.905  21.308  12.127
94470W        W95335  12.404  19.049  13.352
94471W        W95336  12.104  18.418  12.821
94472W        W95337  11.167  21.240  11.369
94473W        W95338  12.983  20.604  12.087
94474W        W95339  11.858  21.399  13.966
94475W        W95340  11.335  20.222  11.662
94476W        W95341  11.220  18.765  12.661
94477W        W95342  12.768  20.730  12.718
94478W        W95343  11.020  18.584  11.738
94479W        W95344  13.684  19.790  13.665
94480W        W95345  13.561  19.176  11.237
94481W        W95346  14.078  20.848  12.885
94482W        W95347  12.151  21.436  11.627
94483W        W95348  13.433  18.339  11.057
94484W        W95349  11.233  21.599  12.798
94485W        W95350  13.430  19.357  14.433
94486W        W95351  11.413  18.887  14.432
94487W        W95352  11.144  19.487  11.765
94488W        W95353  11.835  19.476  11.490
94489W        W95354  13.598  19.803  14.307
94490W        W95355  11.941  20.084  13.016
94491W        W95356  13.415  18.370  12.136
94492W        W95357  12.546  21.801  12.639
94493W        W95358  13.760  21.263  13.576
94494W        W95359  13.344  21.412  12.687
94495W        W95360  13.363  20.392  12.281
94496W        W95361  12.825  18.617  11.352
94497W        W95362  14.506  18.245  12.074
94498W        W95363  12.194  19.880  11.237
94499W        W95364  14.360  19.217  12.227
94500W        W95365  13.052  20.387  11.104
94501W        W95366  13.988  20.587  13.852
94502W        W95367  13.642  21.288  11.319
94503W        W95368  12.257  18.963  14.225
94504W        W95369  12.077  19.547  13.466
94505W        W95370  14.169  21.042  13.743
94506W        W95371  13.269  18.992  14.120
94507W        W95372  11.113  19.463  13.897
94508W        W95373  12.873  19.940  13.623
94509W        W95374  11.230  20.698  12.280
94510W        W95375  11.377  19.995  13.170
94511W        W95376  13.694  20.281  13.520
94512W        W95377  13.466  21.661  14.331
94513W        W95378  13.362  19.400  13.884
94514W        W95379  13.639  21.454  12.289
94515W        W95380  12.641  21.174  13.612
94516W        W95381  12.126  21.529  12.881
94517W        W95382  13.931  20.700  13.300
94518W        W95383  12.981  20.772  14.437
94519W        W95384  11.586  20.725  12.776
94520W        W95385  13.932  20.484  12.421
94521W        W95386  13.573  21.550  13.172
94522W        W95387  11.551  21.279  13.042
94523W        W95388  12.572  19.331  14.252
94524W        W95389  13.023  21.497  11.763
94525W        W95390  12.331  20.752  14.401
94526W        W95391  12.457  20.990  11.778
94527W        W95392  11.678  19.730  11.037
94528W        W95393  11.017  21.816  17.936
94529W        W95394  11.393  20.709  17.459
94530W        W95395  14.098  20.439  15.229
94531W        W95396  14.228  21.524  17.256
94532W        W95397  12.146  21.515  14.782
94533W        W95398  12.229  19.667  15.765
94534W        W95399  11.744  19.515  15.929
94535W        W95400  12.735  20.330  15.363
94536W        W95401  12.410  21.422  17.718
94537W        W95402  11.059  18.983  17.681
94538W        W95403  11.821  18.263  17.483
94539W        W95404  13.515  18.651  16.370
94540W        W95405  13.164  19.522  14.940
94541W        W95406  13.734  18.956  18.031
94542W        W95407  11.100  18.748  17.156
94543W        W95408  11.199  21.367  18.177
94544W        W95409  12.721  20.757  14.909
94545W        W95410  11.153  19.540  16.602
94546W        W95411  12.046  19.431  17.839
94547W        W95412  14.505  19.290  16.338
94548W        W95413  14.269  20.333  17.197
94549W        W95414  12.577  19.666  16.224
94550W        W95415  13.123  21.005  16.593
94551W        W95416  11.623  20.439  16.825
94552W        W95417  10.982  19.967  16.396
94553W        W95418  12.018  19.939  17.588
94554W        W95419  14.289  19.722  17.842
94555W        W95420  11.905  21.166  16.287
94556W        W95421  13.026  20.855  17.421
94557W        W95422  12.246  19.495  16.646
94558W        W95423  12.538  20.279  16.289
94559W        W95424  13.535  21.052  18.137
94560W        W95425  12.614  20.372  18.147
94561W        W95426  12.595  20.088  17.625
94562W        W95427  11.004  19.479  18.147
94563W        W95428  13.836  21.014  17.746
94564W        W95429  11.417  18.596  15.744
94565W        W95430  11.944  20.854  16.743
94566W        W95431  14.407  20.637  16.033
94567W        W95432  13.820  19.037  16.600
94568W        W95433  14.105  18.990  14.695
94569W        W95434  14.570  19.791  17.001
94570W        W95435  12.537  21.498  16.754
94571W        W95436  14.311  20.964  15.192
94572W        W95437  11.440  21.750  14.946
94573W        W95438  11.833  21.796  15.622
94574W        W95439  11.630  18.550  17.048
94575W        W95440  14.253  19.568  17.323
94576W        W95441  13.658  19.990  15.782
94577W        W95442  13.624  19.678  14.809
94578W        W95443  12.832  20.822  16.949
94579W        W95444  12.638  19.152  16.148
94580W        W95445  13.238  21.239  17.142
94581W        W95446  14.109  20.030  15.564
94582W        W95447  13.011  18.688  15.580
94583W        W95448  11.668  21.382  15.263
94584W        W95449  11.039  18.881  15.862
94585W        W95450  13.825  19.488  16.336
94586W        W95451  11.283  21.105  16.251
94587W        W95452  12.624  21.455  15.121
94588W        W95453  14.016  19.481  14.585
94589W        W95454  11.039  21.239  16.749
94590W        W95455  11.830  20.811  17.229
94591W        W95456  12.203  20.171  15.848
94592W        W95457  12.225  18.576  16.941
94593W        W95458  14.454  18.338  16.238
94594W        W95459  11.673  20.210  14.706
94595W        W95460  11.328  19.243  14.885
94596W        W95461  11.390  21.199  15.679
94597W        W95462  12.521  20.682  15.927
94598W        W95463  13.853  21.541  17.641
94599W        W95464  12.779  19.183  15.325
94600W        W95465  14.162  21.581  16.097
94601W        W95466  13.839  19.434  17.695
94602W        W95467  14.552  21.090  15.829
94603W        W95468  13.179  20.382  17.313
94604W        W95469  10.945  19.933  15.519
94605W        W95470  12.056  20.348  17.092
94606W        W95471  13.260  19.612  15.470
94607W        W95472  13.137  20.102  15.574
94608W        W95473  11.480  19.522  17.048
94609W        W95474  11.465  19.398  17.970
94610W        W95475  11.355  18.315  16.129
94611W        W95476  13.123  18.662  16.690
94612W        W95477  12.771  18.847  17.853
94613W        W95478  13.126  18.996  15.031
94614W        W95479  14.309  21.389  17.785
94615W        W95480  13.276  18.470  17.824
94616W        W95481  14.295  20.771  17.946
94617W        W95482  13.725  18.938  17.542
94618W        W95483  13.525  18.876  15.812
94619W        W95484  13.918  20.010  18.216
94620W        W95485  11.658  21.586  16.202
94621W        W95486  12.316  19.303  15.188
94622W        W95487  11.885  18.587  17.852
94623W        W95488  13.937  19.071  15.533
94624W        W95489  14.304  19.553  15.478
94625W        W95490  12.047  21.770  17.949
94626W        W95491  11.973  18.306  15.184
94627W        W95492  14.294  18.840  16.219
94628W        W95493  14.444  21.089  14.664
94629W        W95494  11.351  20.292  16.366
94630W        W95495  13.268  18.879  14.596
94631W        W95496  14.402  21.211  16.316
94632W        W95497  14.441  18.405  17.066
94633W        W95498  12.886  19.617  17.620
94634W        W95499  12.979  20.956  15.323
94635W        W95500  13.379  20.250  18.063
94636W        W95501  13.053  18.227  16.372
94637W        W95502  11.665  19.130  16.435
94638W        W95503  11.219  20.330  17.209
94639W        W95504  13.078  21.523  15.915
94640W        W95505  14.272  19.120  16.787
94641W        W95506  12.909  21.467  17.554
94642W        W95507  14.252  20.526  14.759
94643W        W95508  12.687  20.009  15.820
94644W        W95509  14.539  18.520  17.561
94645W        W95510  12.688  20.355  17.155
94646W        W95511  12.905  19.241  16.600
94647W        W95512  13.757  19.539  15.438
94648W        W95513  14.044  19.272  15.080
94649W        W95514  13.853  21.312  15.469
94650W        W95515  13.687  20.915  16.265
94651W        W95516  13.583  19.994  15.243
94652W        W95517  13.016  20.204  16.229
94653W        W95518  13.897  19.992  16.296
94654W        W95519  11.272  19.007  16.720
94655W        W95520  14.050  20.059  17.547
94656W        W95521  14.401  21.677  16.693
94657W        W95522  12.331  21.121  16.095
94658W        W95523  13.338  21.654  17.419
94659W        W95524  13.332  18.984  17.183
94660W        W95525  12.539  21.692  17.244
94661W        W95526  14.236  18.646  15.710
94662W        W95527  14.027  19.965  17.011
94663W        W95528  11.010  19.286  17.049
94664W        W95529  13.870  19.081  16.067
94665W        W95530  14.281  19.232  17.844
94666W        W95531  13.166  20.931  16.062
94667W        W95532  12.422  21.522  15.675
94668W        W95533  11.537  18.702  14.933
94669W        W95534  12.641  18.356  16.743
94670W        W95535  11.669  21.476  14.591
94671W        W95536  12.043  19.942  15.342
94672W        W95537  12.697  20.571  17.655
94673W        W95538  12.527  18.929  15.645
94674W        W95539  13.883  18.526  16.073
94675W        W95540  13.603  21.808  16.401
94676W        W95541  13.015  21.456  16.741
94677W        W95542  12.411  20.493  16.702
94678W        W95543  14.181  21.216  16.828
94679W        W95544  11.875  18.719  15.597
94680W        W95545  12.397  21.016  16.557
94681W        W95546  11.880  18.947  14.622
94682W        W95547  12.681  19.556  17.016
94683W        W95548  13.529  18.422  16.886
94684W        W95549  10.949  20.265  16.771
94685W        W95550  12.653  20.083  14.929
94686W        W95551  11.921  18.398  14.699
94687W        W95552  12.659  19.479  15.750
94688W        W95553  13.629  18.455  17.449
94689W        W95554  12.217  20.467  17.558
94690W        W95555  13.021  20.249  17.775
94691W        W95556  13.638  20.279  17.668
94692W        W95557  12.922  18.419  18.173
94693W        W95558  12.144  19.035  16.566
94694W        W95559  11.570  18.991  15.964
94695W        W95560  11.356  21.703  15.640
94696W        W95561  12.688  21.033  17.765
94697W        W95562  11.723  20.518  15.124
94698W        W95563  13.403  19.903  16.345
94699W        W95564  13.683  19.702  16.744
94700W        W95565  12.888  20.376  16.678
94701W        W95566  13.358  20.750  14.810
94702W        W95567  13.030  18.771  16.138
94703W        W95568  14.509  19.049  15.406
94704W        W95569  11.003  21.638  17.437
94705W        W95570  11.420  20.864  16.969
94706W        W95571  10.987  21.710  15.201
94707W        W95572  12.886  18.980  17.007
94708W        W95573  12.249  21.003  14.856
94709W        W95574  14.154  21.385  15.042
94710W        W95575  13.129  20.038  15.056
94711W        W95576  11.972  19.229  15.573
94712W        W95577  12.804  19.139  14.625
94713W        W95578  13.388  20.704  17.803
94714W        W95579  13.741  18.610  15.420
94715W        W95580  11.071  18.458  14.868
94716W        W95581  12.357  20.777  17.158
94717W        W95582  12.156  20.693  16.250
94718W        W95583  11.898  20.645  14.648
94719W        W95584  11.139  20.886  15.416
94720W        W95585  11.643  19.956  17.858
94721W        W95586  12.347  18.516  18.044
94722W        W95587  13.056  18.658  17.400
94723W        W95588  12.251  18.426  15.681
94724W        W95589  13.310  18.503  15.186
94725W        W95590  11.255  18.435  16.763
94726W        W95591  11.303  19.398  16.133
94727W        W95592  13.992  18.506  16.539
94728W        W95593  11.414  19.004  15.353
94729W        W95594  13.985  18.692  16.969
94730W        W95595  14.381  19.895  14.654
94731W        W95596  11.673  18.653  16.473
94732W        W95597  12.787  19.225  17.413
94733W        W95598  10.935  18.915  14.891
94734W        W95599  11.721  20.304  17.452
94735W        W95600  13.079  19.702  16.631
94736W        W95601  12.946  21.781  14.927
94737W        W95602  11.092  20.288  14.624
94738W        W95603  11.827  20.699  17.750
94739W        W95604  11.348  19.866  17.381
94740W        W95605  12.339  19.971  17.175
94741W        W95606  14.107  18.330  17.437
94742W        W95607  14.505  19.940  17.428
94743W        W95608  14.493  20.140  15.114
94744W        W95609  13.356  20.472  15.213
94745W        W95610  13.830  21.772  14.908
94746W        W95611  13.007  19.762  18.050
94747W        W95612  11.337  20.729  18.090
94748W        W95613  14.543  18.651  18.042
94749W        W95614  14.261  19.579  16.663
94750W        W95615  12.569  21.709  18.140
94751W        W95616  12.424  18.338  14.867
94752W        W95617  13.963  20.937  14.810
94753W        W95618  11.732  19.030  17.696
94754W        W95619  12.166  21.024  17.558
94755W        W95620  14.292  19.015  17.356
94756W        W95621  13.503  21.674  15.324
94757W        W95622  13.742  20.293  16.691
94758W        W95623  11.992  18.709  17.358
94759W        W95624  12.461  19.778  18.115
94760W        W95625  11.964  20.957  15.309
94761W        W95626  13.719  20.455  15.573
94762W        W95627  11.487  19.081  17.297
94763W        W95628  12.816  21.143  15.761
94764W        W95629  14.566  19.703  15.942
94765W        W95630  12.788  18.336  17.661
94766W        W95631  13.568  21.041  16.740
94767W        W95632  13.871  21.385  16.448
94768W        W95633  13.090  21.187  14.876
94769W        W95634  11.100  21.079  17.718
94770W        W95635  11.843  19.071  16.956
94771W        W95636  11.813  18.419  16.066
94772W        W95637  13.434  19.261  16.758
94773W        W95638  12.232  20.432  14.958
94774W        W95639  14.230  20.374  16.457
94775W        W95640  11.557  21.132  17.880
94776W        W95641  13.944  21.814  15.677
94777W        W95642  12.043  18.834  16.122
94778W        W95643  11.812  20.327  16.212
94779W        W95644  12.125  21.738  16.962
94780W        W95645  14.192  21.834  17.994
94781W        W95646  13.351  20.022  16.927
94782W        W95647  11.200  19.820  14.842
94783W        W95648  14.334  21.478  15.539
94784W        W95649  14.171  18.802  15.158
94785W        W95650  12.310  18.321  17.561
94786W        W95651  14.016  21.123  16.019
94787W        W95652  14.045  19.679  15.924
94788W        W95653  12.162  19.352  16.140
94789W        W95654  12.407  19.614  17.464
94790W        W95655  13.518  20.767  17.327
94791W        W95656  12.168  19.221  17.439
94792W        W95657  12.147  21.687  16.055
94793W        W95658  11.464  21.646  17.689
94794W        W95659  11.576  21.007  14.819
94795W        W95660  14.093  20.765  15.629
94796W        W95661  11.697  19.557  17.515
94797W        W95662  14.470  19.487  14.996
94798W        W95663  12.215  20.544  15.467
94799W        W95664  13.314  19.926  17.548
94800W        W95665  13.205  19.554  17.092
94801W        W95666  11.765  19.926  17.121
94802W        W95667  13.975  21.814  16.950
94803W        W95668  13.766  18.448  17.944
94804W        W95669  11.430  18.598  17.531
94805W        W95670  11.769  19.621  16.584
94806W        W95671  12.138  19.435  14.706
94807W        W95672  10.941  21.194  17.251
94808W        W95673  12.526  19.903  16.694
94809W        W95674  12.349  18.928  14.799
94810W        W95675  11.484  19.744  15.580
94811W        W95676  11.255  21.596  17.017
94812W        W95677  14.050  19.822  15.125
94813W        W95678  14.145  18.738  17.811
94814W        W95679  13.581  20.947  15.774
94815W        W95680  11.179  19.871  17.951
94816W        W95681  14.145  18.335  15.247
94817W        W95682  13.665  20.810  15.258
94818W        W95683  12.567  19.868  15.343
94819W        W95684  13.754  18.672  14.866
94820W        W95685  13.819  19.279  17.052
94821W        W95686  11.528  19.872  16.259
94822W        W95687  11.822  20.811  15.908
94823W        W95688  13.585  19.431  15.873
94824W        W95689  12.608  18.810  16.569
94825W        W95690  14.570  20.721  17.080
94826W        W95691  14.488  18.708  16.641
94827W        W95692  11.027  21.538  16.017
94828W        W95693  11.536  20.725  15.553
94829W        W95694  11.451  18.342  18.106
94830W        W95695  12.570  21.195  18.208
94831W        W95696  14.325  20.163  15.998
94832W        W95697  13.679  20.340  14.878
94833W        W95698  12.974  21.861  17.090
94834W        W95699  13.831  20.583  18.127
94835W        W95700  12.646  18.293  15.407
94836W        W95701  13.359  19.162  16.266
94837W        W95702  11.045  20.749  16.598
94838W        W95703  12.298  18.711  15.239
94839W        W95704  12.102  20.195  18.088
94840W        W95705  13.096  19.176  15.802
94841W        W95706  13.301  20.586  16.924
94842W        W95707  11.455  21.191  17.359
94843W        W95708  12.046  21.174  18.082
94844W        W95709  11.897  18.971  15.096
94845W        W95710  13.414  19.113  15.421
94846W        W95711  13.372  21.221  17.658
94847W        W95712  12.057  19.813  16.257
94848W        W95713  11.712  21.511  17.122
94849W        W95714  14.457  21.628  14.723
94850W        W95715  11.320  20.300  17.719
94851W        W95716  13.315  20.562  16.407
94852W        W95717  11.751  20.211  15.649
94853W        W95718  12.122  21.218  17.044
94854W        W95719  12.500  18.637  16.085
94855W        W95720  11.111  20.621  15.015
94856W        W95721  12.630  19.572  14.885
94857W        W95722  11.276  20.121  15.904
94858W        W95723  12.566  18.763  17.368
94859W        W95724  14.238  18.472  14.795
94860W        W95725  14.331  20.218  17.894
94861W        W95726  12.985  21.475  18.046
94862W        W95727  14.543  20.569  17.568
94863W        W95728  13.951  21.367  18.179
94864W        W95729  11.690  21.823  16.657
94865W        W95730  14.549  20.445  15.531
94866W        W95731  13.079  19.712  16.044
94867W        W95732  12.846  18.324  15.934
94868W        W95733  11.905  21.308  15.771
94869W        W95734  12.404  19.049  16.996
94870W        W95735  12.104  18.418  16.465
94871W        W95736  11.167  21.240  15.013
94872W        W95737  12.983  20.604  15.731
94873W        W95738  11.858  21.399  17.610
94874W        W95739  11.335  20.222  15.306
94875W        W95740  11.220  18.765  16.305
94876W        W95741  12.768  20.730  16.362
94877W        W95742  11.020  18.584  15.382
94878W        W95743  13.684  19.790  17.309
94879W        W95744  13.561  19.176  14.881
94880W        W95745  14.078  20.848  16.529
94881W        W95746  12.739  21.332  16.360
94882W        W95747  12.151  21.436  15.271
94883W        W95748  13.433  18.339  14.701
94884W        W95749  11.233  21.599  16.442
94885W        W95750  13.430  19.357  18.077
94886W        W95751  11.413  18.887  18.076
94887W        W95752  11.144  19.487  15.409
94888W        W95753  11.835  19.476  15.134
94889W        W95754  13.598  19.803  17.951
94890W        W95755  11.941  20.084  16.660
94891W        W95756  13.415  18.370  15.780
94892W        W95757  12.546  21.801  16.283
94893W        W95758  13.760  21.263  17.220
94894W        W95759  13.344  21.412  16.331
94895W        W95760  13.363  20.392  15.925
94896W        W95761  12.825  18.617  14.996
94897W        W95762  14.506  18.245  15.718
94898W        W95763  12.194  19.880  14.881
94899W        W95764  14.360  19.217  15.871
94900W        W95765  13.052  20.387  14.748
94901W        W95766  13.988  20.587  17.496
94902W        W95767  13.642  21.288  14.963
94903W        W95768  12.257  18.963  17.869
94904W        W95769  12.077  19.547  17.110
94905W        W95770  14.169  21.042  17.387
94906W        W95771  13.269  18.992  17.764
94907W        W95772  11.113  19.463  17.541
94908W        W95773  12.873  19.940  17.267
94909W        W95774  11.230  20.698  15.924
94910W        W95775  11.377  19.995  16.814
94911W        W95776  13.694  20.281  17.164
94912W        W95777  13.466  21.661  17.975
94913W        W95778  13.362  19.400  17.528
94914W        W95779  13.639  21.454  15.933
94915W        W95780  12.641  21.174  17.256
94916W        W95781  12.126  21.529  16.525
94917W        W95782  13.931  20.700  16.944
94918W        W95783  12.981  20.772  18.081
94919W        W95784  11.586  20.725  16.420
94920W        W95785  13.932  20.484  16.065
94921W        W95786  13.573  21.550  16.816
94922W        W95787  11.551  21.279  16.686
94923W        W95788  12.572  19.331  17.896
94924W        W95789  13.023  21.497  15.407
94925W        W95790  12.331  20.752  18.045
94926W        W95791  12.457  20.990  15.422
94927W        W95792  11.678  19.730  14.681
94928W        W95793  11.017  21.816  21.580
94929W        W95794  11.393  20.709  21.103
94930W        W95795  14.098  20.439  18.873
94931W        W95796  14.228  21.524  20.900
94932W        W95797  12.146  21.515  18.426
94933W        W95798  12.229  19.667  19.409
94934W        W95799  11.744  19.515  19.573
94935W        W95800  12.735  20.330  19.007
94936W        W95801  12.410  21.422  21.362
94937W        W95802  11.059  18.983  21.325
94938W        W95803  11.821  18.263  21.127
94939W        W95804  13.515  18.651  20.014
94940W        W95805  13.164  19.522  18.584
94941W        W95806  13.734  18.956  21.675
94942W        W95807  11.100  18.748  20.800
94943W        W95808  11.199  21.367  21.821
94944W        W95809  12.721  20.757  18.553
94945W        W95810  11.153  19.540  20.246
94946W        W95811  12.046  19.431  21.483
94947W        W95812  14.505  19.290  19.982
94948W        W95813  14.269  20.333  20.841
94949W        W95814  12.577  19.666  19.868
94950W        W95815  13.123  21.005  20.237
94951W        W95816  11.623  20.439  20.469
94952W        W95817  10.982  19.967  20.040
94953W        W95818  12.018  19.939  21.232
94954W        W95819  14.289  19.722  21.486
94955W        W95820  11.905  21.166  19.931
94956W        W95821  13.026  20.855  21.065
94957W        W95822  12.246  19.495  20.290
94958W        W95823  12.538  20.279  19.933
94959W        W95824  13.535  21.052  21.781
94960W        W95825  12.614  20.372  21.791
94961W        W95826  12.595  20.088  21.269
94962W        W95827  11.004  19.479  21.791
94963W        W95828  13.836  21.014  21.390
94964W        W95829  11.417  18.596  19.388
94965W        W95830  11.944  20.854  20.387
94966W        W95831  14.407  20.637  19.677
94967W        W95832  13.820  19.037  20.244
94968W        W95833  14.105  18.990  18.339
94969W        W95834  14.570  19.791  20.645
94970W        W95835  12.537  21.498  20.398
94971W        W95836  14.311  20.964  18.836
94972W        W95837  11.440  21.750  18.590
94973W        W95838  11.833  21.796  19.266
94974W        W95839  11.630  18.550  20.692
94975W        W95840  14.253  19.568  20.967
94976W        W95841  13.658  19.990  19.426
94977W        W95842  13.624  19.678  18.453
94978W        W95843  12.832  20.822  20.593
94979W        W95844  12.638  19.152  19.792
94980W        W95845  13.238  21.239  20.786
94981W        W95846  14.109  20.030  19.208
94982W        W95847  13.011  18.688  19.224
94983W        W95848  11.668  21.382  18.907
94984W        W95849  11.039  18.881  19.506
94985W        W95850  13.825  19.488  19.980
94986W        W95851  11.283  21.105  19.895
94987W        W95852  12.624  21.455  18.765
94988W        W95853  14.016  19.481  18.229
94989W        W95854  11.039  21.239  20.393
94990W        W95855  11.830  20.811  20.873
94991W        W95856  12.203  20.171  19.492
94992W        W95857  12.225  18.576  20.585
94993W        W95858  14.454  18.338  19.882
94994W        W95859  11.673  20.210  18.350
94995W        W95860  11.328  19.243  18.529
94996W        W95861  11.390  21.199  19.323
94997W        W95862  12.521  20.682  19.571
94998W        W95863  13.853  21.541  21.285
94999W        W95864  12.779  19.183  18.969
95000W        W95865  14.162  21.581  19.741
95001W        W95866  13.839  19.434  21.339
95002W        W95867  14.552  21.090  19.473
95003W        W95868  13.179  20.382  20.957
95004W        W95869  10.945  19.933  19.163
95005W        W95870  12.056  20.348  20.736
95006W        W95871  13.260  19.612  19.114
95007W        W95872  13.137  20.102  19.218
95008W        W95873  11.480  19.522  20.692
95009W        W95874  11.465  19.398  21.614
95010W        W95875  11.355  18.315  19.773
95011W        W95876  13.123  18.662  20.334
95012W        W95877  12.771  18.847  21.497
95013W        W95878  13.126  18.996  18.675
95014W        W95879  14.309  21.389  21.429
95015W        W95880  13.276  18.470  21.468
95016W        W95881  14.295  20.771  21.590
95017W        W95882  13.725  18.938  21.186
95018W        W95883  13.525  18.876  19.456
95019W        W95884  13.918  20.010  21.860
95020W        W95885  11.658  21.586  19.846
95021W        W95886  12.316  19.303  18.832
95022W        W95887  11.885  18.587  21.496
95023W        W95888  13.937  19.071  19.177
95024W        W95889  14.304  19.553  19.122
95025W        W95890  12.047  21.770  21.593
95026W        W95891  11.973  18.306  18.828
95027W        W95892  14.294  18.840  19.863
95028W        W95893  14.444  21.089  18.308
95029W        W95894  11.351  20.292  20.010
95030W        W95895  13.268  18.879  18.240
95031W        W95896  14.402  21.211  19.960
95032W        W95897  14.441  18.405  20.710
95033W        W95898  12.886  19.617  21.264
95034W        W95899  12.979  20.956  18.967
95035W        W95900  13.379  20.250  21.707
95036W        W95901  13.053  18.227  20.016
95037W        W95902  11.665  19.130  20.079
95038W        W95903  11.219  20.330  20.853
95039W        W95904  13.078  21.523  19.559
95040W        W95905  14.272  19.120  20.431
95041W        W95906  12.909  21.467  21.198
95042W        W95907  14.252  20.526  18.403
95043W        W95908  12.687  20.009  19.464
95044W        W95909  14.539  18.520  21.205
95045W        W95910  12.688  20.355  20.799
95046W        W95911  12.905  19.241  20.244
95047W        W95912  13.757  19.539  19.082
95048W        W95913  14.044  19.272  18.724
95049W        W95914  13.853  21.312  19.113
95050W        W95915  13.687  20.915  19.909
95051W        W95916  13.583  19.994  18.887
95052W        W95917  13.016  20.204  19.873
95053W        W95918  13.897  19.992  19.940
95054W        W95919  11.272  19.007  20.364
95055W        W95920  14.050  20.059  21.191
95056W        W95921  14.401  21.677  20.337
95057W        W95922  12.331  21.121  19.739
95058W        W95923  13.338  21.654  21.063
95059W        W95924  13.332  18.984  20.827
95060W        W95925  12.539  21.692  20.888
95061W        W95926  14.236  18.646  19.354
95062W        W95927  14.027  19.965  20.655
95063W        W95928  11.010  19.286  20.693
95064W        W95929  13.870  19.081  19.711
95065W        W95930  14.281  19.232  21.488
95066W        W95931  13.166  20.931  19.706
95067W        W95932  12.422  21.522  19.319
95068W        W95933  11.537  18.702  18.577
95069W        W95934  12.641  18.356  20.387
95070W        W95935  11.669  21.476  18.235
95071W        W95936  12.043  19.942  18.986
95072W        W95937  12.697  20.571  21.299
95073W        W95938  12.527  18.929  19.289
95074W        W95939  13.883  18.526  19.717
95075W        W95940  13.603  21.808  20.045
95076W        W95941  13.015  21.456  20.385
95077W        W95942  12.411  20.493  20.346
95078W        W95943  14.181  21.216  20.472
95079W        W95944  11.875  18.719  19.241
95080W        W95945  12.397  21.016  20.201
95081W        W95946  11.880  18.947  18.266
95082W        W95947  12.681  19.556  20.660
95083W        W95948  13.529  18.422  20.530
95084W        W95949  10.949  20.265  20.415
95085W        W95950  12.653  20.083  18.573
95086W        W95951  11.921  18.398  18.343
95087W        W95952  12.659  19.479  19.394
95088W        W95953  13.629  18.455  21.093
95089W        W95954  12.217  20.467  21.202
95090W        W95955  13.021  20.249  21.419
95091W        W95956  13.638  20.279  21.312
95092W        W95957  12.922  18.419  21.817
95093W        W95958  12.144  19.035  20.210
95094W        W95959  11.570  18.991  19.608
95095W        W95960  11.356  21.703  19.284
95096W        W95961  12.688  21.033  21.409
95097W        W95962  11.723  20.518  18.768
95098W        W95963  13.403  19.903  19.989
95099W        W95964  13.683  19.702  20.388
95100W        W95965  12.888  20.376  20.322
95101W        W95966  13.358  20.750  18.454
95102W        W95967  13.030  18.771  19.782
95103W        W95968  14.509  19.049  19.050
95104W        W95969  11.003  21.638  21.081
95105W        W95970  11.420  20.864  20.613
95106W        W95971  10.987  21.710  18.845
95107W        W95972  12.886  18.980  20.651
95108W        W95973  12.249  21.003  18.500
95109W        W95974  14.154  21.385  18.686
95110W        W95975  13.129  20.038  18.700
95111W        W95976  11.972  19.229  19.217
95112W        W95977  12.804  19.139  18.269
95113W        W95978  13.388  20.704  21.447
95114W        W95979  13.741  18.610  19.064
95115W        W95980  11.071  18.458  18.512
95116W        W95981  12.357  20.777  20.802
95117W        W95982  12.156  20.693  19.894
95118W        W95983  11.898  20.645  18.292
95119W        W95984  11.139  20.886  19.060
95120W        W95985  11.643  19.956  21.502
95121W        W95986  12.347  18.516  21.688
95122W        W95987  13.056  18.658  21.044
95123W        W95988  12.251  18.426  19.325
95124W        W95989  13.310  18.503  18.830
95125W        W95990  11.255  18.435  20.407
95126W        W95991  11.303  19.398  19.777
95127W        W95992  13.992  18.506  20.183
95128W        W95993  11.414  19.004  18.997
95129W        W95994  13.985  18.692  20.613
95130W        W95995  14.381  19.895  18.298
95131W        W95996  11.673  18.653  20.117
95132W        W95997  12.787  19.225  21.057
95133W        W95998  10.935  18.915  18.535
95134W        W95999  11.721  20.304  21.096
95135W        W96000  13.079  19.702  20.275
95136W        W96001  12.946  21.781  18.571
95137W        W96002  11.092  20.288  18.268
95138W        W96003  11.827  20.699  21.394
95139W        W96004  11.348  19.866  21.025
95140W        W96005  12.339  19.971  20.819
95141W        W96006  14.107  18.330  21.081
95142W        W96007  14.505  19.940  21.072
95143W        W96008  14.493  20.140  18.758
95144W        W96009  13.356  20.472  18.857
95145W        W96010  13.830  21.772  18.552
95146W        W96011  13.007  19.762  21.694
95147W        W96012  11.337  20.729  21.734
95148W        W96013  14.543  18.651  21.686
95149W        W96014  14.261  19.579  20.307
95150W        W96015  12.569  21.709  21.784
95151W        W96016  12.424  18.338  18.511
95152W        W96017  13.963  20.937  18.454
95153W        W96018  11.732  19.030  21.340
95154W        W96019  12.166  21.024  21.202
95155W        W96020  14.292  19.015  21.000
95156W        W96021  13.503  21.674  18.968
95157W        W96022  13.742  20.293  20.335
95158W        W96023  11.992  18.709  21.002
95159W        W96024  12.461  19.778  21.759
95160W        W96025  11.964  20.957  18.953
95161W        W96026  11.487  19.081  20.941
95162W        W96027  12.816  21.143  19.405
95163W        W96028  14.566  19.703  19.586
95164W        W96029  12.788  18.336  21.305
95165W        W96030  13.568  21.041  20.384
95166W        W96031  13.871  21.385  20.092
95167W        W96032  13.090  21.187  18.520
95168W        W96033  11.100  21.079  21.362
95169W        W96034  11.843  19.071  20.600
95170W        W96035  11.813  18.419  19.710
95171W        W96036  13.434  19.261  20.402
95172W        W96037  12.232  20.432  18.602
95173W        W96038  14.230  20.374  20.101
95174W        W96039  11.557  21.132  21.524
95175W        W96040  13.944  21.814  19.321
95176W        W96041  12.043  18.834  19.766
95177W        W96042  11.812  20.327  19.856
95178W        W96043  12.125  21.738  20.606
95179W        W96044  14.192  21.834  21.638
95180W        W96045  13.351  20.022  20.571
95181W        W96046  11.200  19.820  18.486
95182W        W96047  14.334  21.478  19.183
95183W        W96048  14.171  18.802  18.802
95184W        W96049  12.310  18.321  21.205
95185W        W96050  14.016  21.123  19.663
95186W        W96051  14.045  19.679  19.568
95187W        W96052  12.162  19.352  19.784
95188W        W96053  12.407  19.614  21.108
95189W        W96054  13.518  20.767  20.971
95190W        W96055  12.168  19.221  21.083
95191W        W96056  12.147  21.687  19.699
95192W        W96057  11.464  21.646  21.333
95193W        W96058  11.576  21.007  18.463
95194W        W96059  11.697  19.557  21.159
95195W        W96060  14.470  19.487  18.640
95196W        W96061  12.215  20.544  19.111
95197W        W96062  13.314  19.926  21.192
95198W        W96063  13.205  19.554  20.736
95199W        W96064  11.765  19.926  20.765
95200W        W96065  13.975  21.814  20.594
95201W        W96066  13.766  18.448  21.588
95202W        W96067  11.430  18.598  21.175
95203W        W96068  11.769  19.621  20.228
95204W        W96069  12.138  19.435  18.350
95205W        W96070  10.941  21.194  20.895
95206W        W96071  12.526  19.903  20.338
95207W        W96072  12.349  18.928  18.443
95208W        W96073  11.484  19.744  19.224
95209W        W96074  11.255  21.596  20.661
95210W        W96075  14.050  19.822  18.769
95211W        W96076  14.145  18.738  21.455
95212W        W96077  13.581  20.947  19.418
95213W        W96078  11.179  19.871  21.595
95214W        W96079  14.145  18.335  18.891
95215W        W96080  13.665  20.810  18.902
95216W        W96081  12.567  19.868  18.987
95217W        W96082  13.754  18.672  18.510
95218W        W96083  13.819  19.279  20.696
95219W        W96084  11.528  19.872  19.903
95220W        W96085  11.822  20.811  19.552
95221W        W96086  13.585  19.431  19.517
95222W        W96087  12.608  18.810  20.213
95223W        W96088  14.570  20.721  20.724
95224W        W96089  14.488  18.708  20.285
95225W        W96090  11.027  21.538  19.661
95226W        W96091  11.536  20.725  19.197
95227W        W96092  11.451  18.342  21.750
95228W        W96093  12.570  21.195  21.852
95229W        W96094  14.325  20.163  19.642
95230W        W96095  13.679  20.340  18.522
95231W        W96096  12.974  21.861  20.734
95232W        W96097  13.831  20.583  21.771
95233W        W96098  12.646  18.293  19.051
95234W        W96099  13.359  19.162  19.910
95235W        W96100  11.045  20.749  20.242
95236W        W96101  12.298  18.711  18.883
95237W        W96102  12.102  20.195  21.732
95238W        W96103  13.096  19.176  19.446
95239W        W96104  13.301  20.586  20.568
95240W        W96105  11.455  21.191  21.003
95241W        W96106  12.046  21.174  21.726
95242W        W96107  11.897  18.971  18.740
95243W        W96108  13.414  19.113  19.065
95244W        W96109  13.372  21.221  21.302
95245W        W96110  12.057  19.813  19.901
95246W        W96111  11.712  21.511  20.766
95247W        W96112  14.457  21.628  18.367
95248W        W96113  11.320  20.300  21.363
95249W        W96114  13.315  20.562  20.051
95250W        W96115  11.751  20.211  19.293
95251W        W96116  12.122  21.218  20.688
95252W        W96117  12.500  18.637  19.729
95253W        W96118  11.111  20.621  18.659
95254W        W96119  12.630  19.572  18.529
95255W        W96120  11.276  20.121  19.548
95256W        W96121  12.566  18.763  21.012
95257W        W96122  14.238  18.472  18.439
95258W        W96123  14.331  20.218  21.538
95259W        W96124  12.985  21.475  21.690
95260W        W96125  14.543  20.569  21.212
95261W        W96126  13.951  21.367  21.823
95262W        W96127  11.690  21.823  20.301
95263W        W96128  14.549  20.445  19.175
95264W        W96129  13.079  19.712  19.688
95265W        W96130  12.846  18.324  19.578
95266W        W96131  11.905  21.308  19.415
95267W        W96132  12.404  19.049  20.640
95268W        W96133  12.104  18.418  20.109
95269W        W96134  11.167  21.240  18.657
95270W        W96135  12.983  20.604  19.375
95271W        W96136  11.858  21.399  21.254
95272W        W96137  11.335  20.222  18.950
95273W        W96138  11.220  18.765  19.949
95274W        W96139  12.768  20.730  20.006
95275W        W96140  11.020  18.584  19.026
95276W        W96141  13.684  19.790  20.953
95277W        W96142  13.561  19.176  18.525
95278W        W96143  14.078  20.848  20.173
95279W        W96144  12.739  21.332  20.004
95280W        W96145  12.151  21.436  18.915
95281W        W96146  13.433  18.339  18.345
95282W        W96147  11.233  21.599  20.086
95283W        W96148  13.430  19.357  21.721
95284W        W96149  11.413  18.887  21.720
95285W        W96150  11.144  19.487  19.053
95286W        W96151  11.835  19.476  18.778
95287W        W96152  13.598  19.803  21.595
95288W        W96153  11.941  20.084  20.304
95289W        W96154  13.415  18.370  19.424
95290W        W96155  12.546  21.801  19.927
95291W        W96156  13.760  21.263  20.864
95292W        W96157  13.344  21.412  19.975
95293W        W96158  13.363  20.392  19.569
95294W        W96159  12.825  18.617  18.640
95295W        W96160  14.506  18.245  19.362
95296W        W96161  12.194  19.880  18.525
95297W        W96162  14.360  19.217  19.515
95298W        W96163  13.052  20.387  18.392
95299W        W96164  13.988  20.587  21.140
95300W        W96165  13.642  21.288  18.607
95301W        W96166  12.257  18.963  21.513
95302W        W96167  12.077  19.547  20.754
95303W        W96168  14.169  21.042  21.031
95304W        W96169  13.269  18.992  21.408
95305W        W96170  11.113  19.463  21.185
95306W        W96171  12.873  19.940  20.911
95307W        W96172  11.230  20.698  19.568
95308W        W96173  11.377  19.995  20.458
95309W        W96174  13.694  20.281  20.808
95310W        W96175  13.466  21.661  21.619
95311W        W96176  13.362  19.400  21.172
95312W        W96177  13.639  21.454  19.577
95313W        W96178  12.641  21.174  20.900
95314W        W96179  12.126  21.529  20.169
95315W        W96180  13.931  20.700  20.588
95316W        W96181  12.981  20.772  21.725
95317W        W96182  11.586  20.725  20.064
95318W        W96183  13.932  20.484  19.709
95319W        W96184  13.573  21.550  20.460
95320W        W96185  11.551  21.279  20.330
95321W        W96186  12.572  19.331  21.540
95322W        W96187  13.023  21.497  19.051
95323W        W96188  12.331  20.752  21.689
95324W        W96189  12.457  20.990  19.066
95325W        W96190  11.678  19.730  18.325
95326W        W96191  11.017  21.816  25.225
95327W        W96192  11.393  20.709  24.748
95328W        W96193  14.098  20.439  22.518
95329W        W96194  14.228  21.524  24.545
95330W        W96195  12.146  21.515  22.071
95331W        W96196  12.229  19.667  23.054
95332W        W96197  11.744  19.515  23.218
95333W        W96198  12.735  20.330  22.652
95334W        W96199  12.410  21.422  25.007
95335W        W96200  11.059  18.983  24.970
95336W        W96201  11.821  18.263  24.772
95337W        W96202  13.515  18.651  23.659
95338W        W96203  13.164  19.522  22.229
95339W        W96204  13.734  18.956  25.320
95340W        W96205  11.100  18.748  24.445
95341W        W96206  11.199  21.367  25.466
95342W        W96207  12.721  20.757  22.198
95343W        W96208  11.153  19.540  23.891
95344W        W96209  12.046  19.431  25.128
95345W        W96210  14.505  19.290  23.627
95346W        W96211  14.269  20.333  24.486
95347W        W96212  12.577  19.666  23.513
95348W        W96213  13.123  21.005  23.882
95349W        W96214  11.623  20.439  24.114
95350W        W96215  10.982  19.967  23.685
95351W        W96216  12.018  19.939  24.877
95352W        W96217  14.289  19.722  25.131
95353W        W96218  11.905  21.166  23.576
95354W        W96219  13.026  20.855  24.710
95355W        W96220  12.246  19.495  23.935
95356W        W96221  12.538  20.279  23.578
95357W        W96222  13.535  21.052  25.426
95358W        W96223  12.614  20.372  25.436
95359W        W96224  12.595  20.088  24.914
95360W        W96225  11.004  19.479  25.436
95361W        W96226  13.836  21.014  25.035
95362W        W96227  11.417  18.596  23.033
95363W        W96228  11.944  20.854  24.032
95364W        W96229  14.407  20.637  23.322
95365W        W96230  13.820  19.037  23.889
95366W        W96231  14.105  18.990  21.984
95367W        W96232  14.570  19.791  24.290
95368W        W96233  12.537  21.498  24.043
95369W        W96234  14.311  20.964  22.481
95370W        W96235  11.440  21.750  22.235
95371W        W96236  11.833  21.796  22.911
95372W        W96237  11.630  18.550  24.337
95373W        W96238  14.253  19.568  24.612
95374W        W96239  13.658  19.990  23.071
95375W        W96240  13.624  19.678  22.098
95376W        W96241  12.832  20.822  24.238
95377W        W96242  12.638  19.152  23.437
95378W        W96243  13.238  21.239  24.431
95379W        W96244  14.109  20.030  22.853
95380W        W96245  13.011  18.688  22.869
95381W        W96246  11.668  21.382  22.552
95382W        W96247  11.039  18.881  23.151
95383W        W96248  13.825  19.488  23.625
95384W        W96249  11.283  21.105  23.540
95385W        W96250  12.624  21.455  22.410
95386W        W96251  14.016  19.481  21.874
95387W        W96252  11.039  21.239  24.038
95388W        W96253  11.830  20.811  24.518
95389W        W96254  12.203  20.171  23.137
95390W        W96255  12.225  18.576  24.230
95391W        W96256  14.454  18.338  23.527
95392W        W96257  11.673  20.210  21.995
95393W        W96258  11.328  19.243  22.174
95394W        W96259  11.390  21.199  22.968
95395W        W96260  12.521  20.682  23.216
95396W        W96261  13.853  21.541  24.930
95397W        W96262  12.779  19.183  22.614
95398W        W96263  14.162  21.581  23.386
95399W        W96264  13.839  19.434  24.984
95400W        W96265  14.552  21.090  23.118
95401W        W96266  13.179  20.382  24.602
95402W        W96267  10.945  19.933  22.808
95403W        W96268  12.056  20.348  24.381
95404W        W96269  13.260  19.612  22.759
95405W        W96270  13.137  20.102  22.863
95406W        W96271  11.480  19.522  24.337
95407W        W96272  11.465  19.398  25.259
95408W        W96273  11.355  18.315  23.418
95409W        W96274  13.123  18.662  23.979
95410W        W96275  12.771  18.847  25.142
95411W        W96276  13.126  18.996  22.320
95412W        W96277  14.309  21.389  25.074
95413W        W96278  13.276  18.470  25.113
95414W        W96279  14.295  20.771  25.235
95415W        W96280  13.725  18.938  24.831
95416W        W96281  13.525  18.876  23.101
95417W        W96282  13.918  20.010  25.505
95418W        W96283  11.658  21.586  23.491
95419W        W96284  12.316  19.303  22.477
95420W        W96285  11.885  18.587  25.141
95421W        W96286  13.937  19.071  22.822
95422W        W96287  14.304  19.553  22.767
95423W        W96288  12.047  21.770  25.238
95424W        W96289  11.973  18.306  22.473
95425W        W96290  14.294  18.840  23.508
95426W        W96291  14.444  21.089  21.953
95427W        W96292  11.351  20.292  23.655
95428W        W96293  13.268  18.879  21.885
95429W        W96294  14.402  21.211  23.605
95430W        W96295  14.441  18.405  24.355
95431W        W96296  12.886  19.617  24.909
95432W        W96297  12.979  20.956  22.612
95433W        W96298  13.379  20.250  25.352
95434W        W96299  13.053  18.227  23.661
95435W        W96300  11.665  19.130  23.724
95436W        W96301  11.219  20.330  24.498
95437W        W96302  13.078  21.523  23.204
95438W        W96303  14.272  19.120  24.076
95439W        W96304  12.909  21.467  24.843
95440W        W96305  14.252  20.526  22.048
95441W        W96306  12.687  20.009  23.109
95442W        W96307  14.539  18.520  24.850
95443W        W96308  12.688  20.355  24.444
95444W        W96309  12.905  19.241  23.889
95445W        W96310  13.757  19.539  22.727
95446W        W96311  14.044  19.272  22.369
95447W        W96312  13.853  21.312  22.758
95448W        W96313  13.687  20.915  23.554
95449W        W96314  13.583  19.994  22.532
95450W        W96315  13.016  20.204  23.518
95451W        W96316  13.897  19.992  23.585
95452W        W96317  11.272  19.007  24.009
95453W        W96318  14.050  20.059  24.836
95454W        W96319  14.401  21.677  23.982
95455W        W96320  12.331  21.121  23.384
95456W        W96321  13.338  21.654  24.708
95457W        W96322  13.332  18.984  24.472
95458W        W96323  12.539  21.692  24.533
95459W        W96324  14.236  18.646  22.999
95460W        W96325  14.027  19.965  24.300
95461W        W96326  11.010  19.286  24.338
95462W        W96327  13.870  19.081  23.356
95463W        W96328  14.281  19.232  25.133
95464W        W96329  13.166  20.931  23.351
95465W        W96330  12.422  21.522  22.964
95466W        W96331  11.537  18.702  22.222
95467W        W96332  12.641  18.356  24.032
95468W        W96333  11.669  21.476  21.880
95469W        W96334  12.043  19.942  22.631
95470W        W96335  12.697  20.571  24.944
95471W        W96336  12.527  18.929  22.934
95472W        W96337  13.883  18.526  23.362
95473W        W96338  13.603  21.808  23.690
95474W        W96339  13.015  21.456  24.030
95475W        W96340  12.411  20.493  23.991
95476W        W96341  14.181  21.216  24.117
95477W        W96342  11.875  18.719  22.886
95478W        W96343  12.397  21.016  23.846
95479W        W96344  11.880  18.947  21.911
95480W        W96345  12.681  19.556  24.305
95481W        W96346  13.529  18.422  24.175
95482W        W96347  10.949  20.265  24.060
95483W        W96348  12.653  20.083  22.218
95484W        W96349  11.921  18.398  21.988
95485W        W96350  12.659  19.479  23.039
95486W        W96351  13.629  18.455  24.738
95487W        W96352  12.217  20.467  24.847
95488W        W96353  13.021  20.249  25.064
95489W        W96354  13.638  20.279  24.957
95490W        W96355  12.922  18.419  25.462
95491W        W96356  12.144  19.035  23.855
95492W        W96357  11.570  18.991  23.253
95493W        W96358  11.356  21.703  22.929
95494W        W96359  12.688  21.033  25.054
95495W        W96360  11.723  20.518  22.413
95496W        W96361  13.403  19.903  23.634
95497W        W96362  13.683  19.702  24.033
95498W        W96363  12.888  20.376  23.967
95499W        W96364  13.358  20.750  22.099
95500W        W96365  13.030  18.771  23.427
95501W        W96366  14.509  19.049  22.695
95502W        W96367  11.003  21.638  24.726
95503W        W96368  11.420  20.864  24.258
95504W        W96369  10.987  21.710  22.490
95505W        W96370  12.249  21.003  22.145
95506W        W96371  14.154  21.385  22.331
95507W        W96372  13.129  20.038  22.345
95508W        W96373  11.972  19.229  22.862
95509W        W96374  12.804  19.139  21.914
95510W        W96375  13.388  20.704  25.092
95511W        W96376  13.741  18.610  22.709
95512W        W96377  11.071  18.458  22.157
95513W        W96378  12.357  20.777  24.447
95514W        W96379  12.156  20.693  23.539
95515W        W96380  11.898  20.645  21.937
95516W        W96381  11.139  20.886  22.705
95517W        W96382  11.643  19.956  25.147
95518W        W96383  12.347  18.516  25.333
95519W        W96384  13.056  18.658  24.689
95520W        W96385  12.251  18.426  22.970
95521W        W96386  13.310  18.503  22.475
95522W        W96387  11.255  18.435  24.052
95523W        W96388  11.303  19.398  23.422
95524W        W96389  13.992  18.506  23.828
95525W        W96390  11.414  19.004  22.642
95526W        W96391  13.985  18.692  24.258
95527W        W96392  14.381  19.895  21.943
95528W        W96393  11.673  18.653  23.762
95529W        W96394  12.787  19.225  24.702
95530W        W96395  10.935  18.915  22.180
95531W        W96396  11.721  20.304  24.741
95532W        W96397  13.079  19.702  23.920
95533W        W96398  12.946  21.781  22.216
95534W        W96399  11.092  20.288  21.913
95535W        W96400  11.827  20.699  25.039
95536W        W96401  11.348  19.866  24.670
95537W        W96402  12.339  19.971  24.464
95538W        W96403  14.107  18.330  24.726
95539W        W96404  14.505  19.940  24.717
95540W        W96405  14.493  20.140  22.403
95541W        W96406  13.356  20.472  22.502
95542W        W96407  13.830  21.772  22.197
95543W        W96408  13.007  19.762  25.339
95544W        W96409  11.337  20.729  25.379
95545W        W96410  14.543  18.651  25.331
95546W        W96411  14.261  19.579  23.952
95547W        W96412  12.569  21.709  25.429
95548W        W96413  12.424  18.338  22.156
95549W        W96414  13.963  20.937  22.099
95550W        W96415  11.732  19.030  24.985
95551W        W96416  12.166  21.024  24.847
95552W        W96417  14.292  19.015  24.645
95553W        W96418  13.503  21.674  22.613
95554W        W96419  13.742  20.293  23.980
95555W        W96420  11.992  18.709  24.647
95556W        W96421  12.461  19.778  25.404
95557W        W96422  11.964  20.957  22.598
95558W        W96423  13.719  20.455  22.862
95559W        W96424  11.487  19.081  24.586
95560W        W96425  12.816  21.143  23.050
95561W        W96426  14.566  19.703  23.231
95562W        W96427  12.788  18.336  24.950
95563W        W96428  13.568  21.041  24.029
95564W        W96429  13.871  21.385  23.737
95565W        W96430  13.090  21.187  22.165
95566W        W96431  11.100  21.079  25.007
95567W        W96432  11.843  19.071  24.245
95568W        W96433  11.813  18.419  23.355
95569W        W96434  13.434  19.261  24.047
95570W        W96435  12.232  20.432  22.247
95571W        W96436  14.230  20.374  23.746
95572W        W96437  11.557  21.132  25.169
95573W        W96438  13.944  21.814  22.966
95574W        W96439  12.043  18.834  23.411
95575W        W96440  11.812  20.327  23.501
95576W        W96441  12.125  21.738  24.251
95577W        W96442  14.192  21.834  25.283
95578W        W96443  13.351  20.022  24.216
95579W        W96444  11.200  19.820  22.131
95580W        W96445  14.334  21.478  22.828
95581W        W96446  14.171  18.802  22.447
95582W        W96447  12.310  18.321  24.850
95583W        W96448  14.016  21.123  23.308
95584W        W96449  14.045  19.679  23.213
95585W        W96450  12.162  19.352  23.429
95586W        W96451  12.407  19.614  24.753
95587W        W96452  13.518  20.767  24.616
95588W        W96453  12.168  19.221  24.728
95589W        W96454  12.147  21.687  23.344
95590W        W96455  11.464  21.646  24.978
95591W        W96456  11.576  21.007  22.108
95592W        W96457  14.093  20.765  22.918
95593W        W96458  11.697  19.557  24.804
95594W        W96459  14.470  19.487  22.285
95595W        W96460  12.215  20.544  22.756
95596W        W96461  13.314  19.926  24.837
95597W        W96462  13.205  19.554  24.381
95598W        W96463  11.765  19.926  24.410
95599W        W96464  13.975  21.814  24.239
95600W        W96465  13.766  18.448  25.233
95601W        W96466  11.430  18.598  24.820
95602W        W96467  11.769  19.621  23.873
95603W        W96468  12.138  19.435  21.995
95604W        W96469  10.941  21.194  24.540
95605W        W96470  12.526  19.903  23.983
95606W        W96471  12.349  18.928  22.088
95607W        W96472  11.484  19.744  22.869
95608W        W96473  11.255  21.596  24.306
95609W        W96474  14.050  19.822  22.414
95610W        W96475  14.145  18.738  25.100
95611W        W96476  13.581  20.947  23.063
95612W        W96477  11.179  19.871  25.240
95613W        W96478  14.145  18.335  22.536
95614W        W96479  13.665  20.810  22.547
95615W        W96480  12.567  19.868  22.632
95616W        W96481  13.754  18.672  22.155
95617W        W96482  13.819  19.279  24.341
95618W        W96483  11.528  19.872  23.548
95619W        W96484  11.822  20.811  23.197
95620W        W96485  13.585  19.431  23.162
95621W        W96486  12.608  18.810  23.858
95622W        W96487  14.570  20.721  24.369
95623W        W96488  14.488  18.708  23.930
95624W        W96489  11.027  21.538  23.306
95625W        W96490  11.536  20.725  22.842
95626W        W96491  11.451  18.342  25.395
95627W        W96492  12.570  21.195  25.497
95628W        W96493  14.325  20.163  23.287
95629W        W96494  13.679  20.340  22.167
95630W        W96495  12.974  21.861  24.379
95631W        W96496  13.831  20.583  25.416
95632W        W96497  12.646  18.293  22.696
95633W        W96498  13.359  19.162  23.555
95634W        W96499  11.045  20.749  23.887
95635W        W96500  12.298  18.711  22.528
95636W        W96501  12.102  20.195  25.377
95637W        W96502  13.096  19.176  23.091
95638W        W96503  13.301  20.586  24.213
95639W        W96504  11.455  21.191  24.648
95640W        W96505  12.046  21.174  25.371
95641W        W96506  11.897  18.971  22.385
95642W        W96507  13.414  19.113  22.710
95643W        W96508  13.372  21.221  24.947
95644W        W96509  12.057  19.813  23.546
95645W        W96510  11.712  21.511  24.411
95646W        W96511  14.457  21.628  22.012
95647W        W96512  11.320  20.300  25.008
95648W        W96513  13.315  20.562  23.696
95649W        W96514  11.751  20.211  22.938
95650W        W96515  12.122  21.218  24.333
95651W        W96516  12.500  18.637  23.374
95652W        W96517  11.111  20.621  22.304
95653W        W96518  12.630  19.572  22.174
95654W        W96519  11.276  20.121  23.193
95655W        W96520  12.566  18.763  24.657
95656W        W96521  14.238  18.472  22.084
95657W        W96522  14.331  20.218  25.183
95658W        W96523  12.985  21.475  25.335
95659W        W96524  14.543  20.569  24.857
95660W        W96525  13.951  21.367  25.468
95661W        W96526  11.690  21.823  23.946
95662W        W96527  14.549  20.445  22.820
95663W        W96528  13.079  19.712  23.333
95664W        W96529  12.846  18.324  23.223
95665W        W96530  11.905  21.308  23.060
95666W        W96531  12.404  19.049  24.285
95667W        W96532  12.104  18.418  23.754
95668W        W96533  11.167  21.240  22.302
95669W        W96534  12.983  20.604  23.020
95670W        W96535  11.858  21.399  24.899
95671W        W96536  11.335  20.222  22.595
95672W        W96537  11.220  18.765  23.594
95673W        W96538  12.768  20.730  23.651
95674W        W96539  11.020  18.584  22.671
95675W        W96540  13.684  19.790  24.598
95676W        W96541  13.561  19.176  22.170
95677W        W96542  14.078  20.848  23.818
95678W        W96543  12.739  21.332  23.649
95679W        W96544  12.151  21.436  22.560
95680W        W96545  13.433  18.339  21.990
95681W        W96546  11.233  21.599  23.731
95682W        W96547  13.430  19.357  25.366
95683W        W96548  11.413  18.887  25.365
95684W        W96549  11.144  19.487  22.698
95685W        W96550  11.835  19.476  22.423
95686W        W96551  13.598  19.803  25.240
95687W        W96552  11.941  20.084  23.949
95688W        W96553  13.415  18.370  23.069
95689W        W96554  12.546  21.801  23.572
95690W        W96555  13.760  21.263  24.509
95691W        W96556  13.344  21.412  23.620
95692W        W96557  13.363  20.392  23.214
95693W        W96558  12.825  18.617  22.285
95694W        W96559  14.506  18.245  23.007
95695W        W96560  12.194  19.880  22.170
95696W        W96561  14.360  19.217  23.160
95697W        W96562  13.052  20.387  22.037
95698W        W96563  13.988  20.587  24.785
95699W        W96564  13.642  21.288  22.252
95700W        W96565  12.257  18.963  25.158
95701W        W96566  12.077  19.547  24.399
95702W        W96567  14.169  21.042  24.676
95703W        W96568  13.269  18.992  25.053
95704W        W96569  11.113  19.463  24.830
95705W        W96570  12.873  19.940  24.556
95706W        W96571  11.230  20.698  23.213
95707W        W96572  11.377  19.995  24.103
95708W        W96573  13.694  20.281  24.453
95709W        W96574  13.466  21.661  25.264
95710W        W96575  13.362  19.400  24.817
95711W        W96576  13.639  21.454  23.222
95712W        W96577  12.641  21.174  24.545
95713W        W96578  12.126  21.529  23.814
95714W        W96579  13.931  20.700  24.233
95715W        W96580  12.981  20.772  25.370
95716W        W96581  11.586  20.725  23.709
95717W        W96582  13.932  20.484  23.354
95718W        W96583  13.573  21.550  24.105
95719W        W96584  11.551  21.279  23.975
95720W        W96585  12.572  19.331  25.185
95721W        W96586  13.023  21.497  22.696
95722W        W96587  12.331  20.752  25.334
95723W        W96588  12.457  20.990  22.711
95724W        W96589  11.678  19.730  21.970
95725W        W96590  11.017  21.816  28.869
95726W        W96591  11.393  20.709  28.392
95727W        W96592  14.098  20.439  26.162
95728W        W96593  14.228  21.524  28.189
95729W        W96594  12.146  21.515  25.715
95730W        W96595  12.229  19.667  26.698
95731W        W96596  11.744  19.515  26.862
95732W        W96597  12.735  20.330  26.296
95733W        W96598  12.410  21.422  28.651
95734W        W96599  11.059  18.983  28.614
95735W        W96600  11.821  18.263  28.416
95736W        W96601  13.515  18.651  27.303
95737W        W96602  13.164  19.522  25.873
95738W        W96603  13.734  18.956  28.964
95739W        W96604  11.100  18.748  28.089
95740W        W96605  11.199  21.367  29.110
95741W        W96606  12.721  20.757  25.842
95742W        W96607  11.153  19.540  27.535
95743W        W96608  12.046  19.431  28.772
95744W        W96609  14.505  19.290  27.271
95745W        W96610  14.269  20.333  28.130
95746W        W96611  12.577  19.666  27.157
95747W        W96612  13.123  21.005  27.526
95748W        W96613  11.623  20.439  27.758
95749W        W96614  10.982  19.967  27.329
95750W        W96615  12.018  19.939  28.521
95751W        W96616  14.289  19.722  28.775
95752W        W96617  11.905  21.166  27.220
95753W        W96618  13.026  20.855  28.354
95754W        W96619  12.246  19.495  27.579
95755W        W96620  12.538  20.279  27.222
95756W        W96621  13.535  21.052  29.070
95757W        W96622  12.614  20.372  29.080
95758W        W96623  12.595  20.088  28.558
95759W        W96624  11.004  19.479  29.080
95760W        W96625  13.836  21.014  28.679
95761W        W96626  11.417  18.596  26.677
95762W        W96627  11.944  20.854  27.676
95763W        W96628  14.407  20.637  26.966
95764W        W96629  13.820  19.037  27.533
95765W        W96630  14.105  18.990  25.628
95766W        W96631  14.570  19.791  27.934
95767W        W96632  12.537  21.498  27.687
95768W        W96633  14.311  20.964  26.125
95769W        W96634  11.440  21.750  25.879
95770W        W96635  11.833  21.796  26.555
95771W        W96636  11.630  18.550  27.981
95772W        W96637  14.253  19.568  28.256
95773W        W96638  13.658  19.990  26.715
95774W        W96639  13.624  19.678  25.742
95775W        W96640  12.832  20.822  27.882
95776W        W96641  12.638  19.152  27.081
95777W        W96642  13.238  21.239  28.075
95778W        W96643  14.109  20.030  26.497
95779W        W96644  13.011  18.688  26.513
95780W        W96645  11.668  21.382  26.196
95781W        W96646  11.039  18.881  26.795
95782W        W96647  13.825  19.488  27.269
95783W        W96648  11.283  21.105  27.184
95784W        W96649  12.624  21.455  26.054
95785W        W96650  14.016  19.481  25.518
95786W        W96651  11.039  21.239  27.682
95787W        W96652  11.830  20.811  28.162
95788W        W96653  12.203  20.171  26.781
95789W        W96654  12.225  18.576  27.874
95790W        W96655  14.454  18.338  27.171
95791W        W96656  11.673  20.210  25.639
95792W        W96657  11.328  19.243  25.818
95793W        W96658  11.390  21.199  26.612
95794W        W96659  12.521  20.682  26.860
95795W        W96660  13.853  21.541  28.574
95796W        W96661  12.779  19.183  26.258
95797W        W96662  14.162  21.581  27.030
95798W        W96663  13.839  19.434  28.628
95799W        W96664  14.552  21.090  26.762
95800W        W96665  13.179  20.382  28.246
95801W        W96666  10.945  19.933  26.452
95802W        W96667  12.056  20.348  28.025
95803W        W96668  13.260  19.612  26.403
95804W        W96669  13.137  20.102  26.507
95805W        W96670  11.480  19.522  27.981
95806W        W96671  11.465  19.398  28.903
95807W        W96672  11.355  18.315  27.062
95808W        W96673  13.123  18.662  27.623
95809W        W96674  12.771  18.847  28.786
95810W        W96675  13.126  18.996  25.964
95811W        W96676  14.309  21.389  28.718
95812W        W96677  13.276  18.470  28.757
95813W        W96678  14.295  20.771  28.879
95814W        W96679  13.725  18.938  28.475
95815W        W96680  13.525  18.876  26.745
95816W        W96681  13.918  20.010  29.149
95817W        W96682  11.658  21.586  27.135
95818W        W96683  12.316  19.303  26.121
95819W        W96684  11.885  18.587  28.785
95820W        W96685  13.937  19.071  26.466
95821W        W96686  14.304  19.553  26.411
95822W        W96687  12.047  21.770  28.882
95823W        W96688  11.973  18.306  26.117
95824W        W96689  14.294  18.840  27.152
95825W        W96690  14.444  21.089  25.597
95826W        W96691  11.351  20.292  27.299
95827W        W96692  13.268  18.879  25.529
95828W        W96693  14.402  21.211  27.249
95829W        W96694  14.441  18.405  27.999
95830W        W96695  12.886  19.617  28.553
95831W        W96696  12.979  20.956  26.256
95832W        W96697  13.379  20.250  28.996
95833W        W96698  13.053  18.227  27.305
95834W        W96699  11.665  19.130  27.368
95835W        W96700  11.219  20.330  28.142
95836W        W96701  13.078  21.523  26.848
95837W        W96702  14.272  19.120  27.720
95838W        W96703  12.909  21.467  28.487
95839W        W96704  14.252  20.526  25.692
95840W        W96705  12.687  20.009  26.753
95841W        W96706  14.539  18.520  28.494
95842W        W96707  12.688  20.355  28.088
95843W        W96708  12.905  19.241  27.533
95844W        W96709  13.757  19.539  26.371
95845W        W96710  14.044  19.272  26.013
95846W        W96711  13.853  21.312  26.402
95847W        W96712  13.687  20.915  27.198
95848W        W96713  13.583  19.994  26.176
95849W        W96714  13.016  20.204  27.162
95850W        W96715  13.897  19.992  27.229
95851W        W96716  11.272  19.007  27.653
95852W        W96717  14.050  20.059  28.480
95853W        W96718  14.401  21.677  27.626
95854W        W96719  12.331  21.121  27.028
95855W        W96720  13.338  21.654  28.352
95856W        W96721  13.332  18.984  28.116
95857W        W96722  12.539  21.692  28.177
95858W        W96723  14.236  18.646  26.643
95859W        W96724  14.027  19.965  27.944
95860W        W96725  11.010  19.286  27.982
95861W        W96726  13.870  19.081  27.000
95862W        W96727  14.281  19.232  28.777
95863W        W96728  13.166  20.931  26.995
95864W        W96729  12.422  21.522  26.608
95865W        W96730  11.537  18.702  25.866
95866W        W96731  12.641  18.356  27.676
95867W        W96732  11.669  21.476  25.524
95868W        W96733  12.043  19.942  26.275
95869W        W96734  12.697  20.571  28.588
95870W        W96735  12.527  18.929  26.578
95871W        W96736  13.883  18.526  27.006
95872W        W96737  13.603  21.808  27.334
95873W        W96738  13.015  21.456  27.674
95874W        W96739  12.411  20.493  27.635
95875W        W96740  14.181  21.216  27.761
95876W        W96741  11.875  18.719  26.530
95877W        W96742  12.397  21.016  27.490
95878W        W96743  11.880  18.947  25.555
95879W        W96744  12.681  19.556  27.949
95880W        W96745  13.529  18.422  27.819
95881W        W96746  10.949  20.265  27.704
95882W        W96747  12.653  20.083  25.862
95883W        W96748  11.921  18.398  25.632
95884W        W96749  12.659  19.479  26.683
95885W        W96750  13.629  18.455  28.382
95886W        W96751  12.217  20.467  28.491
95887W        W96752  13.021  20.249  28.708
95888W        W96753  13.638  20.279  28.601
95889W        W96754  12.922  18.419  29.106
95890W        W96755  12.144  19.035  27.499
95891W        W96756  11.570  18.991  26.897
95892W        W96757  11.356  21.703  26.573
95893W        W96758  12.688  21.033  28.698
95894W        W96759  11.723  20.518  26.057
95895W        W96760  13.403  19.903  27.278
95896W        W96761  13.683  19.702  27.677
95897W        W96762  12.888  20.376  27.611
95898W        W96763  13.358  20.750  25.743
95899W        W96764  13.030  18.771  27.071
95900W        W96765  14.509  19.049  26.339
95901W        W96766  11.003  21.638  28.370
95902W        W96767  11.420  20.864  27.902
95903W        W96768  10.987  21.710  26.134
95904W        W96769  12.886  18.980  27.940
95905W        W96770  12.249  21.003  25.789
95906W        W96771  14.154  21.385  25.975
95907W        W96772  13.129  20.038  25.989
95908W        W96773  11.972  19.229  26.506
95909W        W96774  12.804  19.139  25.558
95910W        W96775  13.388  20.704  28.736
95911W        W96776  13.741  18.610  26.353
95912W        W96777  11.071  18.458  25.801
95913W        W96778  12.357  20.777  28.091
95914W        W96779  12.156  20.693  27.183
95915W        W96780  11.898  20.645  25.581
95916W        W96781  11.139  20.886  26.349
95917W        W96782  11.643  19.956  28.791
95918W        W96783  12.347  18.516  28.977
95919W        W96784  13.056  18.658  28.333
95920W        W96785  12.251  18.426  26.614
95921W        W96786  13.310  18.503  26.119
95922W        W96787  11.255  18.435  27.696
95923W        W96788  11.303  19.398  27.066
95924W        W96789  13.992  18.506  27.472
95925W        W96790  11.414  19.004  26.286
95926W        W96791  13.985  18.692  27.902
95927W        W96792  14.381  19.895  25.587
95928W        W96793  11.673  18.653  27.406
95929W        W96794  12.787  19.225  28.346
95930W        W96795  10.935  18.915  25.824
95931W        W96796  11.721  20.304  28.385
95932W        W96797  13.079  19.702  27.564
95933W        W96798  12.946  21.781  25.860
95934W        W96799  11.092  20.288  25.557
95935W        W96800  11.827  20.699  28.683
95936W        W96801  11.348  19.866  28.314
95937W        W96802  12.339  19.971  28.108
95938W        W96803  14.107  18.330  28.370
95939W        W96804  14.505  19.940  28.361
95940W        W96805  14.493  20.140  26.047
95941W        W96806  13.356  20.472  26.146
95942W        W96807  13.830  21.772  25.841
95943W        W96808  13.007  19.762  28.983
95944W        W96809  11.337  20.729  29.023
95945W        W96810  14.543  18.651  28.975
95946W        W96811  14.261  19.579  27.596
95947W        W96812  12.569  21.709  29.073
95948W        W96813  12.424  18.338  25.800
95949W        W96814  13.963  20.937  25.743
95950W        W96815  11.732  19.030  28.629
95951W        W96816  12.166  21.024  28.491
95952W        W96817  14.292  19.015  28.289
95953W        W96818  13.503  21.674  26.257
95954W        W96819  13.742  20.293  27.624
95955W        W96820  11.992  18.709  28.291
95956W        W96821  12.461  19.778  29.048
95957W        W96822  11.964  20.957  26.242
95958W        W96823  13.719  20.455  26.506
95959W        W96824  11.487  19.081  28.230
95960W        W96825  12.816  21.143  26.694
95961W        W96826  14.566  19.703  26.875
95962W        W96827  12.788  18.336  28.594
95963W        W96828  13.568  21.041  27.673
95964W        W96829  13.871  21.385  27.381
95965W        W96830  13.090  21.187  25.809
95966W        W96831  11.100  21.079  28.651
95967W        W96832  11.843  19.071  27.889
95968W        W96833  11.813  18.419  26.999
95969W        W96834  13.434  19.261  27.691
95970W        W96835  12.232  20.432  25.891
95971W        W96836  14.230  20.374  27.390
95972W        W96837  11.557  21.132  28.813
95973W        W96838  13.944  21.814  26.610
95974W        W96839  12.043  18.834  27.055
95975W        W96840  11.812  20.327  27.145
95976W        W96841  12.125  21.738  27.895
95977W        W96842  14.192  21.834  28.927
95978W        W96843  13.351  20.022  27.860
95979W        W96844  11.200  19.820  25.775
95980W        W96845  14.334  21.478  26.472
95981W        W96846  14.171  18.802  26.091
95982W        W96847  12.310  18.321  28.494
95983W        W96848  14.016  21.123  26.952
95984W        W96849  14.045  19.679  26.857
95985W        W96850  12.162  19.352  27.073
95986W        W96851  12.407  19.614  28.397
95987W        W96852  13.518  20.767  28.260
95988W        W96853  12.168  19.221  28.372
95989W        W96854  12.147  21.687  26.988
95990W        W96855  11.464  21.646  28.622
95991W        W96856  11.576  21.007  25.752
95992W        W96857  14.093  20.765  26.562
95993W        W96858  11.697  19.557  28.448
95994W        W96859  14.470  19.487  25.929
95995W        W96860  12.215  20.544  26.400
95996W        W96861  13.314  19.926  28.481
95997W        W96862  13.205  19.554  28.025
95998W        W96863  11.765  19.926  28.054
95999W        W96864  13.975  21.814  27.883
96000W        W96865  13.766  18.448  28.877
96001W        W96866  11.430  18.598  28.464
96002W        W96867  11.769  19.621  27.517
96003W        W96868  12.138  19.435  25.639
96004W        W96869  10.941  21.194  28.184
96005W        W96870  12.526  19.903  27.627
96006W        W96871  12.349  18.928  25.732
96007W        W96872  11.484  19.744  26.513
96008W        W96873  11.255  21.596  27.950
96009W        W96874  14.050  19.822  26.058
96010W        W96875  14.145  18.738  28.744
96011W        W96876  13.581  20.947  26.707
96012W        W96877  11.179  19.871  28.884
96013W        W96878  14.145  18.335  26.180
96014W        W96879  13.665  20.810  26.191
96015W        W96880  12.567  19.868  26.276
96016W        W96881  13.754  18.672  25.799
96017W        W96882  13.819  19.279  27.985
96018W        W96883  11.528  19.872  27.192
96019W        W96884  11.822  20.811  26.841
96020W        W96885  13.585  19.431  26.806
96021W        W96886  12.608  18.810  27.502
96022W        W96887  14.570  20.721  28.013
96023W        W96888  14.488  18.708  27.574
96024W        W96889  11.027  21.538  26.950
96025W        W96890  11.536  20.725  26.486
96026W        W96891  11.451  18.342  29.039
96027W        W96892  12.570  21.195  29.141
96028W        W96893  14.325  20.163  26.931
96029W        W96894  13.679  20.340  25.811
96030W        W96895  12.974  21.861  28.023
96031W        W96896  13.831  20.583  29.060
96032W        W96897  12.646  18.293  26.340
96033W        W96898  13.359  19.162  27.199
96034W        W96899  11.045  20.749  27.531
96035W        W96900  12.298  18.711  26.172
96036W        W96901  12.102  20.195  29.021
96037W        W96902  13.096  19.176  26.735
96038W        W96903  13.301  20.586  27.857
96039W        W96904  11.455  21.191  28.292
96040W        W96905  12.046  21.174  29.015
96041W        W96906  11.897  18.971  26.029
96042W        W96907  13.414  19.113  26.354
96043W        W96908  13.372  21.221  28.591
96044W        W96909  12.057  19.813  27.190
96045W        W96910  11.712  21.511  28.055
96046W        W96911  14.457  21.628  25.656
96047W        W96912  11.320  20.300  28.652
96048W        W96913  13.315  20.562  27.340
96049W        W96914  11.751  20.211  26.582
96050W        W96915  12.122  21.218  27.977
96051W        W96916  12.500  18.637  27.018
96052W        W96917  11.111  20.621  25.948
96053W        W96918  12.630  19.572  25.818
96054W        W96919  11.276  20.121  26.837
96055W        W96920  12.566  18.763  28.301
96056W        W96921  14.238  18.472  25.728
96057W        W96922  14.331  20.218  28.827
96058W        W96923  12.985  21.475  28.979
96059W        W96924  14.543  20.569  28.501
96060W        W96925  13.951  21.367  29.112
96061W        W96926  11.690  21.823  27.590
96062W        W96927  14.549  20.445  26.464
96063W        W96928  13.079  19.712  26.977
96064W        W96929  12.846  18.324  26.867
96065W        W96930  11.905  21.308  26.704
96066W        W96931  12.404  19.049  27.929
96067W        W96932  12.104  18.418  27.398
96068W        W96933  11.167  21.240  25.946
96069W        W96934  12.983  20.604  26.664
96070W        W96935  11.858  21.399  28.543
96071W        W96936  11.335  20.222  26.239
96072W        W96937  11.220  18.765  27.238
96073W        W96938  12.768  20.730  27.295
96074W        W96939  11.020  18.584  26.315
96075W        W96940  13.684  19.790  28.242
96076W        W96941  13.561  19.176  25.814
96077W        W96942  14.078  20.848  27.462
96078W        W96943  12.739  21.332  27.293
96079W        W96944  12.151  21.436  26.204
96080W        W96945  13.433  18.339  25.634
96081W        W96946  11.233  21.599  27.375
96082W        W96947  13.430  19.357  29.010
96083W        W96948  11.413  18.887  29.009
96084W        W96949  11.144  19.487  26.342
96085W        W96950  11.835  19.476  26.067
96086W        W96951  13.598  19.803  28.884
96087W        W96952  11.941  20.084  27.593
96088W        W96953  13.415  18.370  26.713
96089W        W96954  12.546  21.801  27.216
96090W        W96955  13.760  21.263  28.153
96091W        W96956  13.344  21.412  27.264
96092W        W96957  13.363  20.392  26.858
96093W        W96958  12.825  18.617  25.929
96094W        W96959  14.506  18.245  26.651
96095W        W96960  12.194  19.880  25.814
96096W        W96961  14.360  19.217  26.804
96097W        W96962  13.052  20.387  25.681
96098W        W96963  13.988  20.587  28.429
96099W        W96964  13.642  21.288  25.896
96100W        W96965  12.257  18.963  28.802
96101W        W96966  12.077  19.547  28.043
96102W        W96967  14.169  21.042  28.320
96103W        W96968  13.269  18.992  28.697
96104W        W96969  11.113  19.463  28.474
96105W        W96970  12.873  19.940  28.200
96106W        W96971  11.230  20.698  26.857
96107W        W96972  11.377  19.995  27.747
96108W        W96973  13.694  20.281  28.097
96109W        W96974  13.466  21.661  28.908
96110W        W96975  13.362  19.400  28.461
96111W        W96976  13.639  21.454  26.866
96112W        W96977  12.641  21.174  28.189
96113W        W96978  12.126  21.529  27.458
96114W        W96979  13.931  20.700  27.877
96115W        W96980  12.981  20.772  29.014
96116W        W96981  11.586  20.725  27.353
96117W        W96982  13.932  20.484  26.998
96118W        W96983  13.573  21.550  27.749
96119W        W96984  11.551  21.279  27.619
96120W        W96985  12.572  19.331  28.829
96121W        W96986  13.023  21.497  26.340
96122W        W96987  12.331  20.752  28.978
96123W        W96988  12.457  20.990  26.355
96124W        W96989  11.678  19.730  25.614
96125W        W96990  11.017  25.461   3.359
96126W        W96991  11.393  24.354   2.882
96127W        W96992  14.098  24.084   0.652
96128W        W96993  14.228  25.169   2.679
96129W        W96994  12.146  25.160   0.205
96130W        W96995  12.229  23.312   1.188
96131W        W96996  11.744  23.160   1.352
96132W        W96997  12.735  23.975   0.786
96133W        W96998  12.410  25.067   3.141
96134W        W96999  11.059  22.628   3.104
96135W        W97000  11.821  21.908   2.906
96136W        W97001  13.515  22.296   1.793
96137W        W97002  13.164  23.167   0.363
96138W        W97003  13.734  22.601   3.454
96139W        W97004  11.100  22.393   2.579
96140W        W97005  11.199  25.012   3.600
96141W        W97006  12.721  24.402   0.332
96142W        W97007  11.153  23.185   2.025
96143W        W97008  12.046  23.076   3.262
96144W        W97009  14.505  22.935   1.761
96145W        W97010  14.269  23.978   2.620
96146W        W97011  12.577  23.311   1.647
96147W        W97012  13.123  24.650   2.016
96148W        W97013  11.623  24.084   2.248
96149W        W97014  10.982  23.612   1.819
96150W        W97015  12.018  23.584   3.011
96151W        W97016  14.289  23.367   3.265
96152W        W97017  11.905  24.811   1.710
96153W        W97018  13.026  24.500   2.844
96154W        W97019  12.246  23.140   2.069
96155W        W97020  12.538  23.924   1.712
96156W        W97021  13.535  24.697   3.560
96157W        W97022  12.614  24.017   3.570
96158W        W97023  12.595  23.733   3.048
96159W        W97024  11.004  23.124   3.570
96160W        W97025  13.836  24.659   3.169
96161W        W97026  11.417  22.241   1.167
96162W        W97027  11.944  24.499   2.166
96163W        W97028  14.407  24.282   1.456
96164W        W97029  13.820  22.682   2.023
96165W        W97030  14.105  22.635   0.118
96166W        W97031  14.570  23.436   2.424
96167W        W97032  12.537  25.143   2.177
96168W        W97033  14.311  24.609   0.615
96169W        W97034  11.440  25.395   0.369
96170W        W97035  11.833  25.441   1.045
96171W        W97036  11.630  22.195   2.471
96172W        W97037  14.253  23.213   2.746
96173W        W97038  13.658  23.635   1.205
96174W        W97039  13.624  23.323   0.232
96175W        W97040  12.832  24.467   2.372
96176W        W97041  12.638  22.797   1.571
96177W        W97042  13.238  24.884   2.565
96178W        W97043  14.109  23.675   0.987
96179W        W97044  13.011  22.333   1.003
96180W        W97045  11.668  25.027   0.686
96181W        W97046  11.039  22.526   1.285
96182W        W97047  13.825  23.133   1.759
96183W        W97048  11.283  24.750   1.674
96184W        W97049  12.624  25.100   0.544
96185W        W97050  14.016  23.126   0.008
96186W        W97051  11.039  24.884   2.172
96187W        W97052  11.830  24.456   2.652
96188W        W97053  12.203  23.816   1.271
96189W        W97054  12.225  22.221   2.364
96190W        W97055  14.454  21.983   1.661
96191W        W97056  11.673  23.855   0.129
96192W        W97057  11.328  22.888   0.308
96193W        W97058  11.390  24.844   1.102
96194W        W97059  12.521  24.327   1.350
96195W        W97060  13.853  25.186   3.064
96196W        W97061  12.779  22.828   0.748
96197W        W97062  14.162  25.226   1.520
96198W        W97063  13.839  23.079   3.118
96199W        W97064  14.552  24.735   1.252
96200W        W97065  13.179  24.027   2.736
96201W        W97066  10.945  23.578   0.942
96202W        W97067  12.056  23.993   2.515
96203W        W97068  13.260  23.257   0.893
96204W        W97069  13.137  23.747   0.997
96205W        W97070  11.480  23.167   2.471
96206W        W97071  11.465  23.043   3.393
96207W        W97072  11.355  21.960   1.552
96208W        W97073  13.123  22.307   2.113
96209W        W97074  12.771  22.492   3.276
96210W        W97075  13.126  22.641   0.454
96211W        W97076  14.309  25.034   3.208
96212W        W97077  13.276  22.115   3.247
96213W        W97078  14.295  24.416   3.369
96214W        W97079  13.725  22.583   2.965
96215W        W97080  13.525  22.521   1.235
96216W        W97081  13.918  23.655   3.639
96217W        W97082  11.658  25.231   1.625
96218W        W97083  12.316  22.948   0.611
96219W        W97084  11.885  22.232   3.275
96220W        W97085  13.937  22.716   0.956
96221W        W97086  14.304  23.198   0.901
96222W        W97087  12.047  25.415   3.372
96223W        W97088  11.973  21.951   0.607
96224W        W97089  14.294  22.485   1.642
96225W        W97090  14.444  24.734   0.087
96226W        W97091  11.351  23.937   1.789
96227W        W97092  13.268  22.524   0.019
96228W        W97093  14.402  24.856   1.739
96229W        W97094  14.441  22.050   2.489
96230W        W97095  12.886  23.262   3.043
96231W        W97096  12.979  24.601   0.746
96232W        W97097  13.379  23.895   3.486
96233W        W97098  13.053  21.872   1.795
96234W        W97099  11.665  22.775   1.858
96235W        W97100  11.219  23.975   2.632
96236W        W97101  13.078  25.168   1.338
96237W        W97102  14.272  22.765   2.210
96238W        W97103  12.909  25.112   2.977
96239W        W97104  14.252  24.171   0.182
96240W        W97105  12.687  23.654   1.243
96241W        W97106  14.539  22.165   2.984
96242W        W97107  12.688  24.000   2.578
96243W        W97108  12.905  22.886   2.023
96244W        W97109  13.757  23.184   0.861
96245W        W97110  14.044  22.917   0.503
96246W        W97111  13.853  24.957   0.892
96247W        W97112  13.687  24.560   1.688
96248W        W97113  13.583  23.639   0.666
96249W        W97114  13.016  23.849   1.652
96250W        W97115  13.897  23.637   1.719
96251W        W97116  11.272  22.652   2.143
96252W        W97117  14.050  23.704   2.970
96253W        W97118  14.401  25.322   2.116
96254W        W97119  12.331  24.766   1.518
96255W        W97120  13.338  25.299   2.842
96256W        W97121  13.332  22.629   2.606
96257W        W97122  12.539  25.337   2.667
96258W        W97123  14.236  22.291   1.133
96259W        W97124  14.027  23.610   2.434
96260W        W97125  11.010  22.931   2.472
96261W        W97126  13.870  22.726   1.490
96262W        W97127  14.281  22.877   3.267
96263W        W97128  13.166  24.576   1.485
96264W        W97129  12.422  25.167   1.098
96265W        W97130  11.537  22.347   0.356
96266W        W97131  12.641  22.001   2.166
96267W        W97132  11.669  25.121   0.014
96268W        W97133  12.043  23.587   0.765
96269W        W97134  12.697  24.216   3.078
96270W        W97135  12.527  22.574   1.068
96271W        W97136  13.883  22.171   1.496
96272W        W97137  13.603  25.453   1.824
96273W        W97138  13.015  25.101   2.164
96274W        W97139  12.411  24.138   2.125
96275W        W97140  14.181  24.861   2.251
96276W        W97141  11.875  22.364   1.020
96277W        W97142  12.397  24.661   1.980
96278W        W97143  11.880  22.592   0.045
96279W        W97144  12.681  23.201   2.439
96280W        W97145  13.529  22.067   2.309
96281W        W97146  10.949  23.910   2.194
96282W        W97147  12.653  23.728   0.352
96283W        W97148  11.921  22.043   0.122
96284W        W97149  12.659  23.124   1.173
96285W        W97150  13.629  22.100   2.872
96286W        W97151  12.217  24.112   2.981
96287W        W97152  13.021  23.894   3.198
96288W        W97153  13.638  23.924   3.091
96289W        W97154  12.922  22.064   3.596
96290W        W97155  12.144  22.680   1.989
96291W        W97156  11.570  22.636   1.387
96292W        W97157  11.356  25.348   1.063
96293W        W97158  12.688  24.678   3.188
96294W        W97159  11.723  24.163   0.547
96295W        W97160  13.403  23.548   1.768
96296W        W97161  13.683  23.347   2.167
96297W        W97162  12.888  24.021   2.101
96298W        W97163  13.358  24.395   0.233
96299W        W97164  13.030  22.416   1.561
96300W        W97165  14.509  22.694   0.829
96301W        W97166  11.003  25.283   2.860
96302W        W97167  11.420  24.509   2.392
96303W        W97168  10.987  25.355   0.624
96304W        W97169  12.886  22.625   2.430
96305W        W97170  12.249  24.648   0.279
96306W        W97171  14.154  25.030   0.465
96307W        W97172  13.129  23.683   0.479
96308W        W97173  11.972  22.874   0.996
96309W        W97174  12.804  22.784   0.048
96310W        W97175  13.388  24.349   3.226
96311W        W97176  13.741  22.255   0.843
96312W        W97177  11.071  22.103   0.291
96313W        W97178  12.357  24.422   2.581
96314W        W97179  12.156  24.338   1.673
96315W        W97180  11.898  24.290   0.071
96316W        W97181  11.139  24.531   0.839
96317W        W97182  11.643  23.601   3.281
96318W        W97183  12.347  22.161   3.467
96319W        W97184  13.056  22.303   2.823
96320W        W97185  12.251  22.071   1.104
96321W        W97186  13.310  22.148   0.609
96322W        W97187  11.255  22.080   2.186
96323W        W97188  11.303  23.043   1.556
96324W        W97189  13.992  22.151   1.962
96325W        W97190  11.414  22.649   0.776
96326W        W97191  13.985  22.337   2.392
96327W        W97192  14.381  23.540   0.077
96328W        W97193  11.673  22.298   1.896
96329W        W97194  12.787  22.870   2.836
96330W        W97195  10.935  22.560   0.314
96331W        W97196  11.721  23.949   2.875
96332W        W97197  13.079  23.347   2.054
96333W        W97198  12.946  25.426   0.350
96334W        W97199  11.092  23.933   0.047
96335W        W97200  11.827  24.344   3.173
96336W        W97201  11.348  23.511   2.804
96337W        W97202  12.339  23.616   2.598
96338W        W97203  14.107  21.975   2.860
96339W        W97204  14.505  23.585   2.851
96340W        W97205  14.493  23.785   0.537
96341W        W97206  13.356  24.117   0.636
96342W        W97207  13.830  25.417   0.331
96343W        W97208  13.007  23.407   3.473
96344W        W97209  11.337  24.374   3.513
96345W        W97210  14.543  22.296   3.465
96346W        W97211  14.261  23.224   2.086
96347W        W97212  12.569  25.354   3.563
96348W        W97213  12.424  21.983   0.290
96349W        W97214  13.963  24.582   0.233
96350W        W97215  11.732  22.675   3.119
96351W        W97216  12.166  24.669   2.981
96352W        W97217  14.292  22.660   2.779
96353W        W97218  13.503  25.319   0.747
96354W        W97219  13.742  23.938   2.114
96355W        W97220  11.992  22.354   2.781
96356W        W97221  12.461  23.423   3.538
96357W        W97222  11.964  24.602   0.732
96358W        W97223  13.719  24.100   0.996
96359W        W97224  11.487  22.726   2.720
96360W        W97225  12.816  24.788   1.184
96361W        W97226  14.566  23.348   1.365
96362W        W97227  12.788  21.981   3.084
96363W        W97228  13.568  24.686   2.163
96364W        W97229  13.871  25.030   1.871
96365W        W97230  13.090  24.832   0.299
96366W        W97231  11.100  24.724   3.141
96367W        W97232  11.843  22.716   2.379
96368W        W97233  11.813  22.064   1.489
96369W        W97234  13.434  22.906   2.181
96370W        W97235  12.232  24.077   0.381
96371W        W97236  14.230  24.019   1.880
96372W        W97237  11.557  24.777   3.303
96373W        W97238  13.944  25.459   1.100
96374W        W97239  12.043  22.479   1.545
96375W        W97240  11.812  23.972   1.635
96376W        W97241  12.125  25.383   2.385
96377W        W97242  14.192  25.479   3.417
96378W        W97243  13.351  23.667   2.350
96379W        W97244  11.200  23.465   0.265
96380W        W97245  14.334  25.123   0.962
96381W        W97246  14.171  22.447   0.581
96382W        W97247  12.310  21.966   2.984
96383W        W97248  14.016  24.768   1.442
96384W        W97249  14.045  23.324   1.347
96385W        W97250  12.162  22.997   1.563
96386W        W97251  12.407  23.259   2.887
96387W        W97252  13.518  24.412   2.750
96388W        W97253  12.168  22.866   2.862
96389W        W97254  12.147  25.332   1.478
96390W        W97255  11.464  25.291   3.112
96391W        W97256  11.576  24.652   0.242
96392W        W97257  14.093  24.410   1.052
96393W        W97258  11.697  23.202   2.938
96394W        W97259  14.470  23.132   0.419
96395W        W97260  12.215  24.189   0.890
96396W        W97261  13.314  23.571   2.971
96397W        W97262  13.205  23.199   2.515
96398W        W97263  11.765  23.571   2.544
96399W        W97264  13.975  25.459   2.373
96400W        W97265  13.766  22.093   3.367
96401W        W97266  11.430  22.243   2.954
96402W        W97267  11.769  23.266   2.007
96403W        W97268  12.138  23.080   0.129
96404W        W97269  10.941  24.839   2.674
96405W        W97270  12.526  23.548   2.117
96406W        W97271  12.349  22.573   0.222
96407W        W97272  11.484  23.389   1.003
96408W        W97273  11.255  25.241   2.440
96409W        W97274  14.050  23.467   0.548
96410W        W97275  14.145  22.383   3.234
96411W        W97276  13.581  24.592   1.197
96412W        W97277  11.179  23.516   3.374
96413W        W97278  14.145  21.980   0.670
96414W        W97279  13.665  24.455   0.681
96415W        W97280  12.567  23.513   0.766
96416W        W97281  13.754  22.317   0.289
96417W        W97282  13.819  22.924   2.475
96418W        W97283  11.528  23.517   1.682
96419W        W97284  11.822  24.456   1.331
96420W        W97285  13.585  23.076   1.296
96421W        W97286  12.608  22.455   1.992
96422W        W97287  14.570  24.366   2.503
96423W        W97288  14.488  22.353   2.064
96424W        W97289  11.027  25.183   1.440
96425W        W97290  11.536  24.370   0.976
96426W        W97291  11.451  21.987   3.529
96427W        W97292  12.570  24.840   3.631
96428W        W97293  14.325  23.808   1.421
96429W        W97294  13.679  23.985   0.301
96430W        W97295  12.974  25.506   2.513
96431W        W97296  13.831  24.228   3.550
96432W        W97297  12.646  21.938   0.830
96433W        W97298  13.359  22.807   1.689
96434W        W97299  11.045  24.394   2.021
96435W        W97300  12.298  22.356   0.662
96436W        W97301  12.102  23.840   3.511
96437W        W97302  13.096  22.821   1.225
96438W        W97303  13.301  24.231   2.347
96439W        W97304  11.455  24.836   2.782
96440W        W97305  12.046  24.819   3.505
96441W        W97306  11.897  22.616   0.519
96442W        W97307  13.414  22.758   0.844
96443W        W97308  13.372  24.866   3.081
96444W        W97309  12.057  23.458   1.680
96445W        W97310  11.712  25.156   2.545
96446W        W97311  14.457  25.273   0.146
96447W        W97312  11.320  23.945   3.142
96448W        W97313  13.315  24.207   1.830
96449W        W97314  11.751  23.856   1.072
96450W        W97315  12.122  24.863   2.467
96451W        W97316  12.500  22.282   1.508
96452W        W97317  11.111  24.266   0.438
96453W        W97318  12.630  23.217   0.308
96454W        W97319  11.276  23.766   1.327
96455W        W97320  12.566  22.408   2.791
96456W        W97321  14.238  22.117   0.218
96457W        W97322  14.331  23.863   3.317
96458W        W97323  12.985  25.120   3.469
96459W        W97324  14.543  24.214   2.991
96460W        W97325  13.951  25.012   3.602
96461W        W97326  11.690  25.468   2.080
96462W        W97327  14.549  24.090   0.954
96463W        W97328  13.079  23.357   1.467
96464W        W97329  12.846  21.969   1.357
96465W        W97330  11.905  24.953   1.194
96466W        W97331  12.404  22.694   2.419
96467W        W97332  12.104  22.063   1.888
96468W        W97333  11.167  24.885   0.436
96469W        W97334  12.983  24.249   1.154
96470W        W97335  11.858  25.044   3.033
96471W        W97336  11.335  23.867   0.729
96472W        W97337  11.220  22.410   1.728
96473W        W97338  12.768  24.375   1.785
96474W        W97339  11.020  22.229   0.805
96475W        W97340  13.684  23.435   2.732
96476W        W97341  13.561  22.821   0.304
96477W        W97342  14.078  24.493   1.952
96478W        W97343  12.739  24.977   1.783
96479W        W97344  12.151  25.081   0.694
96480W        W97345  13.433  21.984   0.124
96481W        W97346  11.233  25.244   1.865
96482W        W97347  13.430  23.002   3.500
96483W        W97348  11.413  22.532   3.499
96484W        W97349  11.144  23.132   0.832
96485W        W97350  11.835  23.121   0.557
96486W        W97351  13.598  23.448   3.374
96487W        W97352  11.941  23.729   2.083
96488W        W97353  13.415  22.015   1.203
96489W        W97354  12.546  25.446   1.706
96490W        W97355  13.760  24.908   2.643
96491W        W97356  13.344  25.057   1.754
96492W        W97357  13.363  24.037   1.348
96493W        W97358  12.825  22.262   0.419
96494W        W97359  14.506  21.890   1.141
96495W        W97360  12.194  23.525   0.304
96496W        W97361  14.360  22.862   1.294
96497W        W97362  13.052  24.032   0.171
96498W        W97363  13.988  24.232   2.919
96499W        W97364  13.642  24.933   0.386
96500W        W97365  12.257  22.608   3.292
96501W        W97366  12.077  23.192   2.533
96502W        W97367  14.169  24.687   2.810
96503W        W97368  13.269  22.637   3.187
96504W        W97369  11.113  23.108   2.964
96505W        W97370  12.873  23.585   2.690
96506W        W97371  11.230  24.343   1.347
96507W        W97372  11.377  23.640   2.237
96508W        W97373  13.694  23.926   2.587
96509W        W97374  13.466  25.306   3.398
96510W        W97375  13.362  23.045   2.951
96511W        W97376  13.639  25.099   1.356
96512W        W97377  12.641  24.819   2.679
96513W        W97378  12.126  25.174   1.948
96514W        W97379  13.931  24.345   2.367
96515W        W97380  12.981  24.417   3.504
96516W        W97381  11.586  24.370   1.843
96517W        W97382  13.932  24.129   1.488
96518W        W97383  13.573  25.195   2.239
96519W        W97384  11.551  24.924   2.109
96520W        W97385  12.572  22.976   3.319
96521W        W97386  13.023  25.142   0.830
96522W        W97387  12.331  24.397   3.468
96523W        W97388  12.457  24.635   0.845
96524W        W97389  11.678  23.375   0.104
96525W        W97390  11.017  25.461   7.003
96526W        W97391  11.393  24.354   6.526
96527W        W97392  14.098  24.084   4.296
96528W        W97393  14.228  25.169   6.323
96529W        W97394  12.146  25.160   3.849
96530W        W97395  12.229  23.312   4.832
96531W        W97396  11.744  23.160   4.996
96532W        W97397  12.735  23.975   4.430
96533W        W97398  12.410  25.067   6.785
96534W        W97399  11.059  22.628   6.748
96535W        W97400  11.821  21.908   6.550
96536W        W97401  13.515  22.296   5.437
96537W        W97402  13.164  23.167   4.007
96538W        W97403  13.734  22.601   7.098
96539W        W97404  11.100  22.393   6.223
96540W        W97405  11.199  25.012   7.244
96541W        W97406  12.721  24.402   3.976
96542W        W97407  11.153  23.185   5.669
96543W        W97408  12.046  23.076   6.906
96544W        W97409  14.505  22.935   5.405
96545W        W97410  14.269  23.978   6.264
96546W        W97411  12.577  23.311   5.291
96547W        W97412  13.123  24.650   5.660
96548W        W97413  11.623  24.084   5.892
96549W        W97414  10.982  23.612   5.463
96550W        W97415  12.018  23.584   6.655
96551W        W97416  14.289  23.367   6.909
96552W        W97417  11.905  24.811   5.354
96553W        W97418  13.026  24.500   6.488
96554W        W97419  12.246  23.140   5.713
96555W        W97420  12.538  23.924   5.356
96556W        W97421  13.535  24.697   7.204
96557W        W97422  12.614  24.017   7.214
96558W        W97423  12.595  23.733   6.692
96559W        W97424  11.004  23.124   7.214
96560W        W97425  13.836  24.659   6.813
96561W        W97426  11.417  22.241   4.811
96562W        W97427  11.944  24.499   5.810
96563W        W97428  14.407  24.282   5.100
96564W        W97429  13.820  22.682   5.667
96565W        W97430  14.105  22.635   3.762
96566W        W97431  14.570  23.436   6.068
96567W        W97432  12.537  25.143   5.821
96568W        W97433  14.311  24.609   4.259
96569W        W97434  11.440  25.395   4.013
96570W        W97435  11.833  25.441   4.689
96571W        W97436  11.630  22.195   6.115
96572W        W97437  14.253  23.213   6.390
96573W        W97438  13.658  23.635   4.849
96574W        W97439  13.624  23.323   3.876
96575W        W97440  12.832  24.467   6.016
96576W        W97441  12.638  22.797   5.215
96577W        W97442  13.238  24.884   6.209
96578W        W97443  14.109  23.675   4.631
96579W        W97444  13.011  22.333   4.647
96580W        W97445  11.668  25.027   4.330
96581W        W97446  11.039  22.526   4.929
96582W        W97447  13.825  23.133   5.403
96583W        W97448  11.283  24.750   5.318
96584W        W97449  12.624  25.100   4.188
96585W        W97450  14.016  23.126   3.652
96586W        W97451  11.039  24.884   5.816
96587W        W97452  11.830  24.456   6.296
96588W        W97453  12.203  23.816   4.915
96589W        W97454  12.225  22.221   6.008
96590W        W97455  14.454  21.983   5.305
96591W        W97456  11.673  23.855   3.773
96592W        W97457  11.328  22.888   3.952
96593W        W97458  11.390  24.844   4.746
96594W        W97459  12.521  24.327   4.994
96595W        W97460  13.853  25.186   6.708
96596W        W97461  12.779  22.828   4.392
96597W        W97462  14.162  25.226   5.164
96598W        W97463  13.839  23.079   6.762
96599W        W97464  14.552  24.735   4.896
96600W        W97465  13.179  24.027   6.380
96601W        W97466  10.945  23.578   4.586
96602W        W97467  12.056  23.993   6.159
96603W        W97468  13.260  23.257   4.537
96604W        W97469  13.137  23.747   4.641
96605W        W97470  11.480  23.167   6.115
96606W        W97471  11.465  23.043   7.037
96607W        W97472  11.355  21.960   5.196
96608W        W97473  13.123  22.307   5.757
96609W        W97474  12.771  22.492   6.920
96610W        W97475  13.126  22.641   4.098
96611W        W97476  14.309  25.034   6.852
96612W        W97477  13.276  22.115   6.891
96613W        W97478  14.295  24.416   7.013
96614W        W97479  13.725  22.583   6.609
96615W        W97480  13.525  22.521   4.879
96616W        W97481  13.918  23.655   7.283
96617W        W97482  11.658  25.231   5.269
96618W        W97483  12.316  22.948   4.255
96619W        W97484  11.885  22.232   6.919
96620W        W97485  13.937  22.716   4.600
96621W        W97486  14.304  23.198   4.545
96622W        W97487  12.047  25.415   7.016
96623W        W97488  11.973  21.951   4.251
96624W        W97489  14.294  22.485   5.286
96625W        W97490  14.444  24.734   3.731
96626W        W97491  11.351  23.937   5.433
96627W        W97492  13.268  22.524   3.663
96628W        W97493  14.402  24.856   5.383
96629W        W97494  14.441  22.050   6.133
96630W        W97495  12.886  23.262   6.687
96631W        W97496  12.979  24.601   4.390
96632W        W97497  13.379  23.895   7.130
96633W        W97498  13.053  21.872   5.439
96634W        W97499  11.665  22.775   5.502
96635W        W97500  11.219  23.975   6.276
96636W        W97501  13.078  25.168   4.982
96637W        W97502  14.272  22.765   5.854
96638W        W97503  12.909  25.112   6.621
96639W        W97504  14.252  24.171   3.826
96640W        W97505  12.687  23.654   4.887
96641W        W97506  14.539  22.165   6.628
96642W        W97507  12.688  24.000   6.222
96643W        W97508  12.905  22.886   5.667
96644W        W97509  13.757  23.184   4.505
96645W        W97510  14.044  22.917   4.147
96646W        W97511  13.853  24.957   4.536
96647W        W97512  13.687  24.560   5.332
96648W        W97513  13.583  23.639   4.310
96649W        W97514  13.016  23.849   5.296
96650W        W97515  13.897  23.637   5.363
96651W        W97516  11.272  22.652   5.787
96652W        W97517  14.050  23.704   6.614
96653W        W97518  14.401  25.322   5.760
96654W        W97519  12.331  24.766   5.162
96655W        W97520  13.338  25.299   6.486
96656W        W97521  13.332  22.629   6.250
96657W        W97522  12.539  25.337   6.311
96658W        W97523  14.236  22.291   4.777
96659W        W97524  14.027  23.610   6.078
96660W        W97525  11.010  22.931   6.116
96661W        W97526  13.870  22.726   5.134
96662W        W97527  14.281  22.877   6.911
96663W        W97528  13.166  24.576   5.129
96664W        W97529  12.422  25.167   4.742
96665W        W97530  11.537  22.347   4.000
96666W        W97531  12.641  22.001   5.810
96667W        W97532  11.669  25.121   3.658
96668W        W97533  12.043  23.587   4.409
96669W        W97534  12.697  24.216   6.722
96670W        W97535  12.527  22.574   4.712
96671W        W97536  13.883  22.171   5.140
96672W        W97537  13.603  25.453   5.468
96673W        W97538  13.015  25.101   5.808
96674W        W97539  12.411  24.138   5.769
96675W        W97540  14.181  24.861   5.895
96676W        W97541  11.875  22.364   4.664
96677W        W97542  12.397  24.661   5.624
96678W        W97543  11.880  22.592   3.689
96679W        W97544  12.681  23.201   6.083
96680W        W97545  13.529  22.067   5.953
96681W        W97546  10.949  23.910   5.838
96682W        W97547  12.653  23.728   3.996
96683W        W97548  11.921  22.043   3.766
96684W        W97549  12.659  23.124   4.817
96685W        W97550  13.629  22.100   6.516
96686W        W97551  12.217  24.112   6.625
96687W        W97552  13.021  23.894   6.842
96688W        W97553  13.638  23.924   6.735
96689W        W97554  12.922  22.064   7.240
96690W        W97555  12.144  22.680   5.633
96691W        W97556  11.570  22.636   5.031
96692W        W97557  11.356  25.348   4.707
96693W        W97558  12.688  24.678   6.832
96694W        W97559  11.723  24.163   4.191
96695W        W97560  13.403  23.548   5.412
96696W        W97561  13.683  23.347   5.811
96697W        W97562  12.888  24.021   5.745
96698W        W97563  13.358  24.395   3.877
96699W        W97564  13.030  22.416   5.205
96700W        W97565  14.509  22.694   4.473
96701W        W97566  11.003  25.283   6.504
96702W        W97567  11.420  24.509   6.036
96703W        W97568  10.987  25.355   4.268
96704W        W97569  12.886  22.625   6.074
96705W        W97570  12.249  24.648   3.923
96706W        W97571  14.154  25.030   4.109
96707W        W97572  13.129  23.683   4.123
96708W        W97573  11.972  22.874   4.640
96709W        W97574  12.804  22.784   3.692
96710W        W97575  13.388  24.349   6.870
96711W        W97576  13.741  22.255   4.487
96712W        W97577  11.071  22.103   3.935
96713W        W97578  12.357  24.422   6.225
96714W        W97579  12.156  24.338   5.317
96715W        W97580  11.898  24.290   3.715
96716W        W97581  11.139  24.531   4.483
96717W        W97582  11.643  23.601   6.925
96718W        W97583  12.347  22.161   7.111
96719W        W97584  13.056  22.303   6.467
96720W        W97585  12.251  22.071   4.748
96721W        W97586  13.310  22.148   4.253
96722W        W97587  11.255  22.080   5.830
96723W        W97588  11.303  23.043   5.200
96724W        W97589  13.992  22.151   5.606
96725W        W97590  11.414  22.649   4.420
96726W        W97591  13.985  22.337   6.036
96727W        W97592  14.381  23.540   3.721
96728W        W97593  11.673  22.298   5.540
96729W        W97594  12.787  22.870   6.480
96730W        W97595  10.935  22.560   3.958
96731W        W97596  11.721  23.949   6.519
96732W        W97597  13.079  23.347   5.698
96733W        W97598  12.946  25.426   3.994
96734W        W97599  11.092  23.933   3.691
96735W        W97600  11.827  24.344   6.817
96736W        W97601  11.348  23.511   6.448
96737W        W97602  12.339  23.616   6.242
96738W        W97603  14.107  21.975   6.504
96739W        W97604  14.505  23.585   6.495
96740W        W97605  14.493  23.785   4.181
96741W        W97606  13.356  24.117   4.280
96742W        W97607  13.830  25.417   3.975
96743W        W97608  13.007  23.407   7.117
96744W        W97609  11.337  24.374   7.157
96745W        W97610  14.543  22.296   7.109
96746W        W97611  14.261  23.224   5.730
96747W        W97612  12.569  25.354   7.207
96748W        W97613  12.424  21.983   3.934
96749W        W97614  13.963  24.582   3.877
96750W        W97615  11.732  22.675   6.763
96751W        W97616  12.166  24.669   6.625
96752W        W97617  14.292  22.660   6.423
96753W        W97618  13.503  25.319   4.391
96754W        W97619  13.742  23.938   5.758
96755W        W97620  11.992  22.354   6.425
96756W        W97621  12.461  23.423   7.182
96757W        W97622  11.964  24.602   4.376
96758W        W97623  13.719  24.100   4.640
96759W        W97624  11.487  22.726   6.364
96760W        W97625  12.816  24.788   4.828
96761W        W97626  14.566  23.348   5.009
96762W        W97627  12.788  21.981   6.728
96763W        W97628  13.568  24.686   5.807
96764W        W97629  13.871  25.030   5.515
96765W        W97630  13.090  24.832   3.943
96766W        W97631  11.100  24.724   6.785
96767W        W97632  11.843  22.716   6.023
96768W        W97633  11.813  22.064   5.133
96769W        W97634  13.434  22.906   5.825
96770W        W97635  12.232  24.077   4.025
96771W        W97636  14.230  24.019   5.524
96772W        W97637  11.557  24.777   6.947
96773W        W97638  13.944  25.459   4.744
96774W        W97639  12.043  22.479   5.189
96775W        W97640  11.812  23.972   5.279
96776W        W97641  12.125  25.383   6.029
96777W        W97642  14.192  25.479   7.061
96778W        W97643  13.351  23.667   5.994
96779W        W97644  11.200  23.465   3.909
96780W        W97645  14.334  25.123   4.606
96781W        W97646  14.171  22.447   4.225
96782W        W97647  12.310  21.966   6.628
96783W        W97648  14.016  24.768   5.086
96784W        W97649  14.045  23.324   4.991
96785W        W97650  12.162  22.997   5.207
96786W        W97651  12.407  23.259   6.531
96787W        W97652  13.518  24.412   6.394
96788W        W97653  12.168  22.866   6.506
96789W        W97654  12.147  25.332   5.122
96790W        W97655  11.464  25.291   6.756
96791W        W97656  11.576  24.652   3.886
96792W        W97657  14.093  24.410   4.696
96793W        W97658  11.697  23.202   6.582
96794W        W97659  14.470  23.132   4.063
96795W        W97660  12.215  24.189   4.534
96796W        W97661  13.314  23.571   6.615
96797W        W97662  13.205  23.199   6.159
96798W        W97663  11.765  23.571   6.188
96799W        W97664  13.975  25.459   6.017
96800W        W97665  13.766  22.093   7.011
96801W        W97666  11.430  22.243   6.598
96802W        W97667  11.769  23.266   5.651
96803W        W97668  12.138  23.080   3.773
96804W        W97669  10.941  24.839   6.318
96805W        W97670  12.526  23.548   5.761
96806W        W97671  12.349  22.573   3.866
96807W        W97672  11.484  23.389   4.647
96808W        W97673  11.255  25.241   6.084
96809W        W97674  14.050  23.467   4.192
96810W        W97675  14.145  22.383   6.878
96811W        W97676  13.581  24.592   4.841
96812W        W97677  11.179  23.516   7.018
96813W        W97678  14.145  21.980   4.314
96814W        W97679  13.665  24.455   4.325
96815W        W97680  12.567  23.513   4.410
96816W        W97681  13.754  22.317   3.933
96817W        W97682  13.819  22.924   6.119
96818W        W97683  11.528  23.517   5.326
96819W        W97684  11.822  24.456   4.975
96820W        W97685  13.585  23.076   4.940
96821W        W97686  12.608  22.455   5.636
96822W        W97687  14.570  24.366   6.147
96823W        W97688  14.488  22.353   5.708
96824W        W97689  11.027  25.183   5.084
96825W        W97690  11.536  24.370   4.620
96826W        W97691  11.451  21.987   7.173
96827W        W97692  12.570  24.840   7.275
96828W        W97693  14.325  23.808   5.065
96829W        W97694  13.679  23.985   3.945
96830W        W97695  12.974  25.506   6.157
96831W        W97696  13.831  24.228   7.194
96832W        W97697  12.646  21.938   4.474
96833W        W97698  13.359  22.807   5.333
96834W        W97699  11.045  24.394   5.665
96835W        W97700  12.298  22.356   4.306
96836W        W97701  12.102  23.840   7.155
96837W        W97702  13.096  22.821   4.869
96838W        W97703  13.301  24.231   5.991
96839W        W97704  11.455  24.836   6.426
96840W        W97705  12.046  24.819   7.149
96841W        W97706  11.897  22.616   4.163
96842W        W97707  13.414  22.758   4.488
96843W        W97708  13.372  24.866   6.725
96844W        W97709  12.057  23.458   5.324
96845W        W97710  11.712  25.156   6.189
96846W        W97711  14.457  25.273   3.790
96847W        W97712  11.320  23.945   6.786
96848W        W97713  13.315  24.207   5.474
96849W        W97714  11.751  23.856   4.716
96850W        W97715  12.122  24.863   6.111
96851W        W97716  12.500  22.282   5.152
96852W        W97717  11.111  24.266   4.082
96853W        W97718  12.630  23.217   3.952
96854W        W97719  11.276  23.766   4.971
96855W        W97720  12.566  22.408   6.435
96856W        W97721  14.238  22.117   3.862
96857W        W97722  14.331  23.863   6.961
96858W        W97723  12.985  25.120   7.113
96859W        W97724  14.543  24.214   6.635
96860W        W97725  13.951  25.012   7.246
96861W        W97726  11.690  25.468   5.724
96862W        W97727  14.549  24.090   4.598
96863W        W97728  13.079  23.357   5.111
96864W        W97729  12.846  21.969   5.001
96865W        W97730  11.905  24.953   4.838
96866W        W97731  12.404  22.694   6.063
96867W        W97732  12.104  22.063   5.532
96868W        W97733  11.167  24.885   4.080
96869W        W97734  12.983  24.249   4.798
96870W        W97735  11.858  25.044   6.677
96871W        W97736  11.335  23.867   4.373
96872W        W97737  11.220  22.410   5.372
96873W        W97738  12.768  24.375   5.429
96874W        W97739  11.020  22.229   4.449
96875W        W97740  13.684  23.435   6.376
96876W        W97741  13.561  22.821   3.948
96877W        W97742  14.078  24.493   5.596
96878W        W97743  12.739  24.977   5.427
96879W        W97744  12.151  25.081   4.338
96880W        W97745  13.433  21.984   3.768
96881W        W97746  11.233  25.244   5.509
96882W        W97747  13.430  23.002   7.144
96883W        W97748  11.413  22.532   7.143
96884W        W97749  11.144  23.132   4.476
96885W        W97750  11.835  23.121   4.201
96886W        W97751  13.598  23.448   7.018
96887W        W97752  11.941  23.729   5.727
96888W        W97753  13.415  22.015   4.847
96889W        W97754  12.546  25.446   5.350
96890W        W97755  13.760  24.908   6.287
96891W        W97756  13.344  25.057   5.398
96892W        W97757  13.363  24.037   4.992
96893W        W97758  12.825  22.262   4.063
96894W        W97759  14.506  21.890   4.785
96895W        W97760  12.194  23.525   3.948
96896W        W97761  14.360  22.862   4.938
96897W        W97762  13.052  24.032   3.815
96898W        W97763  13.988  24.232   6.563
96899W        W97764  13.642  24.933   4.030
96900W        W97765  12.257  22.608   6.936
96901W        W97766  12.077  23.192   6.177
96902W        W97767  14.169  24.687   6.454
96903W        W97768  13.269  22.637   6.831
96904W        W97769  11.113  23.108   6.608
96905W        W97770  12.873  23.585   6.334
96906W        W97771  11.230  24.343   4.991
96907W        W97772  11.377  23.640   5.881
96908W        W97773  13.694  23.926   6.231
96909W        W97774  13.466  25.306   7.042
96910W        W97775  13.362  23.045   6.595
96911W        W97776  13.639  25.099   5.000
96912W        W97777  12.641  24.819   6.323
96913W        W97778  12.126  25.174   5.592
96914W        W97779  13.931  24.345   6.011
96915W        W97780  12.981  24.417   7.148
96916W        W97781  11.586  24.370   5.487
96917W        W97782  13.932  24.129   5.132
96918W        W97783  13.573  25.195   5.883
96919W        W97784  11.551  24.924   5.753
96920W        W97785  12.572  22.976   6.963
96921W        W97786  13.023  25.142   4.474
96922W        W97787  12.331  24.397   7.112
96923W        W97788  12.457  24.635   4.489
96924W        W97789  11.678  23.375   3.748
96925W        W97790  11.017  25.461  10.648
96926W        W97791  11.393  24.354  10.171
96927W        W97792  14.098  24.084   7.941
96928W        W97793  14.228  25.169   9.968
96929W        W97794  12.146  25.160   7.494
96930W        W97795  12.229  23.312   8.477
96931W        W97796  11.744  23.160   8.641
96932W        W97797  12.735  23.975   8.075
96933W        W97798  12.410  25.067  10.430
96934W        W97799  11.059  22.628  10.393
96935W        W97800  11.821  21.908  10.195
96936W        W97801  13.515  22.296   9.082
96937W        W97802  13.164  23.167   7.652
96938W        W97803  13.734  22.601  10.743
96939W        W97804  11.100  22.393   9.868
96940W        W97805  11.199  25.012  10.889
96941W        W97806  12.721  24.402   7.621
96942W        W97807  11.153  23.185   9.314
96943W        W97808  12.046  23.076  10.551
96944W        W97809  14.505  22.935   9.050
96945W        W97810  14.269  23.978   9.909
96946W        W97811  12.577  23.311   8.936
96947W        W97812  13.123  24.650   9.305
96948W        W97813  11.623  24.084   9.537
96949W        W97814  10.982  23.612   9.108
96950W        W97815  12.018  23.584  10.300
96951W        W97816  14.289  23.367  10.554
96952W        W97817  11.905  24.811   8.999
96953W        W97818  13.026  24.500  10.133
96954W        W97819  12.246  23.140   9.358
96955W        W97820  12.538  23.924   9.001
96956W        W97821  13.535  24.697  10.849
96957W        W97822  12.614  24.017  10.859
96958W        W97823  12.595  23.733  10.337
96959W        W97824  11.004  23.124  10.859
96960W        W97825  13.836  24.659  10.458
96961W        W97826  11.417  22.241   8.456
96962W        W97827  11.944  24.499   9.455
96963W        W97828  14.407  24.282   8.745
96964W        W97829  13.820  22.682   9.312
96965W        W97830  14.105  22.635   7.407
96966W        W97831  14.570  23.436   9.713
96967W        W97832  12.537  25.143   9.466
96968W        W97833  14.311  24.609   7.904
96969W        W97834  11.440  25.395   7.658
96970W        W97835  11.833  25.441   8.334
96971W        W97836  11.630  22.195   9.760
96972W        W97837  14.253  23.213  10.035
96973W        W97838  13.658  23.635   8.494
96974W        W97839  13.624  23.323   7.521
96975W        W97840  12.832  24.467   9.661
96976W        W97841  12.638  22.797   8.860
96977W        W97842  13.238  24.884   9.854
96978W        W97843  14.109  23.675   8.276
96979W        W97844  13.011  22.333   8.292
96980W        W97845  11.668  25.027   7.975
96981W        W97846  11.039  22.526   8.574
96982W        W97847  13.825  23.133   9.048
96983W        W97848  11.283  24.750   8.963
96984W        W97849  12.624  25.100   7.833
96985W        W97850  14.016  23.126   7.297
96986W        W97851  11.039  24.884   9.461
96987W        W97852  11.830  24.456   9.941
96988W        W97853  12.203  23.816   8.560
96989W        W97854  12.225  22.221   9.653
96990W        W97855  14.454  21.983   8.950
96991W        W97856  11.673  23.855   7.418
96992W        W97857  11.328  22.888   7.597
96993W        W97858  11.390  24.844   8.391
96994W        W97859  12.521  24.327   8.639
96995W        W97860  13.853  25.186  10.353
96996W        W97861  12.779  22.828   8.037
96997W        W97862  14.162  25.226   8.809
96998W        W97863  13.839  23.079  10.407
96999W        W97864  14.552  24.735   8.541
97000W        W97865  13.179  24.027  10.025
97001W        W97866  10.945  23.578   8.231
97002W        W97867  12.056  23.993   9.804
97003W        W97868  13.260  23.257   8.182
97004W        W97869  13.137  23.747   8.286
97005W        W97870  11.480  23.167   9.760
97006W        W97871  11.465  23.043  10.682
97007W        W97872  11.355  21.960   8.841
97008W        W97873  13.123  22.307   9.402
97009W        W97874  12.771  22.492  10.565
97010W        W97875  13.126  22.641   7.743
97011W        W97876  14.309  25.034  10.497
97012W        W97877  13.276  22.115  10.536
97013W        W97878  14.295  24.416  10.658
97014W        W97879  13.725  22.583  10.254
97015W        W97880  13.525  22.521   8.524
97016W        W97881  13.918  23.655  10.928
97017W        W97882  11.658  25.231   8.914
97018W        W97883  12.316  22.948   7.900
97019W        W97884  11.885  22.232  10.564
97020W        W97885  13.937  22.716   8.245
97021W        W97886  14.304  23.198   8.190
97022W        W97887  12.047  25.415  10.661
97023W        W97888  11.973  21.951   7.896
97024W        W97889  14.294  22.485   8.931
97025W        W97890  14.444  24.734   7.376
97026W        W97891  11.351  23.937   9.078
97027W        W97892  13.268  22.524   7.308
97028W        W97893  14.402  24.856   9.028
97029W        W97894  14.441  22.050   9.778
97030W        W97895  12.886  23.262  10.332
97031W        W97896  12.979  24.601   8.035
97032W        W97897  13.379  23.895  10.775
97033W        W97898  13.053  21.872   9.084
97034W        W97899  11.665  22.775   9.147
97035W        W97900  11.219  23.975   9.921
97036W        W97901  13.078  25.168   8.627
97037W        W97902  14.272  22.765   9.499
97038W        W97903  12.909  25.112  10.266
97039W        W97904  14.252  24.171   7.471
97040W        W97905  12.687  23.654   8.532
97041W        W97906  14.539  22.165  10.273
97042W        W97907  12.688  24.000   9.867
97043W        W97908  12.905  22.886   9.312
97044W        W97909  13.757  23.184   8.150
97045W        W97910  14.044  22.917   7.792
97046W        W97911  13.853  24.957   8.181
97047W        W97912  13.687  24.560   8.977
97048W        W97913  13.583  23.639   7.955
97049W        W97914  13.016  23.849   8.941
97050W        W97915  13.897  23.637   9.008
97051W        W97916  11.272  22.652   9.432
97052W        W97917  14.050  23.704  10.259
97053W        W97918  14.401  25.322   9.405
97054W        W97919  12.331  24.766   8.807
97055W        W97920  13.338  25.299  10.131
97056W        W97921  13.332  22.629   9.895
97057W        W97922  12.539  25.337   9.956
97058W        W97923  14.236  22.291   8.422
97059W        W97924  14.027  23.610   9.723
97060W        W97925  11.010  22.931   9.761
97061W        W97926  13.870  22.726   8.779
97062W        W97927  14.281  22.877  10.556
97063W        W97928  13.166  24.576   8.774
97064W        W97929  12.422  25.167   8.387
97065W        W97930  11.537  22.347   7.645
97066W        W97931  12.641  22.001   9.455
97067W        W97932  11.669  25.121   7.303
97068W        W97933  12.043  23.587   8.054
97069W        W97934  12.697  24.216  10.367
97070W        W97935  12.527  22.574   8.357
97071W        W97936  13.883  22.171   8.785
97072W        W97937  13.603  25.453   9.113
97073W        W97938  13.015  25.101   9.453
97074W        W97939  12.411  24.138   9.414
97075W        W97940  14.181  24.861   9.540
97076W        W97941  11.875  22.364   8.309
97077W        W97942  12.397  24.661   9.269
97078W        W97943  11.880  22.592   7.334
97079W        W97944  12.681  23.201   9.728
97080W        W97945  13.529  22.067   9.598
97081W        W97946  10.949  23.910   9.483
97082W        W97947  12.653  23.728   7.641
97083W        W97948  11.921  22.043   7.411
97084W        W97949  12.659  23.124   8.462
97085W        W97950  13.629  22.100  10.161
97086W        W97951  12.217  24.112  10.270
97087W        W97952  13.021  23.894  10.487
97088W        W97953  13.638  23.924  10.380
97089W        W97954  12.922  22.064  10.885
97090W        W97955  12.144  22.680   9.278
97091W        W97956  11.570  22.636   8.676
97092W        W97957  11.356  25.348   8.352
97093W        W97958  12.688  24.678  10.477
97094W        W97959  11.723  24.163   7.836
97095W        W97960  13.403  23.548   9.057
97096W        W97961  13.683  23.347   9.456
97097W        W97962  12.888  24.021   9.390
97098W        W97963  13.358  24.395   7.522
97099W        W97964  13.030  22.416   8.850
97100W        W97965  14.509  22.694   8.118
97101W        W97966  11.003  25.283  10.149
97102W        W97967  11.420  24.509   9.681
97103W        W97968  10.987  25.355   7.913
97104W        W97969  12.886  22.625   9.719
97105W        W97970  12.249  24.648   7.568
97106W        W97971  14.154  25.030   7.754
97107W        W97972  13.129  23.683   7.768
97108W        W97973  11.972  22.874   8.285
97109W        W97974  12.804  22.784   7.337
97110W        W97975  13.388  24.349  10.515
97111W        W97976  13.741  22.255   8.132
97112W        W97977  11.071  22.103   7.580
97113W        W97978  12.357  24.422   9.870
97114W        W97979  12.156  24.338   8.962
97115W        W97980  11.898  24.290   7.360
97116W        W97981  11.139  24.531   8.128
97117W        W97982  11.643  23.601  10.570
97118W        W97983  12.347  22.161  10.756
97119W        W97984  13.056  22.303  10.112
97120W        W97985  12.251  22.071   8.393
97121W        W97986  13.310  22.148   7.898
97122W        W97987  11.255  22.080   9.475
97123W        W97988  11.303  23.043   8.845
97124W        W97989  13.992  22.151   9.251
97125W        W97990  11.414  22.649   8.065
97126W        W97991  13.985  22.337   9.681
97127W        W97992  14.381  23.540   7.366
97128W        W97993  11.673  22.298   9.185
97129W        W97994  12.787  22.870  10.125
97130W        W97995  10.935  22.560   7.603
97131W        W97996  11.721  23.949  10.164
97132W        W97997  13.079  23.347   9.343
97133W        W97998  12.946  25.426   7.639
97134W        W97999  11.092  23.933   7.336
97135W        W98000  11.827  24.344  10.462
97136W        W98001  11.348  23.511  10.093
97137W        W98002  12.339  23.616   9.887
97138W        W98003  14.107  21.975  10.149
97139W        W98004  14.505  23.585  10.140
97140W        W98005  14.493  23.785   7.826
97141W        W98006  13.356  24.117   7.925
97142W        W98007  13.830  25.417   7.620
97143W        W98008  13.007  23.407  10.762
97144W        W98009  11.337  24.374  10.802
97145W        W98010  14.543  22.296  10.754
97146W        W98011  14.261  23.224   9.375
97147W        W98012  12.569  25.354  10.852
97148W        W98013  12.424  21.983   7.579
97149W        W98014  13.963  24.582   7.522
97150W        W98015  11.732  22.675  10.408
97151W        W98016  12.166  24.669  10.270
97152W        W98017  14.292  22.660  10.068
97153W        W98018  13.503  25.319   8.036
97154W        W98019  13.742  23.938   9.403
97155W        W98020  11.992  22.354  10.070
97156W        W98021  12.461  23.423  10.827
97157W        W98022  11.964  24.602   8.021
97158W        W98023  13.719  24.100   8.285
97159W        W98024  11.487  22.726  10.009
97160W        W98025  12.816  24.788   8.473
97161W        W98026  14.566  23.348   8.654
97162W        W98027  12.788  21.981  10.373
97163W        W98028  13.568  24.686   9.452
97164W        W98029  13.871  25.030   9.160
97165W        W98030  13.090  24.832   7.588
97166W        W98031  11.100  24.724  10.430
97167W        W98032  11.843  22.716   9.668
97168W        W98033  11.813  22.064   8.778
97169W        W98034  13.434  22.906   9.470
97170W        W98035  12.232  24.077   7.670
97171W        W98036  14.230  24.019   9.169
97172W        W98037  11.557  24.777  10.592
97173W        W98038  13.944  25.459   8.389
97174W        W98039  12.043  22.479   8.834
97175W        W98040  11.812  23.972   8.924
97176W        W98041  12.125  25.383   9.674
97177W        W98042  14.192  25.479  10.706
97178W        W98043  13.351  23.667   9.639
97179W        W98044  11.200  23.465   7.554
97180W        W98045  14.334  25.123   8.251
97181W        W98046  14.171  22.447   7.870
97182W        W98047  12.310  21.966  10.273
97183W        W98048  14.016  24.768   8.731
97184W        W98049  14.045  23.324   8.636
97185W        W98050  12.162  22.997   8.852
97186W        W98051  12.407  23.259  10.176
97187W        W98052  13.518  24.412  10.039
97188W        W98053  12.168  22.866  10.151
97189W        W98054  12.147  25.332   8.767
97190W        W98055  11.464  25.291  10.401
97191W        W98056  11.576  24.652   7.531
97192W        W98057  14.093  24.410   8.341
97193W        W98058  11.697  23.202  10.227
97194W        W98059  14.470  23.132   7.708
97195W        W98060  12.215  24.189   8.179
97196W        W98061  13.314  23.571  10.260
97197W        W98062  13.205  23.199   9.804
97198W        W98063  11.765  23.571   9.833
97199W        W98064  13.975  25.459   9.662
97200W        W98065  13.766  22.093  10.656
97201W        W98066  11.430  22.243  10.243
97202W        W98067  11.769  23.266   9.296
97203W        W98068  12.138  23.080   7.418
97204W        W98069  10.941  24.839   9.963
97205W        W98070  12.526  23.548   9.406
97206W        W98071  12.349  22.573   7.511
97207W        W98072  11.484  23.389   8.292
97208W        W98073  11.255  25.241   9.729
97209W        W98074  14.050  23.467   7.837
97210W        W98075  14.145  22.383  10.523
97211W        W98076  13.581  24.592   8.486
97212W        W98077  11.179  23.516  10.663
97213W        W98078  14.145  21.980   7.959
97214W        W98079  13.665  24.455   7.970
97215W        W98080  12.567  23.513   8.055
97216W        W98081  13.754  22.317   7.578
97217W        W98082  13.819  22.924   9.764
97218W        W98083  11.528  23.517   8.971
97219W        W98084  11.822  24.456   8.620
97220W        W98085  13.585  23.076   8.585
97221W        W98086  12.608  22.455   9.281
97222W        W98087  14.570  24.366   9.792
97223W        W98088  14.488  22.353   9.353
97224W        W98089  11.027  25.183   8.729
97225W        W98090  11.536  24.370   8.265
97226W        W98091  11.451  21.987  10.818
97227W        W98092  12.570  24.840  10.920
97228W        W98093  14.325  23.808   8.710
97229W        W98094  13.679  23.985   7.590
97230W        W98095  12.974  25.506   9.802
97231W        W98096  13.831  24.228  10.839
97232W        W98097  12.646  21.938   8.119
97233W        W98098  13.359  22.807   8.978
97234W        W98099  11.045  24.394   9.310
97235W        W98100  12.298  22.356   7.951
97236W        W98101  12.102  23.840  10.800
97237W        W98102  13.096  22.821   8.514
97238W        W98103  13.301  24.231   9.636
97239W        W98104  11.455  24.836  10.071
97240W        W98105  12.046  24.819  10.794
97241W        W98106  11.897  22.616   7.808
97242W        W98107  13.414  22.758   8.133
97243W        W98108  13.372  24.866  10.370
97244W        W98109  12.057  23.458   8.969
97245W        W98110  11.712  25.156   9.834
97246W        W98111  14.457  25.273   7.435
97247W        W98112  11.320  23.945  10.431
97248W        W98113  13.315  24.207   9.119
97249W        W98114  11.751  23.856   8.361
97250W        W98115  12.122  24.863   9.756
97251W        W98116  12.500  22.282   8.797
97252W        W98117  11.111  24.266   7.727
97253W        W98118  12.630  23.217   7.597
97254W        W98119  11.276  23.766   8.616
97255W        W98120  12.566  22.408  10.080
97256W        W98121  14.238  22.117   7.507
97257W        W98122  14.331  23.863  10.606
97258W        W98123  12.985  25.120  10.758
97259W        W98124  14.543  24.214  10.280
97260W        W98125  13.951  25.012  10.891
97261W        W98126  11.690  25.468   9.369
97262W        W98127  14.549  24.090   8.243
97263W        W98128  13.079  23.357   8.756
97264W        W98129  12.846  21.969   8.646
97265W        W98130  11.905  24.953   8.483
97266W        W98131  12.404  22.694   9.708
97267W        W98132  12.104  22.063   9.177
97268W        W98133  11.167  24.885   7.725
97269W        W98134  12.983  24.249   8.443
97270W        W98135  11.858  25.044  10.322
97271W        W98136  11.335  23.867   8.018
97272W        W98137  11.220  22.410   9.017
97273W        W98138  12.768  24.375   9.074
97274W        W98139  11.020  22.229   8.094
97275W        W98140  13.684  23.435  10.021
97276W        W98141  13.561  22.821   7.593
97277W        W98142  14.078  24.493   9.241
97278W        W98143  12.739  24.977   9.072
97279W        W98144  12.151  25.081   7.983
97280W        W98145  13.433  21.984   7.413
97281W        W98146  11.233  25.244   9.154
97282W        W98147  13.430  23.002  10.789
97283W        W98148  11.413  22.532  10.788
97284W        W98149  11.144  23.132   8.121
97285W        W98150  11.835  23.121   7.846
97286W        W98151  13.598  23.448  10.663
97287W        W98152  11.941  23.729   9.372
97288W        W98153  13.415  22.015   8.492
97289W        W98154  12.546  25.446   8.995
97290W        W98155  13.760  24.908   9.932
97291W        W98156  13.344  25.057   9.043
97292W        W98157  13.363  24.037   8.637
97293W        W98158  12.825  22.262   7.708
97294W        W98159  14.506  21.890   8.430
97295W        W98160  12.194  23.525   7.593
97296W        W98161  14.360  22.862   8.583
97297W        W98162  13.052  24.032   7.460
97298W        W98163  13.988  24.232  10.208
97299W        W98164  13.642  24.933   7.675
97300W        W98165  12.257  22.608  10.581
97301W        W98166  12.077  23.192   9.822
97302W        W98167  14.169  24.687  10.099
97303W        W98168  13.269  22.637  10.476
97304W        W98169  11.113  23.108  10.253
97305W        W98170  12.873  23.585   9.979
97306W        W98171  11.230  24.343   8.636
97307W        W98172  11.377  23.640   9.526
97308W        W98173  13.694  23.926   9.876
97309W        W98174  13.466  25.306  10.687
97310W        W98175  13.362  23.045  10.240
97311W        W98176  13.639  25.099   8.645
97312W        W98177  12.641  24.819   9.968
97313W        W98178  12.126  25.174   9.237
97314W        W98179  13.931  24.345   9.656
97315W        W98180  12.981  24.417  10.793
97316W        W98181  11.586  24.370   9.132
97317W        W98182  13.932  24.129   8.777
97318W        W98183  13.573  25.195   9.528
97319W        W98184  11.551  24.924   9.398
97320W        W98185  12.572  22.976  10.608
97321W        W98186  13.023  25.142   8.119
97322W        W98187  12.331  24.397  10.757
97323W        W98188  12.457  24.635   8.134
97324W        W98189  11.678  23.375   7.393
97325W        W98190  11.017  25.461  14.292
97326W        W98191  11.393  24.354  13.815
97327W        W98192  14.098  24.084  11.585
97328W        W98193  14.228  25.169  13.612
97329W        W98194  12.146  25.160  11.138
97330W        W98195  12.229  23.312  12.121
97331W        W98196  11.744  23.160  12.285
97332W        W98197  12.735  23.975  11.719
97333W        W98198  12.410  25.067  14.074
97334W        W98199  11.059  22.628  14.037
97335W        W98200  11.821  21.908  13.839
97336W        W98201  13.515  22.296  12.726
97337W        W98202  13.164  23.167  11.296
97338W        W98203  13.734  22.601  14.387
97339W        W98204  11.100  22.393  13.512
97340W        W98205  11.199  25.012  14.533
97341W        W98206  12.721  24.402  11.265
97342W        W98207  11.153  23.185  12.958
97343W        W98208  12.046  23.076  14.195
97344W        W98209  14.505  22.935  12.694
97345W        W98210  14.269  23.978  13.553
97346W        W98211  12.577  23.311  12.580
97347W        W98212  13.123  24.650  12.949
97348W        W98213  11.623  24.084  13.181
97349W        W98214  10.982  23.612  12.752
97350W        W98215  12.018  23.584  13.944
97351W        W98216  14.289  23.367  14.198
97352W        W98217  11.905  24.811  12.643
97353W        W98218  13.026  24.500  13.777
97354W        W98219  12.246  23.140  13.002
97355W        W98220  12.538  23.924  12.645
97356W        W98221  13.535  24.697  14.493
97357W        W98222  12.614  24.017  14.503
97358W        W98223  12.595  23.733  13.981
97359W        W98224  11.004  23.124  14.503
97360W        W98225  13.836  24.659  14.102
97361W        W98226  11.417  22.241  12.100
97362W        W98227  11.944  24.499  13.099
97363W        W98228  14.407  24.282  12.389
97364W        W98229  13.820  22.682  12.956
97365W        W98230  14.105  22.635  11.051
97366W        W98231  14.570  23.436  13.357
97367W        W98232  14.311  24.609  11.548
97368W        W98233  11.440  25.395  11.302
97369W        W98234  11.833  25.441  11.978
97370W        W98235  11.630  22.195  13.404
97371W        W98236  14.253  23.213  13.679
97372W        W98237  13.658  23.635  12.138
97373W        W98238  13.624  23.323  11.165
97374W        W98239  12.832  24.467  13.305
97375W        W98240  12.638  22.797  12.504
97376W        W98241  13.238  24.884  13.498
97377W        W98242  14.109  23.675  11.920
97378W        W98243  13.011  22.333  11.936
97379W        W98244  11.668  25.027  11.619
97380W        W98245  11.039  22.526  12.218
97381W        W98246  13.825  23.133  12.692
97382W        W98247  11.283  24.750  12.607
97383W        W98248  12.624  25.100  11.477
97384W        W98249  14.016  23.126  10.941
97385W        W98250  11.039  24.884  13.105
97386W        W98251  11.830  24.456  13.585
97387W        W98252  12.203  23.816  12.204
97388W        W98253  12.225  22.221  13.297
97389W        W98254  14.454  21.983  12.594
97390W        W98255  11.673  23.855  11.062
97391W        W98256  11.328  22.888  11.241
97392W        W98257  11.390  24.844  12.035
97393W        W98258  12.521  24.327  12.283
97394W        W98259  13.853  25.186  13.997
97395W        W98260  12.779  22.828  11.681
97396W        W98261  14.162  25.226  12.453
97397W        W98262  13.839  23.079  14.051
97398W        W98263  14.552  24.735  12.185
97399W        W98264  13.179  24.027  13.669
97400W        W98265  10.945  23.578  11.875
97401W        W98266  12.056  23.993  13.448
97402W        W98267  13.260  23.257  11.826
97403W        W98268  13.137  23.747  11.930
97404W        W98269  11.480  23.167  13.404
97405W        W98270  11.465  23.043  14.326
97406W        W98271  11.355  21.960  12.485
97407W        W98272  13.123  22.307  13.046
97408W        W98273  12.771  22.492  14.209
97409W        W98274  13.126  22.641  11.387
97410W        W98275  14.309  25.034  14.141
97411W        W98276  13.276  22.115  14.180
97412W        W98277  14.295  24.416  14.302
97413W        W98278  13.725  22.583  13.898
97414W        W98279  13.525  22.521  12.168
97415W        W98280  13.918  23.655  14.572
97416W        W98281  11.658  25.231  12.558
97417W        W98282  12.316  22.948  11.544
97418W        W98283  11.885  22.232  14.208
97419W        W98284  13.937  22.716  11.889
97420W        W98285  14.304  23.198  11.834
97421W        W98286  12.047  25.415  14.305
97422W        W98287  11.973  21.951  11.540
97423W        W98288  14.294  22.485  12.575
97424W        W98289  14.444  24.734  11.020
97425W        W98290  11.351  23.937  12.722
97426W        W98291  13.268  22.524  10.952
97427W        W98292  14.402  24.856  12.672
97428W        W98293  14.441  22.050  13.422
97429W        W98294  12.886  23.262  13.976
97430W        W98295  12.979  24.601  11.679
97431W        W98296  13.379  23.895  14.419
97432W        W98297  13.053  21.872  12.728
97433W        W98298  11.665  22.775  12.791
97434W        W98299  11.219  23.975  13.565
97435W        W98300  13.078  25.168  12.271
97436W        W98301  14.272  22.765  13.143
97437W        W98302  12.909  25.112  13.910
97438W        W98303  14.252  24.171  11.115
97439W        W98304  12.687  23.654  12.176
97440W        W98305  14.539  22.165  13.917
97441W        W98306  12.688  24.000  13.511
97442W        W98307  12.905  22.886  12.956
97443W        W98308  13.757  23.184  11.794
97444W        W98309  14.044  22.917  11.436
97445W        W98310  13.853  24.957  11.825
97446W        W98311  13.687  24.560  12.621
97447W        W98312  13.583  23.639  11.599
97448W        W98313  13.016  23.849  12.585
97449W        W98314  13.897  23.637  12.652
97450W        W98315  11.272  22.652  13.076
97451W        W98316  14.050  23.704  13.903
97452W        W98317  14.401  25.322  13.049
97453W        W98318  12.331  24.766  12.451
97454W        W98319  13.338  25.299  13.775
97455W        W98320  13.332  22.629  13.539
97456W        W98321  12.539  25.337  13.600
97457W        W98322  14.236  22.291  12.066
97458W        W98323  14.027  23.610  13.367
97459W        W98324  11.010  22.931  13.405
97460W        W98325  13.870  22.726  12.423
97461W        W98326  14.281  22.877  14.200
97462W        W98327  13.166  24.576  12.418
97463W        W98328  12.422  25.167  12.031
97464W        W98329  11.537  22.347  11.289
97465W        W98330  12.641  22.001  13.099
97466W        W98331  11.669  25.121  10.947
97467W        W98332  12.043  23.587  11.698
97468W        W98333  12.697  24.216  14.011
97469W        W98334  12.527  22.574  12.001
97470W        W98335  13.883  22.171  12.429
97471W        W98336  13.603  25.453  12.757
97472W        W98337  13.015  25.101  13.097
97473W        W98338  12.411  24.138  13.058
97474W        W98339  14.181  24.861  13.184
97475W        W98340  11.875  22.364  11.953
97476W        W98341  12.397  24.661  12.913
97477W        W98342  11.880  22.592  10.978
97478W        W98343  12.681  23.201  13.372
97479W        W98344  13.529  22.067  13.242
97480W        W98345  10.949  23.910  13.127
97481W        W98346  12.653  23.728  11.285
97482W        W98347  11.921  22.043  11.055
97483W        W98348  12.659  23.124  12.106
97484W        W98349  13.629  22.100  13.805
97485W        W98350  12.217  24.112  13.914
97486W        W98351  13.021  23.894  14.131
97487W        W98352  13.638  23.924  14.024
97488W        W98353  12.922  22.064  14.529
97489W        W98354  12.144  22.680  12.922
97490W        W98355  11.570  22.636  12.320
97491W        W98356  11.356  25.348  11.996
97492W        W98357  12.688  24.678  14.121
97493W        W98358  11.723  24.163  11.480
97494W        W98359  13.403  23.548  12.701
97495W        W98360  13.683  23.347  13.100
97496W        W98361  12.888  24.021  13.034
97497W        W98362  13.358  24.395  11.166
97498W        W98363  13.030  22.416  12.494
97499W        W98364  14.509  22.694  11.762
97500W        W98365  11.003  25.283  13.793
97501W        W98366  11.420  24.509  13.325
97502W        W98367  10.987  25.355  11.557
97503W        W98368  12.886  22.625  13.363
97504W        W98369  12.249  24.648  11.212
97505W        W98370  14.154  25.030  11.398
97506W        W98371  13.129  23.683  11.412
97507W        W98372  11.972  22.874  11.929
97508W        W98373  12.804  22.784  10.981
97509W        W98374  13.388  24.349  14.159
97510W        W98375  13.741  22.255  11.776
97511W        W98376  11.071  22.103  11.224
97512W        W98377  12.357  24.422  13.514
97513W        W98378  12.156  24.338  12.606
97514W        W98379  11.898  24.290  11.004
97515W        W98380  11.139  24.531  11.772
97516W        W98381  11.643  23.601  14.214
97517W        W98382  12.347  22.161  14.400
97518W        W98383  13.056  22.303  13.756
97519W        W98384  12.251  22.071  12.037
97520W        W98385  13.310  22.148  11.542
97521W        W98386  11.255  22.080  13.119
97522W        W98387  11.303  23.043  12.489
97523W        W98388  13.992  22.151  12.895
97524W        W98389  11.414  22.649  11.709
97525W        W98390  13.985  22.337  13.325
97526W        W98391  14.381  23.540  11.010
97527W        W98392  11.673  22.298  12.829
97528W        W98393  12.787  22.870  13.769
97529W        W98394  10.935  22.560  11.247
97530W        W98395  11.721  23.949  13.808
97531W        W98396  13.079  23.347  12.987
97532W        W98397  12.946  25.426  11.283
97533W        W98398  11.092  23.933  10.980
97534W        W98399  11.827  24.344  14.106
97535W        W98400  11.348  23.511  13.737
97536W        W98401  12.339  23.616  13.531
97537W        W98402  14.107  21.975  13.793
97538W        W98403  14.505  23.585  13.784
97539W        W98404  14.493  23.785  11.470
97540W        W98405  13.356  24.117  11.569
97541W        W98406  13.830  25.417  11.264
97542W        W98407  13.007  23.407  14.406
97543W        W98408  11.337  24.374  14.446
97544W        W98409  14.543  22.296  14.398
97545W        W98410  14.261  23.224  13.019
97546W        W98411  12.569  25.354  14.496
97547W        W98412  12.424  21.983  11.223
97548W        W98413  13.963  24.582  11.166
97549W        W98414  11.732  22.675  14.052
97550W        W98415  12.166  24.669  13.914
97551W        W98416  14.292  22.660  13.712
97552W        W98417  13.503  25.319  11.680
97553W        W98418  13.742  23.938  13.047
97554W        W98419  11.992  22.354  13.714
97555W        W98420  12.461  23.423  14.471
97556W        W98421  11.964  24.602  11.665
97557W        W98422  13.719  24.100  11.929
97558W        W98423  11.487  22.726  13.653
97559W        W98424  12.816  24.788  12.117
97560W        W98425  14.566  23.348  12.298
97561W        W98426  12.788  21.981  14.017
97562W        W98427  13.568  24.686  13.096
97563W        W98428  13.871  25.030  12.804
97564W        W98429  13.090  24.832  11.232
97565W        W98430  11.100  24.724  14.074
97566W        W98431  11.843  22.716  13.312
97567W        W98432  11.813  22.064  12.422
97568W        W98433  13.434  22.906  13.114
97569W        W98434  12.232  24.077  11.314
97570W        W98435  14.230  24.019  12.813
97571W        W98436  11.557  24.777  14.236
97572W        W98437  13.944  25.459  12.033
97573W        W98438  12.043  22.479  12.478
97574W        W98439  11.812  23.972  12.568
97575W        W98440  14.192  25.479  14.350
97576W        W98441  13.351  23.667  13.283
97577W        W98442  11.200  23.465  11.198
97578W        W98443  14.334  25.123  11.895
97579W        W98444  14.171  22.447  11.514
97580W        W98445  12.310  21.966  13.917
97581W        W98446  14.016  24.768  12.375
97582W        W98447  14.045  23.324  12.280
97583W        W98448  12.162  22.997  12.496
97584W        W98449  12.407  23.259  13.820
97585W        W98450  13.518  24.412  13.683
97586W        W98451  12.168  22.866  13.795
97587W        W98452  12.147  25.332  12.411
97588W        W98453  11.464  25.291  14.045
97589W        W98454  11.576  24.652  11.175
97590W        W98455  14.093  24.410  11.985
97591W        W98456  11.697  23.202  13.871
97592W        W98457  14.470  23.132  11.352
97593W        W98458  12.215  24.189  11.823
97594W        W98459  13.314  23.571  13.904
97595W        W98460  13.205  23.199  13.448
97596W        W98461  11.765  23.571  13.477
97597W        W98462  13.975  25.459  13.306
97598W        W98463  13.766  22.093  14.300
97599W        W98464  11.430  22.243  13.887
97600W        W98465  11.769  23.266  12.940
97601W        W98466  12.138  23.080  11.062
97602W        W98467  10.941  24.839  13.607
97603W        W98468  12.526  23.548  13.050
97604W        W98469  12.349  22.573  11.155
97605W        W98470  11.484  23.389  11.936
97606W        W98471  11.255  25.241  13.373
97607W        W98472  14.050  23.467  11.481
97608W        W98473  14.145  22.383  14.167
97609W        W98474  13.581  24.592  12.130
97610W        W98475  11.179  23.516  14.307
97611W        W98476  14.145  21.980  11.603
97612W        W98477  13.665  24.455  11.614
97613W        W98478  12.567  23.513  11.699
97614W        W98479  13.754  22.317  11.222
97615W        W98480  13.819  22.924  13.408
97616W        W98481  11.528  23.517  12.615
97617W        W98482  11.822  24.456  12.264
97618W        W98483  13.585  23.076  12.229
97619W        W98484  12.608  22.455  12.925
97620W        W98485  14.570  24.366  13.436
97621W        W98486  14.488  22.353  12.997
97622W        W98487  11.027  25.183  12.373
97623W        W98488  11.536  24.370  11.909
97624W        W98489  11.451  21.987  14.462
97625W        W98490  12.570  24.840  14.564
97626W        W98491  14.325  23.808  12.354
97627W        W98492  13.679  23.985  11.234
97628W        W98493  12.974  25.506  13.446
97629W        W98494  13.831  24.228  14.483
97630W        W98495  12.646  21.938  11.763
97631W        W98496  13.359  22.807  12.622
97632W        W98497  11.045  24.394  12.954
97633W        W98498  12.298  22.356  11.595
97634W        W98499  12.102  23.840  14.444
97635W        W98500  13.096  22.821  12.158
97636W        W98501  13.301  24.231  13.280
97637W        W98502  11.455  24.836  13.715
97638W        W98503  12.046  24.819  14.438
97639W        W98504  11.897  22.616  11.452
97640W        W98505  13.414  22.758  11.777
97641W        W98506  13.372  24.866  14.014
97642W        W98507  12.057  23.458  12.613
97643W        W98508  11.712  25.156  13.478
97644W        W98509  14.457  25.273  11.079
97645W        W98510  11.320  23.945  14.075
97646W        W98511  13.315  24.207  12.763
97647W        W98512  11.751  23.856  12.005
97648W        W98513  12.122  24.863  13.400
97649W        W98514  12.500  22.282  12.441
97650W        W98515  11.111  24.266  11.371
97651W        W98516  12.630  23.217  11.241
97652W        W98517  11.276  23.766  12.260
97653W        W98518  12.566  22.408  13.724
97654W        W98519  14.238  22.117  11.151
97655W        W98520  14.331  23.863  14.250
97656W        W98521  12.985  25.120  14.402
97657W        W98522  14.543  24.214  13.924
97658W        W98523  13.951  25.012  14.535
97659W        W98524  11.690  25.468  13.013
97660W        W98525  14.549  24.090  11.887
97661W        W98526  13.079  23.357  12.400
97662W        W98527  12.846  21.969  12.290
97663W        W98528  11.905  24.953  12.127
97664W        W98529  12.404  22.694  13.352
97665W        W98530  12.104  22.063  12.821
97666W        W98531  11.167  24.885  11.369
97667W        W98532  12.983  24.249  12.087
97668W        W98533  11.858  25.044  13.966
97669W        W98534  11.335  23.867  11.662
97670W        W98535  11.220  22.410  12.661
97671W        W98536  12.768  24.375  12.718
97672W        W98537  11.020  22.229  11.738
97673W        W98538  13.684  23.435  13.665
97674W        W98539  13.561  22.821  11.237
97675W        W98540  14.078  24.493  12.885
97676W        W98541  12.739  24.977  12.716
97677W        W98542  12.151  25.081  11.627
97678W        W98543  13.433  21.984  11.057
97679W        W98544  11.233  25.244  12.798
97680W        W98545  13.430  23.002  14.433
97681W        W98546  11.413  22.532  14.432
97682W        W98547  11.144  23.132  11.765
97683W        W98548  11.835  23.121  11.490
97684W        W98549  13.598  23.448  14.307
97685W        W98550  11.941  23.729  13.016
97686W        W98551  13.415  22.015  12.136
97687W        W98552  12.546  25.446  12.639
97688W        W98553  13.760  24.908  13.576
97689W        W98554  13.344  25.057  12.687
97690W        W98555  13.363  24.037  12.281
97691W        W98556  12.825  22.262  11.352
97692W        W98557  14.506  21.890  12.074
97693W        W98558  12.194  23.525  11.237
97694W        W98559  14.360  22.862  12.227
97695W        W98560  13.052  24.032  11.104
97696W        W98561  13.988  24.232  13.852
97697W        W98562  13.642  24.933  11.319
97698W        W98563  12.257  22.608  14.225
97699W        W98564  12.077  23.192  13.466
97700W        W98565  14.169  24.687  13.743
97701W        W98566  13.269  22.637  14.120
97702W        W98567  11.113  23.108  13.897
97703W        W98568  12.873  23.585  13.623
97704W        W98569  11.230  24.343  12.280
97705W        W98570  11.377  23.640  13.170
97706W        W98571  13.694  23.926  13.520
97707W        W98572  13.466  25.306  14.331
97708W        W98573  13.362  23.045  13.884
97709W        W98574  13.639  25.099  12.289
97710W        W98575  12.641  24.819  13.612
97711W        W98576  12.126  25.174  12.881
97712W        W98577  13.931  24.345  13.300
97713W        W98578  12.981  24.417  14.437
97714W        W98579  11.586  24.370  12.776
97715W        W98580  13.932  24.129  12.421
97716W        W98581  13.573  25.195  13.172
97717W        W98582  11.551  24.924  13.042
97718W        W98583  12.572  22.976  14.252
97719W        W98584  13.023  25.142  11.763
97720W        W98585  12.331  24.397  14.401
97721W        W98586  12.457  24.635  11.778
97722W        W98587  11.678  23.375  11.037
97723W        W98588  11.017  25.461  17.936
97724W        W98589  11.393  24.354  17.459
97725W        W98590  14.098  24.084  15.229
97726W        W98591  14.228  25.169  17.256
97727W        W98592  12.146  25.160  14.782
97728W        W98593  12.229  23.312  15.765
97729W        W98594  11.744  23.160  15.929
97730W        W98595  12.735  23.975  15.363
97731W        W98596  12.410  25.067  17.718
97732W        W98597  11.059  22.628  17.681
97733W        W98598  11.821  21.908  17.483
97734W        W98599  13.515  22.296  16.370
97735W        W98600  13.164  23.167  14.940
97736W        W98601  13.734  22.601  18.031
97737W        W98602  11.100  22.393  17.156
97738W        W98603  11.199  25.012  18.177
97739W        W98604  12.721  24.402  14.909
97740W        W98605  11.153  23.185  16.602
97741W        W98606  12.046  23.076  17.839
97742W        W98607  14.505  22.935  16.338
97743W        W98608  14.269  23.978  17.197
97744W        W98609  12.577  23.311  16.224
97745W        W98610  13.123  24.650  16.593
97746W        W98611  11.623  24.084  16.825
97747W        W98612  10.982  23.612  16.396
97748W        W98613  12.018  23.584  17.588
97749W        W98614  14.289  23.367  17.842
97750W        W98615  11.905  24.811  16.287
97751W        W98616  13.026  24.500  17.421
97752W        W98617  12.246  23.140  16.646
97753W        W98618  12.538  23.924  16.289
97754W        W98619  13.535  24.697  18.137
97755W        W98620  12.614  24.017  18.147
97756W        W98621  12.595  23.733  17.625
97757W        W98622  11.004  23.124  18.147
97758W        W98623  13.836  24.659  17.746
97759W        W98624  11.417  22.241  15.744
97760W        W98625  11.944  24.499  16.743
97761W        W98626  14.407  24.282  16.033
97762W        W98627  13.820  22.682  16.600
97763W        W98628  14.105  22.635  14.695
97764W        W98629  14.570  23.436  17.001
97765W        W98630  12.537  25.143  16.754
97766W        W98631  14.311  24.609  15.192
97767W        W98632  11.440  25.395  14.946
97768W        W98633  11.833  25.441  15.622
97769W        W98634  11.630  22.195  17.048
97770W        W98635  14.253  23.213  17.323
97771W        W98636  13.658  23.635  15.782
97772W        W98637  13.624  23.323  14.809
97773W        W98638  12.832  24.467  16.949
97774W        W98639  12.638  22.797  16.148
97775W        W98640  13.238  24.884  17.142
97776W        W98641  14.109  23.675  15.564
97777W        W98642  13.011  22.333  15.580
97778W        W98643  11.668  25.027  15.263
97779W        W98644  11.039  22.526  15.862
97780W        W98645  13.825  23.133  16.336
97781W        W98646  11.283  24.750  16.251
97782W        W98647  12.624  25.100  15.121
97783W        W98648  14.016  23.126  14.585
97784W        W98649  11.039  24.884  16.749
97785W        W98650  11.830  24.456  17.229
97786W        W98651  12.203  23.816  15.848
97787W        W98652  12.225  22.221  16.941
97788W        W98653  14.454  21.983  16.238
97789W        W98654  11.673  23.855  14.706
97790W        W98655  11.328  22.888  14.885
97791W        W98656  11.390  24.844  15.679
97792W        W98657  12.521  24.327  15.927
97793W        W98658  13.853  25.186  17.641
97794W        W98659  12.779  22.828  15.325
97795W        W98660  14.162  25.226  16.097
97796W        W98661  13.839  23.079  17.695
97797W        W98662  14.552  24.735  15.829
97798W        W98663  13.179  24.027  17.313
97799W        W98664  10.945  23.578  15.519
97800W        W98665  12.056  23.993  17.092
97801W        W98666  13.260  23.257  15.470
97802W        W98667  13.137  23.747  15.574
97803W        W98668  11.480  23.167  17.048
97804W        W98669  11.465  23.043  17.970
97805W        W98670  11.355  21.960  16.129
97806W        W98671  13.123  22.307  16.690
97807W        W98672  12.771  22.492  17.853
97808W        W98673  13.126  22.641  15.031
97809W        W98674  14.309  25.034  17.785
97810W        W98675  13.276  22.115  17.824
97811W        W98676  14.295  24.416  17.946
97812W        W98677  13.725  22.583  17.542
97813W        W98678  13.525  22.521  15.812
97814W        W98679  13.918  23.655  18.216
97815W        W98680  11.658  25.231  16.202
97816W        W98681  12.316  22.948  15.188
97817W        W98682  11.885  22.232  17.852
97818W        W98683  13.937  22.716  15.533
97819W        W98684  14.304  23.198  15.478
97820W        W98685  12.047  25.415  17.949
97821W        W98686  11.973  21.951  15.184
97822W        W98687  14.294  22.485  16.219
97823W        W98688  14.444  24.734  14.664
97824W        W98689  11.351  23.937  16.366
97825W        W98690  13.268  22.524  14.596
97826W        W98691  14.402  24.856  16.316
97827W        W98692  14.441  22.050  17.066
97828W        W98693  12.886  23.262  17.620
97829W        W98694  12.979  24.601  15.323
97830W        W98695  13.379  23.895  18.063
97831W        W98696  13.053  21.872  16.372
97832W        W98697  11.665  22.775  16.435
97833W        W98698  11.219  23.975  17.209
97834W        W98699  13.078  25.168  15.915
97835W        W98700  14.272  22.765  16.787
97836W        W98701  12.909  25.112  17.554
97837W        W98702  14.252  24.171  14.759
97838W        W98703  12.687  23.654  15.820
97839W        W98704  14.539  22.165  17.561
97840W        W98705  12.688  24.000  17.155
97841W        W98706  12.905  22.886  16.600
97842W        W98707  13.757  23.184  15.438
97843W        W98708  14.044  22.917  15.080
97844W        W98709  13.853  24.957  15.469
97845W        W98710  13.687  24.560  16.265
97846W        W98711  13.583  23.639  15.243
97847W        W98712  13.016  23.849  16.229
97848W        W98713  13.897  23.637  16.296
97849W        W98714  11.272  22.652  16.720
97850W        W98715  14.050  23.704  17.547
97851W        W98716  14.401  25.322  16.693
97852W        W98717  12.331  24.766  16.095
97853W        W98718  13.338  25.299  17.419
97854W        W98719  13.332  22.629  17.183
97855W        W98720  12.539  25.337  17.244
97856W        W98721  14.236  22.291  15.710
97857W        W98722  14.027  23.610  17.011
97858W        W98723  11.010  22.931  17.049
97859W        W98724  13.870  22.726  16.067
97860W        W98725  14.281  22.877  17.844
97861W        W98726  13.166  24.576  16.062
97862W        W98727  12.422  25.167  15.675
97863W        W98728  11.537  22.347  14.933
97864W        W98729  12.641  22.001  16.743
97865W        W98730  11.669  25.121  14.591
97866W        W98731  12.043  23.587  15.342
97867W        W98732  12.697  24.216  17.655
97868W        W98733  12.527  22.574  15.645
97869W        W98734  13.883  22.171  16.073
97870W        W98735  13.603  25.453  16.401
97871W        W98736  13.015  25.101  16.741
97872W        W98737  12.411  24.138  16.702
97873W        W98738  14.181  24.861  16.828
97874W        W98739  11.875  22.364  15.597
97875W        W98740  12.397  24.661  16.557
97876W        W98741  11.880  22.592  14.622
97877W        W98742  12.681  23.201  17.016
97878W        W98743  13.529  22.067  16.886
97879W        W98744  10.949  23.910  16.771
97880W        W98745  12.653  23.728  14.929
97881W        W98746  11.921  22.043  14.699
97882W        W98747  12.659  23.124  15.750
97883W        W98748  13.629  22.100  17.449
97884W        W98749  12.217  24.112  17.558
97885W        W98750  13.021  23.894  17.775
97886W        W98751  13.638  23.924  17.668
97887W        W98752  12.922  22.064  18.173
97888W        W98753  12.144  22.680  16.566
97889W        W98754  11.570  22.636  15.964
97890W        W98755  11.356  25.348  15.640
97891W        W98756  12.688  24.678  17.765
97892W        W98757  11.723  24.163  15.124
97893W        W98758  13.403  23.548  16.345
97894W        W98759  13.683  23.347  16.744
97895W        W98760  12.888  24.021  16.678
97896W        W98761  13.358  24.395  14.810
97897W        W98762  13.030  22.416  16.138
97898W        W98763  14.509  22.694  15.406
97899W        W98764  11.003  25.283  17.437
97900W        W98765  11.420  24.509  16.969
97901W        W98766  10.987  25.355  15.201
97902W        W98767  12.886  22.625  17.007
97903W        W98768  12.249  24.648  14.856
97904W        W98769  14.154  25.030  15.042
97905W        W98770  13.129  23.683  15.056
97906W        W98771  11.972  22.874  15.573
97907W        W98772  12.804  22.784  14.625
97908W        W98773  13.388  24.349  17.803
97909W        W98774  13.741  22.255  15.420
97910W        W98775  11.071  22.103  14.868
97911W        W98776  12.357  24.422  17.158
97912W        W98777  12.156  24.338  16.250
97913W        W98778  11.898  24.290  14.648
97914W        W98779  11.139  24.531  15.416
97915W        W98780  11.643  23.601  17.858
97916W        W98781  12.347  22.161  18.044
97917W        W98782  13.056  22.303  17.400
97918W        W98783  12.251  22.071  15.681
97919W        W98784  13.310  22.148  15.186
97920W        W98785  11.255  22.080  16.763
97921W        W98786  11.303  23.043  16.133
97922W        W98787  13.992  22.151  16.539
97923W        W98788  11.414  22.649  15.353
97924W        W98789  13.985  22.337  16.969
97925W        W98790  14.381  23.540  14.654
97926W        W98791  11.673  22.298  16.473
97927W        W98792  12.787  22.870  17.413
97928W        W98793  10.935  22.560  14.891
97929W        W98794  11.721  23.949  17.452
97930W        W98795  13.079  23.347  16.631
97931W        W98796  12.946  25.426  14.927
97932W        W98797  11.092  23.933  14.624
97933W        W98798  11.827  24.344  17.750
97934W        W98799  11.348  23.511  17.381
97935W        W98800  12.339  23.616  17.175
97936W        W98801  14.107  21.975  17.437
97937W        W98802  14.505  23.585  17.428
97938W        W98803  14.493  23.785  15.114
97939W        W98804  13.356  24.117  15.213
97940W        W98805  13.830  25.417  14.908
97941W        W98806  13.007  23.407  18.050
97942W        W98807  11.337  24.374  18.090
97943W        W98808  14.543  22.296  18.042
97944W        W98809  14.261  23.224  16.663
97945W        W98810  12.569  25.354  18.140
97946W        W98811  12.424  21.983  14.867
97947W        W98812  13.963  24.582  14.810
97948W        W98813  11.732  22.675  17.696
97949W        W98814  12.166  24.669  17.558
97950W        W98815  14.292  22.660  17.356
97951W        W98816  13.503  25.319  15.324
97952W        W98817  13.742  23.938  16.691
97953W        W98818  11.992  22.354  17.358
97954W        W98819  12.461  23.423  18.115
97955W        W98820  11.964  24.602  15.309
97956W        W98821  13.719  24.100  15.573
97957W        W98822  11.487  22.726  17.297
97958W        W98823  12.816  24.788  15.761
97959W        W98824  14.566  23.348  15.942
97960W        W98825  12.788  21.981  17.661
97961W        W98826  13.568  24.686  16.740
97962W        W98827  13.871  25.030  16.448
97963W        W98828  13.090  24.832  14.876
97964W        W98829  11.100  24.724  17.718
97965W        W98830  11.843  22.716  16.956
97966W        W98831  11.813  22.064  16.066
97967W        W98832  13.434  22.906  16.758
97968W        W98833  12.232  24.077  14.958
97969W        W98834  14.230  24.019  16.457
97970W        W98835  11.557  24.777  17.880
97971W        W98836  13.944  25.459  15.677
97972W        W98837  12.043  22.479  16.122
97973W        W98838  11.812  23.972  16.212
97974W        W98839  12.125  25.383  16.962
97975W        W98840  14.192  25.479  17.994
97976W        W98841  13.351  23.667  16.927
97977W        W98842  11.200  23.465  14.842
97978W        W98843  14.334  25.123  15.539
97979W        W98844  14.171  22.447  15.158
97980W        W98845  12.310  21.966  17.561
97981W        W98846  14.016  24.768  16.019
97982W        W98847  14.045  23.324  15.924
97983W        W98848  12.162  22.997  16.140
97984W        W98849  12.407  23.259  17.464
97985W        W98850  13.518  24.412  17.327
97986W        W98851  12.168  22.866  17.439
97987W        W98852  12.147  25.332  16.055
97988W        W98853  11.464  25.291  17.689
97989W        W98854  11.576  24.652  14.819
97990W        W98855  14.093  24.410  15.629
97991W        W98856  11.697  23.202  17.515
97992W        W98857  14.470  23.132  14.996
97993W        W98858  12.215  24.189  15.467
97994W        W98859  13.314  23.571  17.548
97995W        W98860  13.205  23.199  17.092
97996W        W98861  11.765  23.571  17.121
97997W        W98862  13.975  25.459  16.950
97998W        W98863  13.766  22.093  17.944
97999W        W98864  11.430  22.243  17.531
98000W        W98865  11.769  23.266  16.584
98001W        W98866  12.138  23.080  14.706
98002W        W98867  10.941  24.839  17.251
98003W        W98868  12.526  23.548  16.694
98004W        W98869  12.349  22.573  14.799
98005W        W98870  11.484  23.389  15.580
98006W        W98871  11.255  25.241  17.017
98007W        W98872  14.050  23.467  15.125
98008W        W98873  14.145  22.383  17.811
98009W        W98874  13.581  24.592  15.774
98010W        W98875  11.179  23.516  17.951
98011W        W98876  14.145  21.980  15.247
98012W        W98877  13.665  24.455  15.258
98013W        W98878  12.567  23.513  15.343
98014W        W98879  13.754  22.317  14.866
98015W        W98880  13.819  22.924  17.052
98016W        W98881  11.528  23.517  16.259
98017W        W98882  11.822  24.456  15.908
98018W        W98883  13.585  23.076  15.873
98019W        W98884  12.608  22.455  16.569
98020W        W98885  14.570  24.366  17.080
98021W        W98886  14.488  22.353  16.641
98022W        W98887  11.027  25.183  16.017
98023W        W98888  11.536  24.370  15.553
98024W        W98889  11.451  21.987  18.106
98025W        W98890  12.570  24.840  18.208
98026W        W98891  14.325  23.808  15.998
98027W        W98892  13.679  23.985  14.878
98028W        W98893  12.974  25.506  17.090
98029W        W98894  13.831  24.228  18.127
98030W        W98895  12.646  21.938  15.407
98031W        W98896  13.359  22.807  16.266
98032W        W98897  11.045  24.394  16.598
98033W        W98898  12.298  22.356  15.239
98034W        W98899  12.102  23.840  18.088
98035W        W98900  13.096  22.821  15.802
98036W        W98901  13.301  24.231  16.924
98037W        W98902  11.455  24.836  17.359
98038W        W98903  12.046  24.819  18.082
98039W        W98904  11.897  22.616  15.096
98040W        W98905  13.414  22.758  15.421
98041W        W98906  13.372  24.866  17.658
98042W        W98907  12.057  23.458  16.257
98043W        W98908  11.712  25.156  17.122
98044W        W98909  14.457  25.273  14.723
98045W        W98910  11.320  23.945  17.719
98046W        W98911  13.315  24.207  16.407
98047W        W98912  11.751  23.856  15.649
98048W        W98913  12.122  24.863  17.044
98049W        W98914  12.500  22.282  16.085
98050W        W98915  11.111  24.266  15.015
98051W        W98916  12.630  23.217  14.885
98052W        W98917  11.276  23.766  15.904
98053W        W98918  12.566  22.408  17.368
98054W        W98919  14.238  22.117  14.795
98055W        W98920  14.331  23.863  17.894
98056W        W98921  12.985  25.120  18.046
98057W        W98922  14.543  24.214  17.568
98058W        W98923  13.951  25.012  18.179
98059W        W98924  11.690  25.468  16.657
98060W        W98925  14.549  24.090  15.531
98061W        W98926  13.079  23.357  16.044
98062W        W98927  12.846  21.969  15.934
98063W        W98928  11.905  24.953  15.771
98064W        W98929  12.404  22.694  16.996
98065W        W98930  12.104  22.063  16.465
98066W        W98931  11.167  24.885  15.013
98067W        W98932  12.983  24.249  15.731
98068W        W98933  11.858  25.044  17.610
98069W        W98934  11.335  23.867  15.306
98070W        W98935  11.220  22.410  16.305
98071W        W98936  12.768  24.375  16.362
98072W        W98937  11.020  22.229  15.382
98073W        W98938  13.684  23.435  17.309
98074W        W98939  13.561  22.821  14.881
98075W        W98940  14.078  24.493  16.529
98076W        W98941  12.739  24.977  16.360
98077W        W98942  12.151  25.081  15.271
98078W        W98943  13.433  21.984  14.701
98079W        W98944  11.233  25.244  16.442
98080W        W98945  13.430  23.002  18.077
98081W        W98946  11.413  22.532  18.076
98082W        W98947  11.144  23.132  15.409
98083W        W98948  11.835  23.121  15.134
98084W        W98949  13.598  23.448  17.951
98085W        W98950  11.941  23.729  16.660
98086W        W98951  13.415  22.015  15.780
98087W        W98952  12.546  25.446  16.283
98088W        W98953  13.760  24.908  17.220
98089W        W98954  13.344  25.057  16.331
98090W        W98955  13.363  24.037  15.925
98091W        W98956  12.825  22.262  14.996
98092W        W98957  14.506  21.890  15.718
98093W        W98958  12.194  23.525  14.881
98094W        W98959  14.360  22.862  15.871
98095W        W98960  13.052  24.032  14.748
98096W        W98961  13.988  24.232  17.496
98097W        W98962  13.642  24.933  14.963
98098W        W98963  12.257  22.608  17.869
98099W        W98964  12.077  23.192  17.110
98100W        W98965  14.169  24.687  17.387
98101W        W98966  13.269  22.637  17.764
98102W        W98967  11.113  23.108  17.541
98103W        W98968  12.873  23.585  17.267
98104W        W98969  11.230  24.343  15.924
98105W        W98970  11.377  23.640  16.814
98106W        W98971  13.694  23.926  17.164
98107W        W98972  13.466  25.306  17.975
98108W        W98973  13.362  23.045  17.528
98109W        W98974  13.639  25.099  15.933
98110W        W98975  12.641  24.819  17.256
98111W        W98976  12.126  25.174  16.525
98112W        W98977  13.931  24.345  16.944
98113W        W98978  12.981  24.417  18.081
98114W        W98979  11.586  24.370  16.420
98115W        W98980  13.932  24.129  16.065
98116W        W98981  13.573  25.195  16.816
98117W        W98982  11.551  24.924  16.686
98118W        W98983  12.572  22.976  17.896
98119W        W98984  13.023  25.142  15.407
98120W        W98985  12.331  24.397  18.045
98121W        W98986  12.457  24.635  15.422
98122W        W98987  11.678  23.375  14.681
98123W        W98988  11.017  25.461  21.580
98124W        W98989  11.393  24.354  21.103
98125W        W98990  14.098  24.084  18.873
98126W        W98991  14.228  25.169  20.900
98127W        W98992  12.146  25.160  18.426
98128W        W98993  12.229  23.312  19.409
98129W        W98994  11.744  23.160  19.573
98130W        W98995  12.735  23.975  19.007
98131W        W98996  12.410  25.067  21.362
98132W        W98997  11.059  22.628  21.325
98133W        W98998  11.821  21.908  21.127
98134W        W98999  13.515  22.296  20.014
98135W        W99000  13.164  23.167  18.584
98136W        W99001  13.734  22.601  21.675
98137W        W99002  11.100  22.393  20.800
98138W        W99003  11.199  25.012  21.821
98139W        W99004  12.721  24.402  18.553
98140W        W99005  11.153  23.185  20.246
98141W        W99006  12.046  23.076  21.483
98142W        W99007  14.505  22.935  19.982
98143W        W99008  14.269  23.978  20.841
98144W        W99009  12.577  23.311  19.868
98145W        W99010  13.123  24.650  20.237
98146W        W99011  11.623  24.084  20.469
98147W        W99012  10.982  23.612  20.040
98148W        W99013  12.018  23.584  21.232
98149W        W99014  14.289  23.367  21.486
98150W        W99015  11.905  24.811  19.931
98151W        W99016  13.026  24.500  21.065
98152W        W99017  12.246  23.140  20.290
98153W        W99018  12.538  23.924  19.933
98154W        W99019  13.535  24.697  21.781
98155W        W99020  12.614  24.017  21.791
98156W        W99021  12.595  23.733  21.269
98157W        W99022  11.004  23.124  21.791
98158W        W99023  13.836  24.659  21.390
98159W        W99024  11.417  22.241  19.388
98160W        W99025  11.944  24.499  20.387
98161W        W99026  14.407  24.282  19.677
98162W        W99027  13.820  22.682  20.244
98163W        W99028  14.105  22.635  18.339
98164W        W99029  14.570  23.436  20.645
98165W        W99030  12.537  25.143  20.398
98166W        W99031  14.311  24.609  18.836
98167W        W99032  11.440  25.395  18.590
98168W        W99033  11.833  25.441  19.266
98169W        W99034  11.630  22.195  20.692
98170W        W99035  14.253  23.213  20.967
98171W        W99036  13.658  23.635  19.426
98172W        W99037  13.624  23.323  18.453
98173W        W99038  12.832  24.467  20.593
98174W        W99039  12.638  22.797  19.792
98175W        W99040  13.238  24.884  20.786
98176W        W99041  14.109  23.675  19.208
98177W        W99042  13.011  22.333  19.224
98178W        W99043  11.668  25.027  18.907
98179W        W99044  11.039  22.526  19.506
98180W        W99045  13.825  23.133  19.980
98181W        W99046  11.283  24.750  19.895
98182W        W99047  12.624  25.100  18.765
98183W        W99048  14.016  23.126  18.229
98184W        W99049  11.039  24.884  20.393
98185W        W99050  11.830  24.456  20.873
98186W        W99051  12.203  23.816  19.492
98187W        W99052  12.225  22.221  20.585
98188W        W99053  14.454  21.983  19.882
98189W        W99054  11.673  23.855  18.350
98190W        W99055  11.328  22.888  18.529
98191W        W99056  11.390  24.844  19.323
98192W        W99057  12.521  24.327  19.571
98193W        W99058  13.853  25.186  21.285
98194W        W99059  12.779  22.828  18.969
98195W        W99060  14.162  25.226  19.741
98196W        W99061  13.839  23.079  21.339
98197W        W99062  14.552  24.735  19.473
98198W        W99063  13.179  24.027  20.957
98199W        W99064  10.945  23.578  19.163
98200W        W99065  12.056  23.993  20.736
98201W        W99066  13.260  23.257  19.114
98202W        W99067  13.137  23.747  19.218
98203W        W99068  11.480  23.167  20.692
98204W        W99069  11.465  23.043  21.614
98205W        W99070  11.355  21.960  19.773
98206W        W99071  13.123  22.307  20.334
98207W        W99072  12.771  22.492  21.497
98208W        W99073  13.126  22.641  18.675
98209W        W99074  14.309  25.034  21.429
98210W        W99075  13.276  22.115  21.468
98211W        W99076  14.295  24.416  21.590
98212W        W99077  13.725  22.583  21.186
98213W        W99078  13.525  22.521  19.456
98214W        W99079  13.918  23.655  21.860
98215W        W99080  11.658  25.231  19.846
98216W        W99081  12.316  22.948  18.832
98217W        W99082  11.885  22.232  21.496
98218W        W99083  13.937  22.716  19.177
98219W        W99084  14.304  23.198  19.122
98220W        W99085  12.047  25.415  21.593
98221W        W99086  11.973  21.951  18.828
98222W        W99087  14.294  22.485  19.863
98223W        W99088  14.444  24.734  18.308
98224W        W99089  11.351  23.937  20.010
98225W        W99090  13.268  22.524  18.240
98226W        W99091  14.402  24.856  19.960
98227W        W99092  14.441  22.050  20.710
98228W        W99093  12.886  23.262  21.264
98229W        W99094  12.979  24.601  18.967
98230W        W99095  13.379  23.895  21.707
98231W        W99096  13.053  21.872  20.016
98232W        W99097  11.665  22.775  20.079
98233W        W99098  11.219  23.975  20.853
98234W        W99099  13.078  25.168  19.559
98235W        W99100  14.272  22.765  20.431
98236W        W99101  12.909  25.112  21.198
98237W        W99102  14.252  24.171  18.403
98238W        W99103  12.687  23.654  19.464
98239W        W99104  14.539  22.165  21.205
98240W        W99105  12.688  24.000  20.799
98241W        W99106  12.905  22.886  20.244
98242W        W99107  13.757  23.184  19.082
98243W        W99108  14.044  22.917  18.724
98244W        W99109  13.853  24.957  19.113
98245W        W99110  13.687  24.560  19.909
98246W        W99111  13.583  23.639  18.887
98247W        W99112  13.016  23.849  19.873
98248W        W99113  13.897  23.637  19.940
98249W        W99114  11.272  22.652  20.364
98250W        W99115  14.050  23.704  21.191
98251W        W99116  14.401  25.322  20.337
98252W        W99117  12.331  24.766  19.739
98253W        W99118  13.338  25.299  21.063
98254W        W99119  13.332  22.629  20.827
98255W        W99120  12.539  25.337  20.888
98256W        W99121  14.236  22.291  19.354
98257W        W99122  14.027  23.610  20.655
98258W        W99123  11.010  22.931  20.693
98259W        W99124  13.870  22.726  19.711
98260W        W99125  14.281  22.877  21.488
98261W        W99126  13.166  24.576  19.706
98262W        W99127  12.422  25.167  19.319
98263W        W99128  11.537  22.347  18.577
98264W        W99129  12.641  22.001  20.387
98265W        W99130  11.669  25.121  18.235
98266W        W99131  12.043  23.587  18.986
98267W        W99132  12.697  24.216  21.299
98268W        W99133  12.527  22.574  19.289
98269W        W99134  13.883  22.171  19.717
98270W        W99135  13.603  25.453  20.045
98271W        W99136  13.015  25.101  20.385
98272W        W99137  12.411  24.138  20.346
98273W        W99138  14.181  24.861  20.472
98274W        W99139  11.875  22.364  19.241
98275W        W99140  12.397  24.661  20.201
98276W        W99141  11.880  22.592  18.266
98277W        W99142  12.681  23.201  20.660
98278W        W99143  13.529  22.067  20.530
98279W        W99144  10.949  23.910  20.415
98280W        W99145  12.653  23.728  18.573
98281W        W99146  11.921  22.043  18.343
98282W        W99147  12.659  23.124  19.394
98283W        W99148  13.629  22.100  21.093
98284W        W99149  12.217  24.112  21.202
98285W        W99150  13.021  23.894  21.419
98286W        W99151  13.638  23.924  21.312
98287W        W99152  12.922  22.064  21.817
98288W        W99153  12.144  22.680  20.210
98289W        W99154  11.570  22.636  19.608
98290W        W99155  11.356  25.348  19.284
98291W        W99156  12.688  24.678  21.409
98292W        W99157  11.723  24.163  18.768
98293W        W99158  13.403  23.548  19.989
98294W        W99159  13.683  23.347  20.388
98295W        W99160  12.888  24.021  20.322
98296W        W99161  13.358  24.395  18.454
98297W        W99162  13.030  22.416  19.782
98298W        W99163  14.509  22.694  19.050
98299W        W99164  11.003  25.283  21.081
98300W        W99165  11.420  24.509  20.613
98301W        W99166  10.987  25.355  18.845
98302W        W99167  12.886  22.625  20.651
98303W        W99168  12.249  24.648  18.500
98304W        W99169  14.154  25.030  18.686
98305W        W99170  13.129  23.683  18.700
98306W        W99171  11.972  22.874  19.217
98307W        W99172  12.804  22.784  18.269
98308W        W99173  13.388  24.349  21.447
98309W        W99174  13.741  22.255  19.064
98310W        W99175  11.071  22.103  18.512
98311W        W99176  12.357  24.422  20.802
98312W        W99177  12.156  24.338  19.894
98313W        W99178  11.898  24.290  18.292
98314W        W99179  11.139  24.531  19.060
98315W        W99180  11.643  23.601  21.502
98316W        W99181  12.347  22.161  21.688
98317W        W99182  13.056  22.303  21.044
98318W        W99183  12.251  22.071  19.325
98319W        W99184  13.310  22.148  18.830
98320W        W99185  11.255  22.080  20.407
98321W        W99186  11.303  23.043  19.777
98322W        W99187  13.992  22.151  20.183
98323W        W99188  11.414  22.649  18.997
98324W        W99189  13.985  22.337  20.613
98325W        W99190  14.381  23.540  18.298
98326W        W99191  11.673  22.298  20.117
98327W        W99192  12.787  22.870  21.057
98328W        W99193  10.935  22.560  18.535
98329W        W99194  11.721  23.949  21.096
98330W        W99195  13.079  23.347  20.275
98331W        W99196  12.946  25.426  18.571
98332W        W99197  11.092  23.933  18.268
98333W        W99198  11.827  24.344  21.394
98334W        W99199  11.348  23.511  21.025
98335W        W99200  12.339  23.616  20.819
98336W        W99201  14.107  21.975  21.081
98337W        W99202  14.505  23.585  21.072
98338W        W99203  14.493  23.785  18.758
98339W        W99204  13.356  24.117  18.857
98340W        W99205  13.830  25.417  18.552
98341W        W99206  13.007  23.407  21.694
98342W        W99207  11.337  24.374  21.734
98343W        W99208  14.543  22.296  21.686
98344W        W99209  14.261  23.224  20.307
98345W        W99210  12.569  25.354  21.784
98346W        W99211  12.424  21.983  18.511
98347W        W99212  13.963  24.582  18.454
98348W        W99213  11.732  22.675  21.340
98349W        W99214  12.166  24.669  21.202
98350W        W99215  14.292  22.660  21.000
98351W        W99216  13.503  25.319  18.968
98352W        W99217  13.742  23.938  20.335
98353W        W99218  11.992  22.354  21.002
98354W        W99219  12.461  23.423  21.759
98355W        W99220  11.964  24.602  18.953
98356W        W99221  13.719  24.100  19.217
98357W        W99222  11.487  22.726  20.941
98358W        W99223  12.816  24.788  19.405
98359W        W99224  14.566  23.348  19.586
98360W        W99225  12.788  21.981  21.305
98361W        W99226  13.568  24.686  20.384
98362W        W99227  13.871  25.030  20.092
98363W        W99228  13.090  24.832  18.520
98364W        W99229  11.100  24.724  21.362
98365W        W99230  11.843  22.716  20.600
98366W        W99231  11.813  22.064  19.710
98367W        W99232  13.434  22.906  20.402
98368W        W99233  12.232  24.077  18.602
98369W        W99234  14.230  24.019  20.101
98370W        W99235  11.557  24.777  21.524
98371W        W99236  13.944  25.459  19.321
98372W        W99237  12.043  22.479  19.766
98373W        W99238  11.812  23.972  19.856
98374W        W99239  12.125  25.383  20.606
98375W        W99240  14.192  25.479  21.638
98376W        W99241  13.351  23.667  20.571
98377W        W99242  11.200  23.465  18.486
98378W        W99243  14.334  25.123  19.183
98379W        W99244  14.171  22.447  18.802
98380W        W99245  12.310  21.966  21.205
98381W        W99246  14.016  24.768  19.663
98382W        W99247  14.045  23.324  19.568
98383W        W99248  12.162  22.997  19.784
98384W        W99249  12.407  23.259  21.108
98385W        W99250  13.518  24.412  20.971
98386W        W99251  12.168  22.866  21.083
98387W        W99252  12.147  25.332  19.699
98388W        W99253  11.464  25.291  21.333
98389W        W99254  11.576  24.652  18.463
98390W        W99255  14.093  24.410  19.273
98391W        W99256  11.697  23.202  21.159
98392W        W99257  14.470  23.132  18.640
98393W        W99258  12.215  24.189  19.111
98394W        W99259  13.314  23.571  21.192
98395W        W99260  13.205  23.199  20.736
98396W        W99261  11.765  23.571  20.765
98397W        W99262  13.975  25.459  20.594
98398W        W99263  13.766  22.093  21.588
98399W        W99264  11.430  22.243  21.175
98400W        W99265  11.769  23.266  20.228
98401W        W99266  12.138  23.080  18.350
98402W        W99267  10.941  24.839  20.895
98403W        W99268  12.526  23.548  20.338
98404W        W99269  12.349  22.573  18.443
98405W        W99270  11.484  23.389  19.224
98406W        W99271  11.255  25.241  20.661
98407W        W99272  14.050  23.467  18.769
98408W        W99273  14.145  22.383  21.455
98409W        W99274  13.581  24.592  19.418
98410W        W99275  11.179  23.516  21.595
98411W        W99276  14.145  21.980  18.891
98412W        W99277  13.665  24.455  18.902
98413W        W99278  12.567  23.513  18.987
98414W        W99279  13.754  22.317  18.510
98415W        W99280  13.819  22.924  20.696
98416W        W99281  11.528  23.517  19.903
98417W        W99282  11.822  24.456  19.552
98418W        W99283  13.585  23.076  19.517
98419W        W99284  12.608  22.455  20.213
98420W        W99285  14.570  24.366  20.724
98421W        W99286  14.488  22.353  20.285
98422W        W99287  11.027  25.183  19.661
98423W        W99288  11.536  24.370  19.197
98424W        W99289  11.451  21.987  21.750
98425W        W99290  14.325  23.808  19.642
98426W        W99291  13.679  23.985  18.522
98427W        W99292  12.974  25.506  20.734
98428W        W99293  13.831  24.228  21.771
98429W        W99294  12.646  21.938  19.051
98430W        W99295  13.359  22.807  19.910
98431W        W99296  11.045  24.394  20.242
98432W        W99297  12.298  22.356  18.883
98433W        W99298  12.102  23.840  21.732
98434W        W99299  13.096  22.821  19.446
98435W        W99300  13.301  24.231  20.568
98436W        W99301  11.455  24.836  21.003
98437W        W99302  12.046  24.819  21.726
98438W        W99303  11.897  22.616  18.740
98439W        W99304  13.414  22.758  19.065
98440W        W99305  13.372  24.866  21.302
98441W        W99306  12.057  23.458  19.901
98442W        W99307  11.712  25.156  20.766
98443W        W99308  14.457  25.273  18.367
98444W        W99309  11.320  23.945  21.363
98445W        W99310  13.315  24.207  20.051
98446W        W99311  11.751  23.856  19.293
98447W        W99312  12.122  24.863  20.688
98448W        W99313  12.500  22.282  19.729
98449W        W99314  11.111  24.266  18.659
98450W        W99315  12.630  23.217  18.529
98451W        W99316  11.276  23.766  19.548
98452W        W99317  12.566  22.408  21.012
98453W        W99318  14.238  22.117  18.439
98454W        W99319  14.331  23.863  21.538
98455W        W99320  12.985  25.120  21.690
98456W        W99321  14.543  24.214  21.212
98457W        W99322  13.951  25.012  21.823
98458W        W99323  11.690  25.468  20.301
98459W        W99324  14.549  24.090  19.175
98460W        W99325  13.079  23.357  19.688
98461W        W99326  12.846  21.969  19.578
98462W        W99327  11.905  24.953  19.415
98463W        W99328  12.404  22.694  20.640
98464W        W99329  12.104  22.063  20.109
98465W        W99330  11.167  24.885  18.657
98466W        W99331  12.983  24.249  19.375
98467W        W99332  11.858  25.044  21.254
98468W        W99333  11.335  23.867  18.950
98469W        W99334  11.220  22.410  19.949
98470W        W99335  12.768  24.375  20.006
98471W        W99336  11.020  22.229  19.026
98472W        W99337  13.684  23.435  20.953
98473W        W99338  13.561  22.821  18.525
98474W        W99339  14.078  24.493  20.173
98475W        W99340  12.739  24.977  20.004
98476W        W99341  12.151  25.081  18.915
98477W        W99342  13.433  21.984  18.345
98478W        W99343  11.233  25.244  20.086
98479W        W99344  13.430  23.002  21.721
98480W        W99345  11.413  22.532  21.720
98481W        W99346  11.144  23.132  19.053
98482W        W99347  11.835  23.121  18.778
98483W        W99348  13.598  23.448  21.595
98484W        W99349  11.941  23.729  20.304
98485W        W99350  13.415  22.015  19.424
98486W        W99351  12.546  25.446  19.927
98487W        W99352  13.760  24.908  20.864
98488W        W99353  13.344  25.057  19.975
98489W        W99354  13.363  24.037  19.569
98490W        W99355  12.825  22.262  18.640
98491W        W99356  14.506  21.890  19.362
98492W        W99357  12.194  23.525  18.525
98493W        W99358  14.360  22.862  19.515
98494W        W99359  13.052  24.032  18.392
98495W        W99360  13.988  24.232  21.140
98496W        W99361  13.642  24.933  18.607
98497W        W99362  12.257  22.608  21.513
98498W        W99363  12.077  23.192  20.754
98499W        W99364  14.169  24.687  21.031
98500W        W99365  13.269  22.637  21.408
98501W        W99366  11.113  23.108  21.185
98502W        W99367  12.873  23.585  20.911
98503W        W99368  11.230  24.343  19.568
98504W        W99369  11.377  23.640  20.458
98505W        W99370  13.694  23.926  20.808
98506W        W99371  13.466  25.306  21.619
98507W        W99372  13.362  23.045  21.172
98508W        W99373  13.639  25.099  19.577
98509W        W99374  12.641  24.819  20.900
98510W        W99375  12.126  25.174  20.169
98511W        W99376  13.931  24.345  20.588
98512W        W99377  12.981  24.417  21.725
98513W        W99378  11.586  24.370  20.064
98514W        W99379  13.932  24.129  19.709
98515W        W99380  13.573  25.195  20.460
98516W        W99381  11.551  24.924  20.330
98517W        W99382  12.572  22.976  21.540
98518W        W99383  13.023  25.142  19.051
98519W        W99384  12.331  24.397  21.689
98520W        W99385  12.457  24.635  19.066
98521W        W99386  11.678  23.375  18.325
98522W        W99387  11.017  25.461  25.225
98523W        W99388  11.393  24.354  24.748
98524W        W99389  14.098  24.084  22.518
98525W        W99390  14.228  25.169  24.545
98526W        W99391  12.146  25.160  22.071
98527W        W99392  12.229  23.312  23.054
98528W        W99393  11.744  23.160  23.218
98529W        W99394  12.735  23.975  22.652
98530W        W99395  12.410  25.067  25.007
98531W        W99396  11.059  22.628  24.970
98532W        W99397  11.821  21.908  24.772
98533W        W99398  13.515  22.296  23.659
98534W        W99399  13.164  23.167  22.229
98535W        W99400  13.734  22.601  25.320
98536W        W99401  11.100  22.393  24.445
98537W        W99402  11.199  25.012  25.466
98538W        W99403  12.721  24.402  22.198
98539W        W99404  11.153  23.185  23.891
98540W        W99405  12.046  23.076  25.128
98541W        W99406  14.505  22.935  23.627
98542W        W99407  14.269  23.978  24.486
98543W        W99408  12.577  23.311  23.513
98544W        W99409  13.123  24.650  23.882
98545W        W99410  11.623  24.084  24.114
98546W        W99411  10.982  23.612  23.685
98547W        W99412  12.018  23.584  24.877
98548W        W99413  14.289  23.367  25.131
98549W        W99414  11.905  24.811  23.576
98550W        W99415  13.026  24.500  24.710
98551W        W99416  12.246  23.140  23.935
98552W        W99417  12.538  23.924  23.578
98553W        W99418  13.535  24.697  25.426
98554W        W99419  12.614  24.017  25.436
98555W        W99420  12.595  23.733  24.914
98556W        W99421  11.004  23.124  25.436
98557W        W99422  13.836  24.659  25.035
98558W        W99423  11.417  22.241  23.033
98559W        W99424  11.944  24.499  24.032
98560W        W99425  14.407  24.282  23.322
98561W        W99426  13.820  22.682  23.889
98562W        W99427  14.105  22.635  21.984
98563W        W99428  14.570  23.436  24.290
98564W        W99429  12.537  25.143  24.043
98565W        W99430  14.311  24.609  22.481
98566W        W99431  11.440  25.395  22.235
98567W        W99432  11.833  25.441  22.911
98568W        W99433  11.630  22.195  24.337
98569W        W99434  14.253  23.213  24.612
98570W        W99435  13.658  23.635  23.071
98571W        W99436  13.624  23.323  22.098
98572W        W99437  12.832  24.467  24.238
98573W        W99438  12.638  22.797  23.437
98574W        W99439  13.238  24.884  24.431
98575W        W99440  14.109  23.675  22.853
98576W        W99441  13.011  22.333  22.869
98577W        W99442  11.668  25.027  22.552
98578W        W99443  11.039  22.526  23.151
98579W        W99444  13.825  23.133  23.625
98580W        W99445  11.283  24.750  23.540
98581W        W99446  12.624  25.100  22.410
98582W        W99447  14.016  23.126  21.874
98583W        W99448  11.039  24.884  24.038
98584W        W99449  11.830  24.456  24.518
98585W        W99450  12.203  23.816  23.137
98586W        W99451  12.225  22.221  24.230
98587W        W99452  14.454  21.983  23.527
98588W        W99453  11.673  23.855  21.995
98589W        W99454  11.328  22.888  22.174
98590W        W99455  11.390  24.844  22.968
98591W        W99456  12.521  24.327  23.216
98592W        W99457  13.853  25.186  24.930
98593W        W99458  12.779  22.828  22.614
98594W        W99459  14.162  25.226  23.386
98595W        W99460  13.839  23.079  24.984
98596W        W99461  14.552  24.735  23.118
98597W        W99462  13.179  24.027  24.602
98598W        W99463  10.945  23.578  22.808
98599W        W99464  12.056  23.993  24.381
98600W        W99465  13.260  23.257  22.759
98601W        W99466  13.137  23.747  22.863
98602W        W99467  11.480  23.167  24.337
98603W        W99468  11.465  23.043  25.259
98604W        W99469  11.355  21.960  23.418
98605W        W99470  13.123  22.307  23.979
98606W        W99471  12.771  22.492  25.142
98607W        W99472  13.126  22.641  22.320
98608W        W99473  14.309  25.034  25.074
98609W        W99474  13.276  22.115  25.113
98610W        W99475  14.295  24.416  25.235
98611W        W99476  13.725  22.583  24.831
98612W        W99477  13.525  22.521  23.101
98613W        W99478  13.918  23.655  25.505
98614W        W99479  11.658  25.231  23.491
98615W        W99480  12.316  22.948  22.477
98616W        W99481  11.885  22.232  25.141
98617W        W99482  13.937  22.716  22.822
98618W        W99483  14.304  23.198  22.767
98619W        W99484  12.047  25.415  25.238
98620W        W99485  11.973  21.951  22.473
98621W        W99486  14.294  22.485  23.508
98622W        W99487  14.444  24.734  21.953
98623W        W99488  11.351  23.937  23.655
98624W        W99489  13.268  22.524  21.885
98625W        W99490  14.402  24.856  23.605
98626W        W99491  14.441  22.050  24.355
98627W        W99492  12.886  23.262  24.909
98628W        W99493  12.979  24.601  22.612
98629W        W99494  13.379  23.895  25.352
98630W        W99495  13.053  21.872  23.661
98631W        W99496  11.665  22.775  23.724
98632W        W99497  11.219  23.975  24.498
98633W        W99498  13.078  25.168  23.204
98634W        W99499  14.272  22.765  24.076
98635W        W99500  12.909  25.112  24.843
98636W        W99501  14.252  24.171  22.048
98637W        W99502  12.687  23.654  23.109
98638W        W99503  14.539  22.165  24.850
98639W        W99504  12.688  24.000  24.444
98640W        W99505  12.905  22.886  23.889
98641W        W99506  13.757  23.184  22.727
98642W        W99507  14.044  22.917  22.369
98643W        W99508  13.853  24.957  22.758
98644W        W99509  13.687  24.560  23.554
98645W        W99510  13.583  23.639  22.532
98646W        W99511  13.016  23.849  23.518
98647W        W99512  13.897  23.637  23.585
98648W        W99513  11.272  22.652  24.009
98649W        W99514  14.050  23.704  24.836
98650W        W99515  14.401  25.322  23.982
98651W        W99516  12.331  24.766  23.384
98652W        W99517  13.338  25.299  24.708
98653W        W99518  13.332  22.629  24.472
98654W        W99519  12.539  25.337  24.533
98655W        W99520  14.236  22.291  22.999
98656W        W99521  14.027  23.610  24.300
98657W        W99522  11.010  22.931  24.338
98658W        W99523  13.870  22.726  23.356
98659W        W99524  14.281  22.877  25.133
98660W        W99525  13.166  24.576  23.351
98661W        W99526  12.422  25.167  22.964
98662W        W99527  11.537  22.347  22.222
98663W        W99528  12.641  22.001  24.032
98664W        W99529  11.669  25.121  21.880
98665W        W99530  12.043  23.587  22.631
98666W        W99531  12.697  24.216  24.944
98667W        W99532  12.527  22.574  22.934
98668W        W99533  13.883  22.171  23.362
98669W        W99534  13.603  25.453  23.690
98670W        W99535  13.015  25.101  24.030
98671W        W99536  12.411  24.138  23.991
98672W        W99537  14.181  24.861  24.117
98673W        W99538  11.875  22.364  22.886
98674W        W99539  12.397  24.661  23.846
98675W        W99540  11.880  22.592  21.911
98676W        W99541  12.681  23.201  24.305
98677W        W99542  13.529  22.067  24.175
98678W        W99543  10.949  23.910  24.060
98679W        W99544  12.653  23.728  22.218
98680W        W99545  11.921  22.043  21.988
98681W        W99546  12.659  23.124  23.039
98682W        W99547  13.629  22.100  24.738
98683W        W99548  12.217  24.112  24.847
98684W        W99549  13.021  23.894  25.064
98685W        W99550  13.638  23.924  24.957
98686W        W99551  12.922  22.064  25.462
98687W        W99552  12.144  22.680  23.855
98688W        W99553  11.570  22.636  23.253
98689W        W99554  11.356  25.348  22.929
98690W        W99555  12.688  24.678  25.054
98691W        W99556  11.723  24.163  22.413
98692W        W99557  13.403  23.548  23.634
98693W        W99558  13.683  23.347  24.033
98694W        W99559  12.888  24.021  23.967
98695W        W99560  13.358  24.395  22.099
98696W        W99561  13.030  22.416  23.427
98697W        W99562  14.509  22.694  22.695
98698W        W99563  11.003  25.283  24.726
98699W        W99564  11.420  24.509  24.258
98700W        W99565  10.987  25.355  22.490
98701W        W99566  12.886  22.625  24.296
98702W        W99567  12.249  24.648  22.145
98703W        W99568  14.154  25.030  22.331
98704W        W99569  13.129  23.683  22.345
98705W        W99570  11.972  22.874  22.862
98706W        W99571  12.804  22.784  21.914
98707W        W99572  13.388  24.349  25.092
98708W        W99573  13.741  22.255  22.709
98709W        W99574  11.071  22.103  22.157
98710W        W99575  12.357  24.422  24.447
98711W        W99576  12.156  24.338  23.539
98712W        W99577  11.898  24.290  21.937
98713W        W99578  11.139  24.531  22.705
98714W        W99579  11.643  23.601  25.147
98715W        W99580  12.347  22.161  25.333
98716W        W99581  13.056  22.303  24.689
98717W        W99582  12.251  22.071  22.970
98718W        W99583  13.310  22.148  22.475
98719W        W99584  11.255  22.080  24.052
98720W        W99585  11.303  23.043  23.422
98721W        W99586  13.992  22.151  23.828
98722W        W99587  11.414  22.649  22.642
98723W        W99588  13.985  22.337  24.258
98724W        W99589  14.381  23.540  21.943
98725W        W99590  11.673  22.298  23.762
98726W        W99591  12.787  22.870  24.702
98727W        W99592  10.935  22.560  22.180
98728W        W99593  11.721  23.949  24.741
98729W        W99594  13.079  23.347  23.920
98730W        W99595  12.946  25.426  22.216
98731W        W99596  11.092  23.933  21.913
98732W        W99597  11.827  24.344  25.039
98733W        W99598  11.348  23.511  24.670
98734W        W99599  12.339  23.616  24.464
98735W        W99600  14.107  21.975  24.726
98736W        W99601  14.505  23.585  24.717
98737W        W99602  14.493  23.785  22.403
98738W        W99603  13.356  24.117  22.502
98739W        W99604  13.830  25.417  22.197
98740W        W99605  13.007  23.407  25.339
98741W        W99606  11.337  24.374  25.379
98742W        W99607  14.543  22.296  25.331
98743W        W99608  14.261  23.224  23.952
98744W        W99609  12.569  25.354  25.429
98745W        W99610  12.424  21.983  22.156
98746W        W99611  13.963  24.582  22.099
98747W        W99612  11.732  22.675  24.985
98748W        W99613  12.166  24.669  24.847
98749W        W99614  14.292  22.660  24.645
98750W        W99615  13.503  25.319  22.613
98751W        W99616  13.742  23.938  23.980
98752W        W99617  11.992  22.354  24.647
98753W        W99618  12.461  23.423  25.404
98754W        W99619  11.964  24.602  22.598
98755W        W99620  13.719  24.100  22.862
98756W        W99621  11.487  22.726  24.586
98757W        W99622  12.816  24.788  23.050
98758W        W99623  14.566  23.348  23.231
98759W        W99624  12.788  21.981  24.950
98760W        W99625  13.568  24.686  24.029
98761W        W99626  13.871  25.030  23.737
98762W        W99627  13.090  24.832  22.165
98763W        W99628  11.100  24.724  25.007
98764W        W99629  11.843  22.716  24.245
98765W        W99630  11.813  22.064  23.355
98766W        W99631  13.434  22.906  24.047
98767W        W99632  12.232  24.077  22.247
98768W        W99633  14.230  24.019  23.746
98769W        W99634  11.557  24.777  25.169
98770W        W99635  13.944  25.459  22.966
98771W        W99636  12.043  22.479  23.411
98772W        W99637  11.812  23.972  23.501
98773W        W99638  12.125  25.383  24.251
98774W        W99639  14.192  25.479  25.283
98775W        W99640  13.351  23.667  24.216
98776W        W99641  11.200  23.465  22.131
98777W        W99642  14.334  25.123  22.828
98778W        W99643  14.171  22.447  22.447
98779W        W99644  12.310  21.966  24.850
98780W        W99645  14.016  24.768  23.308
98781W        W99646  14.045  23.324  23.213
98782W        W99647  12.162  22.997  23.429
98783W        W99648  12.407  23.259  24.753
98784W        W99649  13.518  24.412  24.616
98785W        W99650  12.168  22.866  24.728
98786W        W99651  12.147  25.332  23.344
98787W        W99652  11.464  25.291  24.978
98788W        W99653  11.576  24.652  22.108
98789W        W99654  14.093  24.410  22.918
98790W        W99655  11.697  23.202  24.804
98791W        W99656  14.470  23.132  22.285
98792W        W99657  12.215  24.189  22.756
98793W        W99658  13.314  23.571  24.837
98794W        W99659  13.205  23.199  24.381
98795W        W99660  11.765  23.571  24.410
98796W        W99661  13.975  25.459  24.239
98797W        W99662  13.766  22.093  25.233
98798W        W99663  11.430  22.243  24.820
98799W        W99664  11.769  23.266  23.873
98800W        W99665  12.138  23.080  21.995
98801W        W99666  10.941  24.839  24.540
98802W        W99667  12.526  23.548  23.983
98803W        W99668  12.349  22.573  22.088
98804W        W99669  11.484  23.389  22.869
98805W        W99670  11.255  25.241  24.306
98806W        W99671  14.050  23.467  22.414
98807W        W99672  14.145  22.383  25.100
98808W        W99673  13.581  24.592  23.063
98809W        W99674  11.179  23.516  25.240
98810W        W99675  14.145  21.980  22.536
98811W        W99676  13.665  24.455  22.547
98812W        W99677  12.567  23.513  22.632
98813W        W99678  13.754  22.317  22.155
98814W        W99679  13.819  22.924  24.341
98815W        W99680  11.528  23.517  23.548
98816W        W99681  11.822  24.456  23.197
98817W        W99682  13.585  23.076  23.162
98818W        W99683  12.608  22.455  23.858
98819W        W99684  14.570  24.366  24.369
98820W        W99685  14.488  22.353  23.930
98821W        W99686  11.027  25.183  23.306
98822W        W99687  11.536  24.370  22.842
98823W        W99688  11.451  21.987  25.395
98824W        W99689  12.570  24.840  25.497
98825W        W99690  14.325  23.808  23.287
98826W        W99691  13.679  23.985  22.167
98827W        W99692  12.974  25.506  24.379
98828W        W99693  13.831  24.228  25.416
98829W        W99694  12.646  21.938  22.696
98830W        W99695  13.359  22.807  23.555
98831W        W99696  11.045  24.394  23.887
98832W        W99697  12.298  22.356  22.528
98833W        W99698  12.102  23.840  25.377
98834W        W99699  13.096  22.821  23.091
98835W        W99700  13.301  24.231  24.213
98836W        W99701  11.455  24.836  24.648
98837W        W99702  12.046  24.819  25.371
98838W        W99703  11.897  22.616  22.385
98839W        W99704  13.414  22.758  22.710
98840W        W99705  13.372  24.866  24.947
98841W        W99706  12.057  23.458  23.546
98842W        W99707  11.712  25.156  24.411
98843W        W99708  14.457  25.273  22.012
98844W        W99709  11.320  23.945  25.008
98845W        W99710  13.315  24.207  23.696
98846W        W99711  11.751  23.856  22.938
98847W        W99712  12.122  24.863  24.333
98848W        W99713  12.500  22.282  23.374
98849W        W99714  11.111  24.266  22.304
98850W        W99715  12.630  23.217  22.174
98851W        W99716  11.276  23.766  23.193
98852W        W99717  12.566  22.408  24.657
98853W        W99718  14.238  22.117  22.084
98854W        W99719  14.331  23.863  25.183
98855W        W99720  12.985  25.120  25.335
98856W        W99721  13.951  25.012  25.468
98857W        W99722  11.690  25.468  23.946
98858W        W99723  14.549  24.090  22.820
98859W        W99724  13.079  23.357  23.333
98860W        W99725  12.846  21.969  23.223
98861W        W99726  11.905  24.953  23.060
98862W        W99727  12.404  22.694  24.285
98863W        W99728  12.104  22.063  23.754
98864W        W99729  11.167  24.885  22.302
98865W        W99730  12.983  24.249  23.020
98866W        W99731  11.858  25.044  24.899
98867W        W99732  11.335  23.867  22.595
98868W        W99733  11.220  22.410  23.594
98869W        W99734  12.768  24.375  23.651
98870W        W99735  11.020  22.229  22.671
98871W        W99736  13.684  23.435  24.598
98872W        W99737  13.561  22.821  22.170
98873W        W99738  14.078  24.493  23.818
98874W        W99739  12.739  24.977  23.649
98875W        W99740  12.151  25.081  22.560
98876W        W99741  13.433  21.984  21.990
98877W        W99742  11.233  25.244  23.731
98878W        W99743  13.430  23.002  25.366
98879W        W99744  11.413  22.532  25.365
98880W        W99745  11.144  23.132  22.698
98881W        W99746  11.835  23.121  22.423
98882W        W99747  13.598  23.448  25.240
98883W        W99748  11.941  23.729  23.949
98884W        W99749  13.415  22.015  23.069
98885W        W99750  12.546  25.446  23.572
98886W        W99751  13.760  24.908  24.509
98887W        W99752  13.344  25.057  23.620
98888W        W99753  13.363  24.037  23.214
98889W        W99754  12.825  22.262  22.285
98890W        W99755  14.506  21.890  23.007
98891W        W99756  12.194  23.525  22.170
98892W        W99757  14.360  22.862  23.160
98893W        W99758  13.052  24.032  22.037
98894W        W99759  13.988  24.232  24.785
98895W        W99760  13.642  24.933  22.252
98896W        W99761  12.257  22.608  25.158
98897W        W99762  12.077  23.192  24.399
98898W        W99763  14.169  24.687  24.676
98899W        W99764  13.269  22.637  25.053
98900W        W99765  11.113  23.108  24.830
98901W        W99766  12.873  23.585  24.556
98902W        W99767  11.230  24.343  23.213
98903W        W99768  11.377  23.640  24.103
98904W        W99769  13.694  23.926  24.453
98905W        W99770  13.466  25.306  25.264
98906W        W99771  13.362  23.045  24.817
98907W        W99772  13.639  25.099  23.222
98908W        W99773  12.641  24.819  24.545
98909W        W99774  12.126  25.174  23.814
98910W        W99775  13.931  24.345  24.233
98911W        W99776  12.981  24.417  25.370
98912W        W99777  11.586  24.370  23.709
98913W        W99778  13.932  24.129  23.354
98914W        W99779  13.573  25.195  24.105
98915W        W99780  11.551  24.924  23.975
98916W        W99781  12.572  22.976  25.185
98917W        W99782  13.023  25.142  22.696
98918W        W99783  12.331  24.397  25.334
98919W        W99784  12.457  24.635  22.711
98920W        W99785  11.678  23.375  21.970
98921W        W99786  11.017  25.461  28.869
98922W        W99787  11.393  24.354  28.392
98923W        W99788  14.098  24.084  26.162
98924W        W99789  14.228  25.169  28.189
98925W        W99790  12.146  25.160  25.715
98926W        W99791  12.229  23.312  26.698
98927W        W99792  11.744  23.160  26.862
98928W        W99793  12.735  23.975  26.296
98929W        W99794  12.410  25.067  28.651
98930W        W99795  11.059  22.628  28.614
98931W        W99796  11.821  21.908  28.416
98932W        W99797  13.515  22.296  27.303
98933W        W99798  13.164  23.167  25.873
98934W        W99799  13.734  22.601  28.964
98935W        W99800  11.100  22.393  28.089
98936W        W99801  11.199  25.012  29.110
98937W        W99802  12.721  24.402  25.842
98938W        W99803  11.153  23.185  27.535
98939W        W99804  12.046  23.076  28.772
98940W        W99805  14.505  22.935  27.271
98941W        W99806  14.269  23.978  28.130
98942W        W99807  12.577  23.311  27.157
98943W        W99808  13.123  24.650  27.526
98944W        W99809  11.623  24.084  27.758
98945W        W99810  10.982  23.612  27.329
98946W        W99811  12.018  23.584  28.521
98947W        W99812  14.289  23.367  28.775
98948W        W99813  11.905  24.811  27.220
98949W        W99814  13.026  24.500  28.354
98950W        W99815  12.246  23.140  27.579
98951W        W99816  12.538  23.924  27.222
98952W        W99817  13.535  24.697  29.070
98953W        W99818  12.614  24.017  29.080
98954W        W99819  12.595  23.733  28.558
98955W        W99820  11.004  23.124  29.080
98956W        W99821  13.836  24.659  28.679
98957W        W99822  11.417  22.241  26.677
98958W        W99823  11.944  24.499  27.676
98959W        W99824  14.407  24.282  26.966
98960W        W99825  13.820  22.682  27.533
98961W        W99826  14.105  22.635  25.628
98962W        W99827  14.570  23.436  27.934
98963W        W99828  12.537  25.143  27.687
98964W        W99829  14.311  24.609  26.125
98965W        W99830  11.440  25.395  25.879
98966W        W99831  11.833  25.441  26.555
98967W        W99832  11.630  22.195  27.981
98968W        W99833  14.253  23.213  28.256
98969W        W99834  13.658  23.635  26.715
98970W        W99835  13.624  23.323  25.742
98971W        W99836  12.832  24.467  27.882
98972W        W99837  12.638  22.797  27.081
98973W        W99838  13.238  24.884  28.075
98974W        W99839  14.109  23.675  26.497
98975W        W99840  13.011  22.333  26.513
98976W        W99841  11.668  25.027  26.196
98977W        W99842  11.039  22.526  26.795
98978W        W99843  13.825  23.133  27.269
98979W        W99844  11.283  24.750  27.184
98980W        W99845  12.624  25.100  26.054
98981W        W99846  14.016  23.126  25.518
98982W        W99847  11.039  24.884  27.682
98983W        W99848  11.830  24.456  28.162
98984W        W99849  12.203  23.816  26.781
98985W        W99850  12.225  22.221  27.874
98986W        W99851  14.454  21.983  27.171
98987W        W99852  11.673  23.855  25.639
98988W        W99853  11.328  22.888  25.818
98989W        W99854  11.390  24.844  26.612
98990W        W99855  12.521  24.327  26.860
98991W        W99856  13.853  25.186  28.574
98992W        W99857  12.779  22.828  26.258
98993W        W99858  14.162  25.226  27.030
98994W        W99859  13.839  23.079  28.628
98995W        W99860  14.552  24.735  26.762
98996W        W99861  13.179  24.027  28.246
98997W        W99862  10.945  23.578  26.452
98998W        W99863  12.056  23.993  28.025
98999W        W99864  13.260  23.257  26.403
99000W        W99865  13.137  23.747  26.507
99001W        W99866  11.480  23.167  27.981
99002W        W99867  11.465  23.043  28.903
99003W        W99868  11.355  21.960  27.062
99004W        W99869  13.123  22.307  27.623
99005W        W99870  12.771  22.492  28.786
99006W        W99871  13.126  22.641  25.964
99007W        W99872  14.309  25.034  28.718
99008W        W99873  13.276  22.115  28.757
99009W        W99874  14.295  24.416  28.879
99010W        W99875  13.725  22.583  28.475
99011W        W99876  13.525  22.521  26.745
99012W        W99877  13.918  23.655  29.149
99013W        W99878  11.658  25.231  27.135
99014W        W99879  12.316  22.948  26.121
99015W        W99880  11.885  22.232  28.785
99016W        W99881  13.937  22.716  26.466
99017W        W99882  14.304  23.198  26.411
99018W        W99883  12.047  25.415  28.882
99019W        W99884  11.973  21.951  26.117
99020W        W99885  14.294  22.485  27.152
99021W        W99886  14.444  24.734  25.597
99022W        W99887  11.351  23.937  27.299
99023W        W99888  13.268  22.524  25.529
99024W        W99889  14.402  24.856  27.249
99025W        W99890  14.441  22.050  27.999
99026W        W99891  12.886  23.262  28.553
99027W        W99892  12.979  24.601  26.256
99028W        W99893  13.379  23.895  28.996
99029W        W99894  13.053  21.872  27.305
99030W        W99895  11.665  22.775  27.368
99031W        W99896  11.219  23.975  28.142
99032W        W99897  13.078  25.168  26.848
99033W        W99898  14.272  22.765  27.720
99034W        W99899  12.909  25.112  28.487
99035W        W99900  14.252  24.171  25.692
99036W        W99901  12.687  23.654  26.753
99037W        W99902  14.539  22.165  28.494
99038W        W99903  12.688  24.000  28.088
99039W        W99904  12.905  22.886  27.533
99040W        W99905  13.757  23.184  26.371
99041W        W99906  14.044  22.917  26.013
99042W        W99907  13.853  24.957  26.402
99043W        W99908  13.687  24.560  27.198
99044W        W99909  13.583  23.639  26.176
99045W        W99910  13.016  23.849  27.162
99046W        W99911  13.897  23.637  27.229
99047W        W99912  11.272  22.652  27.653
99048W        W99913  14.050  23.704  28.480
99049W        W99914  14.401  25.322  27.626
99050W        W99915  12.331  24.766  27.028
99051W        W99916  13.338  25.299  28.352
99052W        W99917  13.332  22.629  28.116
99053W        W99918  12.539  25.337  28.177
99054W        W99919  14.236  22.291  26.643
99055W        W99920  14.027  23.610  27.944
99056W        W99921  11.010  22.931  27.982
99057W        W99922  13.870  22.726  27.000
99058W        W99923  14.281  22.877  28.777
99059W        W99924  13.166  24.576  26.995
99060W        W99925  12.422  25.167  26.608
99061W        W99926  11.537  22.347  25.866
99062W        W99927  12.641  22.001  27.676
99063W        W99928  11.669  25.121  25.524
99064W        W99929  12.043  23.587  26.275
99065W        W99930  12.697  24.216  28.588
99066W        W99931  12.527  22.574  26.578
99067W        W99932  13.883  22.171  27.006
99068W        W99933  13.603  25.453  27.334
99069W        W99934  13.015  25.101  27.674
99070W        W99935  12.411  24.138  27.635
99071W        W99936  14.181  24.861  27.761
99072W        W99937  11.875  22.364  26.530
99073W        W99938  12.397  24.661  27.490
99074W        W99939  11.880  22.592  25.555
99075W        W99940  12.681  23.201  27.949
99076W        W99941  13.529  22.067  27.819
99077W        W99942  10.949  23.910  27.704
99078W        W99943  12.653  23.728  25.862
99079W        W99944  11.921  22.043  25.632
99080W        W99945  12.659  23.124  26.683
99081W        W99946  13.629  22.100  28.382
99082W        W99947  12.217  24.112  28.491
99083W        W99948  13.021  23.894  28.708
99084W        W99949  13.638  23.924  28.601
99085W        W99950  12.922  22.064  29.106
99086W        W99951  12.144  22.680  27.499
99087W        W99952  11.570  22.636  26.897
99088W        W99953  11.356  25.348  26.573
99089W        W99954  12.688  24.678  28.698
99090W        W99955  11.723  24.163  26.057
99091W        W99956  13.403  23.548  27.278
99092W        W99957  13.683  23.347  27.677
99093W        W99958  12.888  24.021  27.611
99094W        W99959  13.358  24.395  25.743
99095W        W99960  13.030  22.416  27.071
99096W        W99961  14.509  22.694  26.339
99097W        W99962  11.003  25.283  28.370
99098W        W99963  11.420  24.509  27.902
99099W        W99964  10.987  25.355  26.134
99100W        W99965  12.886  22.625  27.940
99101W        W99966  12.249  24.648  25.789
99102W        W99967  14.154  25.030  25.975
99103W        W99968  13.129  23.683  25.989
99104W        W99969  11.972  22.874  26.506
99105W        W99970  12.804  22.784  25.558
99106W        W99971  13.388  24.349  28.736
99107W        W99972  13.741  22.255  26.353
99108W        W99973  11.071  22.103  25.801
99109W        W99974  12.357  24.422  28.091
99110W        W99975  12.156  24.338  27.183
99111W        W99976  11.898  24.290  25.581
99112W        W99977  11.139  24.531  26.349
99113W        W99978  11.643  23.601  28.791
99114W        W99979  12.347  22.161  28.977
99115W        W99980  13.056  22.303  28.333
99116W        W99981  12.251  22.071  26.614
99117W        W99982  13.310  22.148  26.119
99118W        W99983  11.255  22.080  27.696
99119W        W99984  11.303  23.043  27.066
99120W        W99985  13.992  22.151  27.472
99121W        W99986  11.414  22.649  26.286
99122W        W99987  13.985  22.337  27.902
99123W        W99988  14.381  23.540  25.587
99124W        W99989  11.673  22.298  27.406
99125W        W99990  12.787  22.870  28.346
99126W        W99991  10.935  22.560  25.824
99127W        W99992  11.721  23.949  28.385
99128W        W99993  13.079  23.347  27.564
99129W        W99994  12.946  25.426  25.860
99130W        W99995  11.092  23.933  25.557
99131W        W99996  11.827  24.344  28.683
99132W        W99997  12.339  23.616  28.108
99133W        W99998  14.107  21.975  28.370
99134W        W99999  14.505  23.585  28.361
99135W        W    0  14.493  23.785  26.047
99136W        W    1  13.356  24.117  26.146
99137W        W    2  13.830  25.417  25.841
99138W        W    3  13.007  23.407  28.983
99139W        W    4  11.337  24.374  29.023
99140W        W    5  14.543  22.296  28.975
99141W        W    6  14.261  23.224  27.596
99142W        W    7  12.569  25.354  29.073
99143W        W    8  12.424  21.983  25.800
99144W        W    9  13.963  24.582  25.743
99145W        W   10  11.732  22.675  28.629
99146W        W   11  12.166  24.669  28.491
99147W        W   12  14.292  22.660  28.289
99148W        W   13  13.503  25.319  26.257
99149W        W   14  13.742  23.938  27.624
99150W        W   15  11.992  22.354  28.291
99151W        W   16  12.461  23.423  29.048
99152W        W   17  11.964  24.602  26.242
99153W        W   18  13.719  24.100  26.506
99154W        W   19  11.487  22.726  28.230
99155W        W   20  12.816  24.788  26.694
99156W        W   21  14.566  23.348  26.875
99157W        W   22  12.788  21.981  28.594
99158W        W   23  13.568  24.686  27.673
99159W        W   24  13.871  25.030  27.381
99160W        W   25  13.090  24.832  25.809
99161W        W   26  11.100  24.724  28.651
99162W        W   27  11.843  22.716  27.889
99163W        W   28  11.813  22.064  26.999
99164W        W   29  13.434  22.906  27.691
99165W        W   30  12.232  24.077  25.891
99166W        W   31  14.230  24.019  27.390
99167W        W   32  11.557  24.777  28.813
99168W        W   33  13.944  25.459  26.610
99169W        W   34  12.043  22.479  27.055
99170W        W   35  11.812  23.972  27.145
99171W        W   36  12.125  25.383  27.895
99172W        W   37  14.192  25.479  28.927
99173W        W   38  13.351  23.667  27.860
99174W        W   39  11.200  23.465  25.775
99175W        W   40  14.334  25.123  26.472
99176W        W   41  14.171  22.447  26.091
99177W        W   42  12.310  21.966  28.494
99178W        W   43  14.016  24.768  26.952
99179W        W   44  14.045  23.324  26.857
99180W        W   45  12.162  22.997  27.073
99181W        W   46  12.407  23.259  28.397
99182W        W   47  13.518  24.412  28.260
99183W        W   48  12.168  22.866  28.372
99184W        W   49  12.147  25.332  26.988
99185W        W   50  11.464  25.291  28.622
99186W        W   51  11.576  24.652  25.752
99187W        W   52  14.093  24.410  26.562
99188W        W   53  11.697  23.202  28.448
99189W        W   54  14.470  23.132  25.929
99190W        W   55  12.215  24.189  26.400
99191W        W   56  13.314  23.571  28.481
99192W        W   57  13.205  23.199  28.025
99193W        W   58  11.765  23.571  28.054
99194W        W   59  13.975  25.459  27.883
99195W        W   60  13.766  22.093  28.877
99196W        W   61  11.430  22.243  28.464
99197W        W   62  11.769  23.266  27.517
99198W        W   63  12.138  23.080  25.639
99199W        W   64  10.941  24.839  28.184
99200W        W   65  12.526  23.548  27.627
99201W        W   66  12.349  22.573  25.732
99202W        W   67  11.484  23.389  26.513
99203W        W   68  11.255  25.241  27.950
99204W        W   69  14.050  23.467  26.058
99205W        W   70  14.145  22.383  28.744
99206W        W   71  13.581  24.592  26.707
99207W        W   72  11.179  23.516  28.884
99208W        W   73  14.145  21.980  26.180
99209W        W   74  13.665  24.455  26.191
99210W        W   75  12.567  23.513  26.276
99211W        W   76  13.754  22.317  25.799
99212W        W   77  13.819  22.924  27.985
99213W        W   78  11.528  23.517  27.192
99214W        W   79  11.822  24.456  26.841
99215W        W   80  13.585  23.076  26.806
99216W        W   81  12.608  22.455  27.502
99217W        W   82  14.570  24.366  28.013
99218W        W   83  14.488  22.353  27.574
99219W        W   84  11.027  25.183  26.950
99220W        W   85  11.536  24.370  26.486
99221W        W   86  11.451  21.987  29.039
99222W        W   87  12.570  24.840  29.141
99223W        W   88  14.325  23.808  26.931
99224W        W   89  13.679  23.985  25.811
99225W        W   90  12.974  25.506  28.023
99226W        W   91  13.831  24.228  29.060
99227W        W   92  12.646  21.938  26.340
99228W        W   93  13.359  22.807  27.199
99229W        W   94  11.045  24.394  27.531
99230W        W   95  12.298  22.356  26.172
99231W        W   96  12.102  23.840  29.021
99232W        W   97  13.096  22.821  26.735
99233W        W   98  13.301  24.231  27.857
99234W        W   99  11.455  24.836  28.292
99235W        W  100  12.046  24.819  29.015
99236W        W  101  11.897  22.616  26.029
99237W        W  102  13.414  22.758  26.354
99238W        W  103  13.372  24.866  28.591
99239W        W  104  12.057  23.458  27.190
99240W        W  105  11.712  25.156  28.055
99241W        W  106  14.457  25.273  25.656
99242W        W  107  11.320  23.945  28.652
99243W        W  108  13.315  24.207  27.340
99244W        W  109  11.751  23.856  26.582
99245W        W  110  12.122  24.863  27.977
99246W        W  111  12.500  22.282  27.018
99247W        W  112  11.111  24.266  25.948
99248W        W  113  12.630  23.217  25.818
99249W        W  114  11.276  23.766  26.837
99250W        W  115  12.566  22.408  28.301
99251W        W  116  14.238  22.117  25.728
99252W        W  117  14.331  23.863  28.827
99253W        W  118  12.985  25.120  28.979
99254W        W  119  14.543  24.214  28.501
99255W        W  120  13.951  25.012  29.112
99256W        W  121  11.690  25.468  27.590
99257W        W  122  14.549  24.090  26.464
99258W        W  123  13.079  23.357  26.977
99259W        W  124  12.846  21.969  26.867
99260W        W  125  11.905  24.953  26.704
99261W        W  126  12.404  22.694  27.929
99262W        W  127  12.104  22.063  27.398
99263W        W  128  11.167  24.885  25.946
99264W        W  129  12.983  24.249  26.664
99265W        W  130  11.858  25.044  28.543
99266W        W  131  11.335  23.867  26.239
99267W        W  132  11.220  22.410  27.238
99268W        W  133  12.768  24.375  27.295
99269W        W  134  11.020  22.229  26.315
99270W        W  135  13.684  23.435  28.242
99271W        W  136  13.561  22.821  25.814
99272W        W  137  14.078  24.493  27.462
99273W        W  138  12.739  24.977  27.293
99274W        W  139  12.151  25.081  26.204
99275W        W  140  13.433  21.984  25.634
99276W        W  141  11.233  25.244  27.375
99277W        W  142  13.430  23.002  29.010
99278W        W  143  11.413  22.532  29.009
99279W        W  144  11.144  23.132  26.342
99280W        W  145  11.835  23.121  26.067
99281W        W  146  13.598  23.448  28.884
99282W        W  147  11.941  23.729  27.593
99283W        W  148  13.415  22.015  26.713
99284W        W  149  12.546  25.446  27.216
99285W        W  150  13.760  24.908  28.153
99286W        W  151  13.344  25.057  27.264
99287W        W  152  13.363  24.037  26.858
99288W        W  153  12.825  22.262  25.929
99289W        W  154  14.506  21.890  26.651
99290W        W  155  12.194  23.525  25.814
99291W        W  156  14.360  22.862  26.804
99292W        W  157  13.052  24.032  25.681
99293W        W  158  13.988  24.232  28.429
99294W        W  159  13.642  24.933  25.896
99295W        W  160  12.257  22.608  28.802
99296W        W  161  12.077  23.192  28.043
99297W        W  162  14.169  24.687  28.320
99298W        W  163  13.269  22.637  28.697
99299W        W  164  11.113  23.108  28.474
99300W        W  165  12.873  23.585  28.200
99301W        W  166  11.230  24.343  26.857
99302W        W  167  11.377  23.640  27.747
99303W        W  168  13.694  23.926  28.097
99304W        W  169  13.466  25.306  28.908
99305W        W  170  13.362  23.045  28.461
99306W        W  171  13.639  25.099  26.866
99307W        W  172  12.641  24.819  28.189
99308W        W  173  12.126  25.174  27.458
99309W        W  174  13.931  24.345  27.877
99310W        W  175  12.981  24.417  29.014
99311W        W  176  11.586  24.370  27.353
99312W        W  177  13.932  24.129  26.998
99313W        W  178  13.573  25.195  27.749
99314W        W  179  11.551  24.924  27.619
99315W        W  180  12.572  22.976  28.829
99316W        W  181  13.023  25.142  26.340
99317W        W  182  12.331  24.397  28.978
99318W        W  183  12.457  24.635  26.355
99319W        W  184  11.678  23.375  25.614
99320W        W  185  11.017  29.105   3.359
99321W        W  186  11.393  27.998   2.882
99322W        W  187  14.098  27.728   0.652
99323W        W  188  14.228  28.813   2.679
99324W        W  189  12.146  28.804   0.205
99325W        W  190  12.229  26.956   1.188
99326W        W  191  11.744  26.804   1.352
99327W        W  192  12.735  27.619   0.786
99328W        W  193  12.410  28.711   3.141
99329W        W  194  11.059  26.272   3.104
99330W        W  195  11.821  25.552   2.906
99331W        W  196  13.515  25.940   1.793
99332W        W  197  13.164  26.811   0.363
99333W        W  198  13.734  26.245   3.454
99334W        W  199  11.100  26.037   2.579
99335W        W  200  11.199  28.656   3.600
99336W        W  201  12.721  28.046   0.332
99337W        W  202  11.153  26.829   2.025
99338W        W  203  12.046  26.720   3.262
99339W        W  204  14.505  26.579   1.761
99340W        W  205  14.269  27.622   2.620
99341W        W  206  12.577  26.955   1.647
99342W        W  207  13.123  28.294   2.016
99343W        W  208  11.623  27.728   2.248
99344W        W  209  10.982  27.256   1.819
99345W        W  210  12.018  27.228   3.011
99346W        W  211  14.289  27.011   3.265
99347W        W  212  11.905  28.455   1.710
99348W        W  213  13.026  28.144   2.844
99349W        W  214  12.246  26.784   2.069
99350W        W  215  12.538  27.568   1.712
99351W        W  216  13.535  28.341   3.560
99352W        W  217  12.614  27.661   3.570
99353W        W  218  12.595  27.377   3.048
99354W        W  219  11.004  26.768   3.570
99355W        W  220  13.836  28.303   3.169
99356W        W  221  11.417  25.885   1.167
99357W        W  222  11.944  28.143   2.166
99358W        W  223  14.407  27.926   1.456
99359W        W  224  13.820  26.326   2.023
99360W        W  225  14.105  26.279   0.118
99361W        W  226  14.570  27.080   2.424
99362W        W  227  12.537  28.787   2.177
99363W        W  228  14.311  28.253   0.615
99364W        W  229  11.440  29.039   0.369
99365W        W  230  11.833  29.085   1.045
99366W        W  231  11.630  25.839   2.471
99367W        W  232  14.253  26.857   2.746
99368W        W  233  13.658  27.279   1.205
99369W        W  234  13.624  26.967   0.232
99370W        W  235  12.832  28.111   2.372
99371W        W  236  12.638  26.441   1.571
99372W        W  237  13.238  28.528   2.565
99373W        W  238  14.109  27.319   0.987
99374W        W  239  13.011  25.977   1.003
99375W        W  240  11.668  28.671   0.686
99376W        W  241  11.039  26.170   1.285
99377W        W  242  13.825  26.777   1.759
99378W        W  243  11.283  28.394   1.674
99379W        W  244  12.624  28.744   0.544
99380W        W  245  14.016  26.770   0.008
99381W        W  246  11.039  28.528   2.172
99382W        W  247  11.830  28.100   2.652
99383W        W  248  12.203  27.460   1.271
99384W        W  249  12.225  25.865   2.364
99385W        W  250  14.454  25.627   1.661
99386W        W  251  11.673  27.499   0.129
99387W        W  252  11.328  26.532   0.308
99388W        W  253  11.390  28.488   1.102
99389W        W  254  12.521  27.971   1.350
99390W        W  255  13.853  28.830   3.064
99391W        W  256  12.779  26.472   0.748
99392W        W  257  14.162  28.870   1.520
99393W        W  258  13.839  26.723   3.118
99394W        W  259  14.552  28.379   1.252
99395W        W  260  13.179  27.671   2.736
99396W        W  261  10.945  27.222   0.942
99397W        W  262  12.056  27.637   2.515
99398W        W  263  13.260  26.901   0.893
99399W        W  264  13.137  27.391   0.997
99400W        W  265  11.480  26.811   2.471
99401W        W  266  11.465  26.687   3.393
99402W        W  267  11.355  25.604   1.552
99403W        W  268  13.123  25.951   2.113
99404W        W  269  12.771  26.136   3.276
99405W        W  270  13.126  26.285   0.454
99406W        W  271  14.309  28.678   3.208
99407W        W  272  13.276  25.759   3.247
99408W        W  273  14.295  28.060   3.369
99409W        W  274  13.725  26.227   2.965
99410W        W  275  13.525  26.165   1.235
99411W        W  276  13.918  27.299   3.639
99412W        W  277  11.658  28.875   1.625
99413W        W  278  12.316  26.592   0.611
99414W        W  279  11.885  25.876   3.275
99415W        W  280  13.937  26.360   0.956
99416W        W  281  14.304  26.842   0.901
99417W        W  282  12.047  29.059   3.372
99418W        W  283  11.973  25.595   0.607
99419W        W  284  14.294  26.129   1.642
99420W        W  285  14.444  28.378   0.087
99421W        W  286  11.351  27.581   1.789
99422W        W  287  13.268  26.168   0.019
99423W        W  288  14.402  28.500   1.739
99424W        W  289  14.441  25.694   2.489
99425W        W  290  12.886  26.906   3.043
99426W        W  291  12.979  28.245   0.746
99427W        W  292  13.379  27.539   3.486
99428W        W  293  13.053  25.516   1.795
99429W        W  294  11.665  26.419   1.858
99430W        W  295  11.219  27.619   2.632
99431W        W  296  13.078  28.812   1.338
99432W        W  297  14.272  26.409   2.210
99433W        W  298  12.909  28.756   2.977
99434W        W  299  14.252  27.815   0.182
99435W        W  300  12.687  27.298   1.243
99436W        W  301  14.539  25.809   2.984
99437W        W  302  12.688  27.644   2.578
99438W        W  303  12.905  26.530   2.023
99439W        W  304  13.757  26.828   0.861
99440W        W  305  14.044  26.561   0.503
99441W        W  306  13.853  28.601   0.892
99442W        W  307  13.687  28.204   1.688
99443W        W  308  13.583  27.283   0.666
99444W        W  309  13.016  27.493   1.652
99445W        W  310  13.897  27.281   1.719
99446W        W  311  11.272  26.296   2.143
99447W        W  312  14.050  27.348   2.970
99448W        W  313  14.401  28.966   2.116
99449W        W  314  12.331  28.410   1.518
99450W        W  315  13.338  28.943   2.842
99451W        W  316  13.332  26.273   2.606
99452W        W  317  12.539  28.981   2.667
99453W        W  318  14.236  25.935   1.133
99454W        W  319  14.027  27.254   2.434
99455W        W  320  11.010  26.575   2.472
99456W        W  321  13.870  26.370   1.490
99457W        W  322  14.281  26.521   3.267
99458W        W  323  13.166  28.220   1.485
99459W        W  324  12.422  28.811   1.098
99460W        W  325  11.537  25.991   0.356
99461W        W  326  12.641  25.645   2.166
99462W        W  327  11.669  28.765   0.014
99463W        W  328  12.043  27.231   0.765
99464W        W  329  12.697  27.860   3.078
99465W        W  330  12.527  26.218   1.068
99466W        W  331  13.883  25.815   1.496
99467W        W  332  13.603  29.097   1.824
99468W        W  333  13.015  28.745   2.164
99469W        W  334  12.411  27.782   2.125
99470W        W  335  14.181  28.505   2.251
99471W        W  336  11.875  26.008   1.020
99472W        W  337  12.397  28.305   1.980
99473W        W  338  11.880  26.236   0.045
99474W        W  339  12.681  26.845   2.439
99475W        W  340  13.529  25.711   2.309
99476W        W  341  10.949  27.554   2.194
99477W        W  342  12.653  27.372   0.352
99478W        W  343  11.921  25.687   0.122
99479W        W  344  12.659  26.768   1.173
99480W        W  345  13.629  25.744   2.872
99481W        W  346  12.217  27.756   2.981
99482W        W  347  13.021  27.538   3.198
99483W        W  348  13.638  27.568   3.091
99484W        W  349  12.922  25.708   3.596
99485W        W  350  12.144  26.324   1.989
99486W        W  351  11.570  26.280   1.387
99487W        W  352  11.356  28.992   1.063
99488W        W  353  12.688  28.322   3.188
99489W        W  354  11.723  27.807   0.547
99490W        W  355  13.403  27.192   1.768
99491W        W  356  13.683  26.991   2.167
99492W        W  357  12.888  27.665   2.101
99493W        W  358  13.358  28.039   0.233
99494W        W  359  13.030  26.060   1.561
99495W        W  360  14.509  26.338   0.829
99496W        W  361  11.003  28.927   2.860
99497W        W  362  11.420  28.153   2.392
99498W        W  363  10.987  28.999   0.624
99499W        W  364  12.886  26.269   2.430
99500W        W  365  12.249  28.292   0.279
99501W        W  366  14.154  28.674   0.465
99502W        W  367  13.129  27.327   0.479
99503W        W  368  11.972  26.518   0.996
99504W        W  369  12.804  26.428   0.048
99505W        W  370  13.388  27.993   3.226
99506W        W  371  13.741  25.899   0.843
99507W        W  372  11.071  25.747   0.291
99508W        W  373  12.357  28.066   2.581
99509W        W  374  12.156  27.982   1.673
99510W        W  375  11.898  27.934   0.071
99511W        W  376  11.139  28.175   0.839
99512W        W  377  11.643  27.245   3.281
99513W        W  378  12.347  25.805   3.467
99514W        W  379  13.056  25.947   2.823
99515W        W  380  12.251  25.715   1.104
99516W        W  381  13.310  25.792   0.609
99517W        W  382  11.255  25.724   2.186
99518W        W  383  11.303  26.687   1.556
99519W        W  384  13.992  25.795   1.962
99520W        W  385  11.414  26.293   0.776
99521W        W  386  13.985  25.981   2.392
99522W        W  387  14.381  27.184   0.077
99523W        W  388  11.673  25.942   1.896
99524W        W  389  12.787  26.514   2.836
99525W        W  390  10.935  26.204   0.314
99526W        W  391  11.721  27.593   2.875
99527W        W  392  13.079  26.991   2.054
99528W        W  393  12.946  29.070   0.350
99529W        W  394  11.092  27.577   0.047
99530W        W  395  11.827  27.988   3.173
99531W        W  396  11.348  27.155   2.804
99532W        W  397  12.339  27.260   2.598
99533W        W  398  14.107  25.619   2.860
99534W        W  399  14.505  27.229   2.851
99535W        W  400  14.493  27.429   0.537
99536W        W  401  13.356  27.761   0.636
99537W        W  402  13.830  29.061   0.331
99538W        W  403  13.007  27.051   3.473
99539W        W  404  11.337  28.018   3.513
99540W        W  405  14.543  25.940   3.465
99541W        W  406  14.261  26.868   2.086
99542W        W  407  12.569  28.998   3.563
99543W        W  408  12.424  25.627   0.290
99544W        W  409  13.963  28.226   0.233
99545W        W  410  11.732  26.319   3.119
99546W        W  411  12.166  28.313   2.981
99547W        W  412  14.292  26.304   2.779
99548W        W  413  13.503  28.963   0.747
99549W        W  414  13.742  27.582   2.114
99550W        W  415  11.992  25.998   2.781
99551W        W  416  12.461  27.067   3.538
99552W        W  417  11.964  28.246   0.732
99553W        W  418  13.719  27.744   0.996
99554W        W  419  11.487  26.370   2.720
99555W        W  420  12.816  28.432   1.184
99556W        W  421  14.566  26.992   1.365
99557W        W  422  12.788  25.625   3.084
99558W        W  423  13.568  28.330   2.163
99559W        W  424  13.871  28.674   1.871
99560W        W  425  13.090  28.476   0.299
99561W        W  426  11.100  28.368   3.141
99562W        W  427  11.843  26.360   2.379
99563W        W  428  11.813  25.708   1.489
99564W        W  429  13.434  26.550   2.181
99565W        W  430  12.232  27.721   0.381
99566W        W  431  14.230  27.663   1.880
99567W        W  432  11.557  28.421   3.303
99568W        W  433  13.944  29.103   1.100
99569W        W  434  12.043  26.123   1.545
99570W        W  435  11.812  27.616   1.635
99571W        W  436  12.125  29.027   2.385
99572W        W  437  14.192  29.123   3.417
99573W        W  438  13.351  27.311   2.350
99574W        W  439  11.200  27.109   0.265
99575W        W  440  14.334  28.767   0.962
99576W        W  441  14.171  26.091   0.581
99577W        W  442  12.310  25.610   2.984
99578W        W  443  14.016  28.412   1.442
99579W        W  444  14.045  26.968   1.347
99580W        W  445  12.162  26.641   1.563
99581W        W  446  12.407  26.903   2.887
99582W        W  447  13.518  28.056   2.750
99583W        W  448  12.168  26.510   2.862
99584W        W  449  12.147  28.976   1.478
99585W        W  450  11.464  28.935   3.112
99586W        W  451  11.576  28.296   0.242
99587W        W  452  14.093  28.054   1.052
99588W        W  453  11.697  26.846   2.938
99589W        W  454  14.470  26.776   0.419
99590W        W  455  12.215  27.833   0.890
99591W        W  456  13.314  27.215   2.971
99592W        W  457  13.205  26.843   2.515
99593W        W  458  11.765  27.215   2.544
99594W        W  459  13.975  29.103   2.373
99595W        W  460  13.766  25.737   3.367
99596W        W  461  11.430  25.887   2.954
99597W        W  462  11.769  26.910   2.007
99598W        W  463  12.138  26.724   0.129
99599W        W  464  10.941  28.483   2.674
99600W        W  465  12.526  27.192   2.117
99601W        W  466  12.349  26.217   0.222
99602W        W  467  11.484  27.033   1.003
99603W        W  468  11.255  28.885   2.440
99604W        W  469  14.050  27.111   0.548
99605W        W  470  14.145  26.027   3.234
99606W        W  471  13.581  28.236   1.197
99607W        W  472  11.179  27.160   3.374
99608W        W  473  14.145  25.624   0.670
99609W        W  474  13.665  28.099   0.681
99610W        W  475  12.567  27.157   0.766
99611W        W  476  13.754  25.961   0.289
99612W        W  477  13.819  26.568   2.475
99613W        W  478  11.528  27.161   1.682
99614W        W  479  11.822  28.100   1.331
99615W        W  480  13.585  26.720   1.296
99616W        W  481  12.608  26.099   1.992
99617W        W  482  14.570  28.010   2.503
99618W        W  483  14.488  25.997   2.064
99619W        W  484  11.027  28.827   1.440
99620W        W  485  11.536  28.014   0.976
99621W        W  486  11.451  25.631   3.529
99622W        W  487  12.570  28.484   3.631
99623W        W  488  14.325  27.452   1.421
99624W        W  489  13.679  27.629   0.301
99625W        W  490  12.974  29.150   2.513
99626W        W  491  13.831  27.872   3.550
99627W        W  492  12.646  25.582   0.830
99628W        W  493  13.359  26.451   1.689
99629W        W  494  11.045  28.038   2.021
99630W        W  495  12.298  26.000   0.662
99631W        W  496  12.102  27.484   3.511
99632W        W  497  13.096  26.465   1.225
99633W        W  498  13.301  27.875   2.347
99634W        W  499  11.455  28.480   2.782
99635W        W  500  12.046  28.463   3.505
99636W        W  501  11.897  26.260   0.519
99637W        W  502  13.414  26.402   0.844
99638W        W  503  13.372  28.510   3.081
99639W        W  504  12.057  27.102   1.680
99640W        W  505  11.712  28.800   2.545
99641W        W  506  14.457  28.917   0.146
99642W        W  507  11.320  27.589   3.142
99643W        W  508  13.315  27.851   1.830
99644W        W  509  11.751  27.500   1.072
99645W        W  510  12.122  28.507   2.467
99646W        W  511  12.500  25.926   1.508
99647W        W  512  11.111  27.910   0.438
99648W        W  513  12.630  26.861   0.308
99649W        W  514  11.276  27.410   1.327
99650W        W  515  12.566  26.052   2.791
99651W        W  516  14.238  25.761   0.218
99652W        W  517  14.331  27.507   3.317
99653W        W  518  12.985  28.764   3.469
99654W        W  519  14.543  27.858   2.991
99655W        W  520  13.951  28.656   3.602
99656W        W  521  11.690  29.112   2.080
99657W        W  522  14.549  27.734   0.954
99658W        W  523  13.079  27.001   1.467
99659W        W  524  12.846  25.613   1.357
99660W        W  525  11.905  28.597   1.194
99661W        W  526  12.404  26.338   2.419
99662W        W  527  12.104  25.707   1.888
99663W        W  528  11.167  28.529   0.436
99664W        W  529  12.983  27.893   1.154
99665W        W  530  11.858  28.688   3.033
99666W        W  531  11.335  27.511   0.729
99667W        W  532  11.220  26.054   1.728
99668W        W  533  12.768  28.019   1.785
99669W        W  534  11.020  25.873   0.805
99670W        W  535  13.684  27.079   2.732
99671W        W  536  13.561  26.465   0.304
99672W        W  537  14.078  28.137   1.952
99673W        W  538  12.739  28.621   1.783
99674W        W  539  12.151  28.725   0.694
99675W        W  540  13.433  25.628   0.124
99676W        W  541  11.233  28.888   1.865
99677W        W  542  13.430  26.646   3.500
99678W        W  543  11.413  26.176   3.499
99679W        W  544  11.144  26.776   0.832
99680W        W  545  11.835  26.765   0.557
99681W        W  546  13.598  27.092   3.374
99682W        W  547  11.941  27.373   2.083
99683W        W  548  13.415  25.659   1.203
99684W        W  549  12.546  29.090   1.706
99685W        W  550  13.760  28.552   2.643
99686W        W  551  13.344  28.701   1.754
99687W        W  552  13.363  27.681   1.348
99688W        W  553  12.825  25.906   0.419
99689W        W  554  14.506  25.534   1.141
99690W        W  555  12.194  27.169   0.304
99691W        W  556  14.360  26.506   1.294
99692W        W  557  13.052  27.676   0.171
99693W        W  558  13.988  27.876   2.919
99694W        W  559  13.642  28.577   0.386
99695W        W  560  12.257  26.252   3.292
99696W        W  561  12.077  26.836   2.533
99697W        W  562  14.169  28.331   2.810
99698W        W  563  13.269  26.281   3.187
99699W        W  564  11.113  26.752   2.964
99700W        W  565  12.873  27.229   2.690
99701W        W  566  11.230  27.987   1.347
99702W        W  567  11.377  27.284   2.237
99703W        W  568  13.694  27.570   2.587
99704W        W  569  13.466  28.950   3.398
99705W        W  570  13.362  26.689   2.951
99706W        W  571  13.639  28.743   1.356
99707W        W  572  12.641  28.463   2.679
99708W        W  573  12.126  28.818   1.948
99709W        W  574  13.931  27.989   2.367
99710W        W  575  12.981  28.061   3.504
99711W        W  576  11.586  28.014   1.843
99712W        W  577  13.932  27.773   1.488
99713W        W  578  13.573  28.839   2.239
99714W        W  579  11.551  28.568   2.109
99715W        W  580  12.572  26.620   3.319
99716W        W  581  13.023  28.786   0.830
99717W        W  582  12.331  28.041   3.468
99718W        W  583  12.457  28.279   0.845
99719W        W  584  11.678  27.019   0.104
99720W        W  585  11.017  29.105   7.003
99721W        W  586  11.393  27.998   6.526
99722W        W  587  14.098  27.728   4.296
99723W        W  588  14.228  28.813   6.323
99724W        W  589  12.146  28.804   3.849
99725W        W  590  12.229  26.956   4.832
99726W        W  591  11.744  26.804   4.996
99727W        W  592  12.735  27.619   4.430
99728W        W  593  12.410  28.711   6.785
99729W        W  594  11.059  26.272   6.748
99730W        W  595  11.821  25.552   6.550
99731W        W  596  13.515  25.940   5.437
99732W        W  597  13.164  26.811   4.007
99733W        W  598  13.734  26.245   7.098
99734W        W  599  11.100  26.037   6.223
99735W        W  600  11.199  28.656   7.244
99736W        W  601  12.721  28.046   3.976
99737W        W  602  11.153  26.829   5.669
99738W        W  603  12.046  26.720   6.906
99739W        W  604  14.505  26.579   5.405
99740W        W  605  14.269  27.622   6.264
99741W        W  606  12.577  26.955   5.291
99742W        W  607  13.123  28.294   5.660
99743W        W  608  11.623  27.728   5.892
99744W        W  609  10.982  27.256   5.463
99745W        W  610  12.018  27.228   6.655
99746W        W  611  14.289  27.011   6.909
99747W        W  612  11.905  28.455   5.354
99748W        W  613  13.026  28.144   6.488
99749W        W  614  12.246  26.784   5.713
99750W        W  615  12.538  27.568   5.356
99751W        W  616  13.535  28.341   7.204
99752W        W  617  12.614  27.661   7.214
99753W        W  618  12.595  27.377   6.692
99754W        W  619  11.004  26.768   7.214
99755W        W  620  13.836  28.303   6.813
99756W        W  621  11.417  25.885   4.811
99757W        W  622  11.944  28.143   5.810
99758W        W  623  14.407  27.926   5.100
99759W        W  624  13.820  26.326   5.667
99760W        W  625  14.105  26.279   3.762
99761W        W  626  14.570  27.080   6.068
99762W        W  627  12.537  28.787   5.821
99763W        W  628  14.311  28.253   4.259
99764W        W  629  11.440  29.039   4.013
99765W        W  630  11.833  29.085   4.689
99766W        W  631  11.630  25.839   6.115
99767W        W  632  14.253  26.857   6.390
99768W        W  633  13.658  27.279   4.849
99769W        W  634  13.624  26.967   3.876
99770W        W  635  12.832  28.111   6.016
99771W        W  636  12.638  26.441   5.215
99772W        W  637  13.238  28.528   6.209
99773W        W  638  14.109  27.319   4.631
99774W        W  639  13.011  25.977   4.647
99775W        W  640  11.668  28.671   4.330
99776W        W  641  11.039  26.170   4.929
99777W        W  642  13.825  26.777   5.403
99778W        W  643  11.283  28.394   5.318
99779W        W  644  12.624  28.744   4.188
99780W        W  645  14.016  26.770   3.652
99781W        W  646  11.039  28.528   5.816
99782W        W  647  11.830  28.100   6.296
99783W        W  648  12.203  27.460   4.915
99784W        W  649  12.225  25.865   6.008
99785W        W  650  14.454  25.627   5.305
99786W        W  651  11.673  27.499   3.773
99787W        W  652  11.328  26.532   3.952
99788W        W  653  11.390  28.488   4.746
99789W        W  654  12.521  27.971   4.994
99790W        W  655  13.853  28.830   6.708
99791W        W  656  12.779  26.472   4.392
99792W        W  657  14.162  28.870   5.164
99793W        W  658  13.839  26.723   6.762
99794W        W  659  14.552  28.379   4.896
99795W        W  660  13.179  27.671   6.380
99796W        W  661  10.945  27.222   4.586
99797W        W  662  12.056  27.637   6.159
99798W        W  663  13.260  26.901   4.537
99799W        W  664  13.137  27.391   4.641
99800W        W  665  11.480  26.811   6.115
99801W        W  666  11.465  26.687   7.037
99802W        W  667  11.355  25.604   5.196
99803W        W  668  13.123  25.951   5.757
99804W        W  669  12.771  26.136   6.920
99805W        W  670  13.126  26.285   4.098
99806W        W  671  14.309  28.678   6.852
99807W        W  672  13.276  25.759   6.891
99808W        W  673  14.295  28.060   7.013
99809W        W  674  13.725  26.227   6.609
99810W        W  675  13.525  26.165   4.879
99811W        W  676  13.918  27.299   7.283
99812W        W  677  11.658  28.875   5.269
99813W        W  678  12.316  26.592   4.255
99814W        W  679  11.885  25.876   6.919
99815W        W  680  13.937  26.360   4.600
99816W        W  681  14.304  26.842   4.545
99817W        W  682  12.047  29.059   7.016
99818W        W  683  11.973  25.595   4.251
99819W        W  684  14.294  26.129   5.286
99820W        W  685  14.444  28.378   3.731
99821W        W  686  11.351  27.581   5.433
99822W        W  687  13.268  26.168   3.663
99823W        W  688  14.402  28.500   5.383
99824W        W  689  14.441  25.694   6.133
99825W        W  690  12.886  26.906   6.687
99826W        W  691  12.979  28.245   4.390
99827W        W  692  13.379  27.539   7.130
99828W        W  693  13.053  25.516   5.439
99829W        W  694  11.665  26.419   5.502
99830W        W  695  11.219  27.619   6.276
99831W        W  696  13.078  28.812   4.982
99832W        W  697  14.272  26.409   5.854
99833W        W  698  12.909  28.756   6.621
99834W        W  699  14.252  27.815   3.826
99835W        W  700  12.687  27.298   4.887
99836W        W  701  14.539  25.809   6.628
99837W        W  702  12.688  27.644   6.222
99838W        W  703  12.905  26.530   5.667
99839W        W  704  13.757  26.828   4.505
99840W        W  705  14.044  26.561   4.147
99841W        W  706  13.853  28.601   4.536
99842W        W  707  13.687  28.204   5.332
99843W        W  708  13.583  27.283   4.310
99844W        W  709  13.016  27.493   5.296
99845W        W  710  13.897  27.281   5.363
99846W        W  711  11.272  26.296   5.787
99847W        W  712  14.050  27.348   6.614
99848W        W  713  14.401  28.966   5.760
99849W        W  714  12.331  28.410   5.162
99850W        W  715  13.338  28.943   6.486
99851W        W  716  13.332  26.273   6.250
99852W        W  717  12.539  28.981   6.311
99853W        W  718  14.236  25.935   4.777
99854W        W  719  14.027  27.254   6.078
99855W        W  720  11.010  26.575   6.116
99856W        W  721  13.870  26.370   5.134
99857W        W  722  14.281  26.521   6.911
99858W        W  723  13.166  28.220   5.129
99859W        W  724  12.422  28.811   4.742
99860W        W  725  11.537  25.991   4.000
99861W        W  726  12.641  25.645   5.810
99862W        W  727  11.669  28.765   3.658
99863W        W  728  12.043  27.231   4.409
99864W        W  729  12.697  27.860   6.722
99865W        W  730  12.527  26.218   4.712
99866W        W  731  13.883  25.815   5.140
99867W        W  732  13.603  29.097   5.468
99868W        W  733  13.015  28.745   5.808
99869W        W  734  12.411  27.782   5.769
99870W        W  735  14.181  28.505   5.895
99871W        W  736  11.875  26.008   4.664
99872W        W  737  12.397  28.305   5.624
99873W        W  738  11.880  26.236   3.689
99874W        W  739  12.681  26.845   6.083
99875W        W  740  13.529  25.711   5.953
99876W        W  741  10.949  27.554   5.838
99877W        W  742  12.653  27.372   3.996
99878W        W  743  11.921  25.687   3.766
99879W        W  744  12.659  26.768   4.817
99880W        W  745  13.629  25.744   6.516
99881W        W  746  12.217  27.756   6.625
99882W        W  747  13.021  27.538   6.842
99883W        W  748  13.638  27.568   6.735
99884W        W  749  12.922  25.708   7.240
99885W        W  750  12.144  26.324   5.633
99886W        W  751  11.570  26.280   5.031
99887W        W  752  11.356  28.992   4.707
99888W        W  753  12.688  28.322   6.832
99889W        W  754  11.723  27.807   4.191
99890W        W  755  13.403  27.192   5.412
99891W        W  756  13.683  26.991   5.811
99892W        W  757  12.888  27.665   5.745
99893W        W  758  13.358  28.039   3.877
99894W        W  759  13.030  26.060   5.205
99895W        W  760  14.509  26.338   4.473
99896W        W  761  11.003  28.927   6.504
99897W        W  762  11.420  28.153   6.036
99898W        W  763  10.987  28.999   4.268
99899W        W  764  12.886  26.269   6.074
99900W        W  765  12.249  28.292   3.923
99901W        W  766  14.154  28.674   4.109
99902W        W  767  13.129  27.327   4.123
99903W        W  768  11.972  26.518   4.640
99904W        W  769  12.804  26.428   3.692
99905W        W  770  13.388  27.993   6.870
99906W        W  771  13.741  25.899   4.487
99907W        W  772  11.071  25.747   3.935
99908W        W  773  12.357  28.066   6.225
99909W        W  774  12.156  27.982   5.317
99910W        W  775  11.898  27.934   3.715
99911W        W  776  11.139  28.175   4.483
99912W        W  777  11.643  27.245   6.925
99913W        W  778  12.347  25.805   7.111
99914W        W  779  13.056  25.947   6.467
99915W        W  780  12.251  25.715   4.748
99916W        W  781  13.310  25.792   4.253
99917W        W  782  11.255  25.724   5.830
99918W        W  783  11.303  26.687   5.200
99919W        W  784  13.992  25.795   5.606
99920W        W  785  11.414  26.293   4.420
99921W        W  786  13.985  25.981   6.036
99922W        W  787  14.381  27.184   3.721
99923W        W  788  11.673  25.942   5.540
99924W        W  789  12.787  26.514   6.480
99925W        W  790  10.935  26.204   3.958
99926W        W  791  11.721  27.593   6.519
99927W        W  792  13.079  26.991   5.698
99928W        W  793  12.946  29.070   3.994
99929W        W  794  11.092  27.577   3.691
99930W        W  795  11.827  27.988   6.817
99931W        W  796  11.348  27.155   6.448
99932W        W  797  12.339  27.260   6.242
99933W        W  798  14.107  25.619   6.504
99934W        W  799  14.505  27.229   6.495
99935W        W  800  14.493  27.429   4.181
99936W        W  801  13.356  27.761   4.280
99937W        W  802  13.830  29.061   3.975
99938W        W  803  13.007  27.051   7.117
99939W        W  804  11.337  28.018   7.157
99940W        W  805  14.543  25.940   7.109
99941W        W  806  14.261  26.868   5.730
99942W        W  807  12.569  28.998   7.207
99943W        W  808  12.424  25.627   3.934
99944W        W  809  13.963  28.226   3.877
99945W        W  810  11.732  26.319   6.763
99946W        W  811  12.166  28.313   6.625
99947W        W  812  14.292  26.304   6.423
99948W        W  813  13.503  28.963   4.391
99949W        W  814  13.742  27.582   5.758
99950W        W  815  11.992  25.998   6.425
99951W        W  816  12.461  27.067   7.182
99952W        W  817  11.964  28.246   4.376
99953W        W  818  13.719  27.744   4.640
99954W        W  819  11.487  26.370   6.364
99955W        W  820  12.816  28.432   4.828
99956W        W  821  14.566  26.992   5.009
99957W        W  822  12.788  25.625   6.728
99958W        W  823  13.568  28.330   5.807
99959W        W  824  13.871  28.674   5.515
99960W        W  825  13.090  28.476   3.943
99961W        W  826  11.100  28.368   6.785
99962W        W  827  11.843  26.360   6.023
99963W        W  828  11.813  25.708   5.133
99964W        W  829  13.434  26.550   5.825
99965W        W  830  12.232  27.721   4.025
99966W        W  831  14.230  27.663   5.524
99967W        W  832  11.557  28.421   6.947
99968W        W  833  13.944  29.103   4.744
99969W        W  834  12.043  26.123   5.189
99970W        W  835  11.812  27.616   5.279
99971W        W  836  12.125  29.027   6.029
99972W        W  837  14.192  29.123   7.061
99973W        W  838  13.351  27.311   5.994
99974W        W  839  11.200  27.109   3.909
99975W        W  840  14.334  28.767   4.606
99976W        W  841  14.171  26.091   4.225
99977W        W  842  12.310  25.610   6.628
99978W        W  843  14.016  28.412   5.086
99979W        W  844  14.045  26.968   4.991
99980W        W  845  12.162  26.641   5.207
99981W        W  846  12.407  26.903   6.531
99982W        W  847  13.518  28.056   6.394
99983W        W  848  12.168  26.510   6.506
99984W        W  849  12.147  28.976   5.122
99985W        W  850  11.464  28.935   6.756
99986W        W  851  11.576  28.296   3.886
99987W        W  852  14.093  28.054   4.696
99988W        W  853  11.697  26.846   6.582
99989W        W  854  14.470  26.776   4.063
99990W        W  855  12.215  27.833   4.534
99991W        W  856  13.314  27.215   6.615
99992W        W  857  13.205  26.843   6.159
99993W        W  858  11.765  27.215   6.188
99994W        W  859  13.975  29.103   6.017
99995W        W  860  13.766  25.737   7.011
99996W        W  861  11.430  25.887   6.598
99997W        W  862  11.769  26.910   5.651
99998W        W  863  12.138  26.724   3.773
99999W        W  864  10.941  28.483   6.318
    0W        W  865  12.526  27.192   5.761
    1W        W  866  12.349  26.217   3.866
    2W        W  867  11.484  27.033   4.647
    3W        W  868  11.255  28.885   6.084
    4W        W  869  14.050  27.111   4.192
    5W        W  870  14.145  26.027   6.878
    6W        W  871  13.581  28.236   4.841
    7W        W  872  11.179  27.160   7.018
    8W        W  873  14.145  25.624   4.314
    9W        W  874  13.665  28.099   4.325
   10W        W  875  12.567  27.157   4.410
   11W        W  876  13.754  25.961   3.933
   12W        W  877  13.819  26.568   6.119
   13W        W  878  11.528  27.161   5.326
   14W        W  879  11.822  28.100   4.975
   15W        W  880  13.585  26.720   4.940
   16W        W  881  12.608  26.099   5.636
   17W        W  882  14.570  28.010   6.147
   18W        W  883  14.488  25.997   5.708
   19W        W  884  11.027  28.827   5.084
   20W        W  885  11.536  28.014   4.620
   21W        W  886  11.451  25.631   7.173
   22W        W  887  12.570  28.484   7.275
   23W        W  888  14.325  27.452   5.065
   24W        W  889  13.679  27.629   3.945
   25W        W  890  12.974  29.150   6.157
   26W        W  891  13.831  27.872   7.194
   27W        W  892  12.646  25.582   4.474
   28W        W  893  13.359  26.451   5.333
   29W        W  894  11.045  28.038   5.665
   30W        W  895  12.298  26.000   4.306
   31W        W  896  12.102  27.484   7.155
   32W        W  897  13.096  26.465   4.869
   33W        W  898  13.301  27.875   5.991
   34W        W  899  11.455  28.480   6.426
   35W        W  900  12.046  28.463   7.149
   36W        W  901  11.897  26.260   4.163
   37W        W  902  13.414  26.402   4.488
   38W        W  903  13.372  28.510   6.725
   39W        W  904  12.057  27.102   5.324
   40W        W  905  11.712  28.800   6.189
   41W        W  906  14.457  28.917   3.790
   42W        W  907  11.320  27.589   6.786
   43W        W  908  13.315  27.851   5.474
   44W        W  909  11.751  27.500   4.716
   45W        W  910  12.122  28.507   6.111
   46W        W  911  12.500  25.926   5.152
   47W        W  912  11.111  27.910   4.082
   48W        W  913  12.630  26.861   3.952
   49W        W  914  11.276  27.410   4.971
   50W        W  915  12.566  26.052   6.435
   51W        W  916  14.238  25.761   3.862
   52W        W  917  14.331  27.507   6.961
   53W        W  918  12.985  28.764   7.113
   54W        W  919  14.543  27.858   6.635
   55W        W  920  13.951  28.656   7.246
   56W        W  921  11.690  29.112   5.724
   57W        W  922  14.549  27.734   4.598
   58W        W  923  13.079  27.001   5.111
   59W        W  924  12.846  25.613   5.001
   60W        W  925  11.905  28.597   4.838
   61W        W  926  12.404  26.338   6.063
   62W        W  927  12.104  25.707   5.532
   63W        W  928  11.167  28.529   4.080
   64W        W  929  12.983  27.893   4.798
   65W        W  930  11.858  28.688   6.677
   66W        W  931  11.335  27.511   4.373
   67W        W  932  11.220  26.054   5.372
   68W        W  933  12.768  28.019   5.429
   69W        W  934  11.020  25.873   4.449
   70W        W  935  13.684  27.079   6.376
   71W        W  936  13.561  26.465   3.948
   72W        W  937  14.078  28.137   5.596
   73W        W  938  12.739  28.621   5.427
   74W        W  939  12.151  28.725   4.338
   75W        W  940  13.433  25.628   3.768
   76W        W  941  11.233  28.888   5.509
   77W        W  942  13.430  26.646   7.144
   78W        W  943  11.413  26.176   7.143
   79W        W  944  11.144  26.776   4.476
   80W        W  945  11.835  26.765   4.201
   81W        W  946  13.598  27.092   7.018
   82W        W  947  11.941  27.373   5.727
   83W        W  948  13.415  25.659   4.847
   84W        W  949  12.546  29.090   5.350
   85W        W  950  13.760  28.552   6.287
   86W        W  951  13.344  28.701   5.398
   87W        W  952  13.363  27.681   4.992
   88W        W  953  12.825  25.906   4.063
   89W        W  954  14.506  25.534   4.785
   90W        W  955  12.194  27.169   3.948
   91W        W  956  14.360  26.506   4.938
   92W        W  957  13.052  27.676   3.815
   93W        W  958  13.988  27.876   6.563
   94W        W  959  13.642  28.577   4.030
   95W        W  960  12.257  26.252   6.936
   96W        W  961  12.077  26.836   6.177
   97W        W  962  14.169  28.331   6.454
   98W        W  963  13.269  26.281   6.831
   99W        W  964  11.113  26.752   6.608
  100W        W  965  12.873  27.229   6.334
  101W        W  966  11.230  27.987   4.991
  102W        W  967  11.377  27.284   5.881
  103W        W  968  13.694  27.570   6.231
  104W        W  969  13.466  28.950   7.042
  105W        W  970  13.362  26.689   6.595
  106W        W  971  13.639  28.743   5.000
  107W        W  972  12.641  28.463   6.323
  108W        W  973  12.126  28.818   5.592
  109W        W  974  13.931  27.989   6.011
  110W        W  975  12.981  28.061   7.148
  111W        W  976  11.586  28.014   5.487
  112W        W  977  13.932  27.773   5.132
  113W        W  978  13.573  28.839   5.883
  114W        W  979  11.551  28.568   5.753
  115W        W  980  12.572  26.620   6.963
  116W        W  981  13.023  28.786   4.474
  117W        W  982  12.331  28.041   7.112
  118W        W  983  12.457  28.279   4.489
  119W        W  984  11.678  27.019   3.748
  120W        W  985  11.017  29.105  10.648
  121W        W  986  11.393  27.998  10.171
  122W        W  987  14.098  27.728   7.941
  123W        W  988  14.228  28.813   9.968
  124W        W  989  12.146  28.804   7.494
  125W        W  990  12.229  26.956   8.477
  126W        W  991  11.744  26.804   8.641
  127W        W  992  12.735  27.619   8.075
  128W        W  993  12.410  28.711  10.430
  129W        W  994  11.059  26.272  10.393
  130W        W  995  11.821  25.552  10.195
  131W        W  996  13.515  25.940   9.082
  132W        W  997  13.164  26.811   7.652
  133W        W  998  13.734  26.245  10.743
  134W        W  999  11.100  26.037   9.868
  135W        W 1000  11.199  28.656  10.889
  136W        W 1001  12.721  28.046   7.621
  137W        W 1002  11.153  26.829   9.314
  138W        W 1003  12.046  26.720  10.551
  139W        W 1004  14.505  26.579   9.050
  140W        W 1005  14.269  27.622   9.909
  141W        W 1006  12.577  26.955   8.936
  142W        W 1007  13.123  28.294   9.305
  143W        W 1008  11.623  27.728   9.537
  144W        W 1009  10.982  27.256   9.108
  145W        W 1010  12.018  27.228  10.300
  146W        W 1011  14.289  27.011  10.554
  147W        W 1012  11.905  28.455   8.999
  148W        W 1013  13.026  28.144  10.133
  149W        W 1014  12.246  26.784   9.358
  150W        W 1015  12.538  27.568   9.001
  151W        W 1016  13.535  28.341  10.849
  152W        W 1017  12.614  27.661  10.859
  153W        W 1018  12.595  27.377  10.337
  154W        W 1019  11.004  26.768  10.859
  155W        W 1020  13.836  28.303  10.458
  156W        W 1021  11.417  25.885   8.456
  157W        W 1022  11.944  28.143   9.455
  158W        W 1023  14.407  27.926   8.745
  159W        W 1024  13.820  26.326   9.312
  160W        W 1025  14.105  26.279   7.407
  161W        W 1026  14.570  27.080   9.713
  162W        W 1027  12.537  28.787   9.466
  163W        W 1028  14.311  28.253   7.904
  164W        W 1029  11.440  29.039   7.658
  165W        W 1030  11.833  29.085   8.334
  166W        W 1031  11.630  25.839   9.760
  167W        W 1032  14.253  26.857  10.035
  168W        W 1033  13.658  27.279   8.494
  169W        W 1034  13.624  26.967   7.521
  170W        W 1035  12.832  28.111   9.661
  171W        W 1036  12.638  26.441   8.860
  172W        W 1037  13.238  28.528   9.854
  173W        W 1038  14.109  27.319   8.276
  174W        W 1039  13.011  25.977   8.292
  175W        W 1040  11.668  28.671   7.975
  176W        W 1041  11.039  26.170   8.574
  177W        W 1042  13.825  26.777   9.048
  178W        W 1043  11.283  28.394   8.963
  179W        W 1044  12.624  28.744   7.833
  180W        W 1045  14.016  26.770   7.297
  181W        W 1046  11.039  28.528   9.461
  182W        W 1047  11.830  28.100   9.941
  183W        W 1048  12.203  27.460   8.560
  184W        W 1049  12.225  25.865   9.653
  185W        W 1050  14.454  25.627   8.950
  186W        W 1051  11.673  27.499   7.418
  187W        W 1052  11.328  26.532   7.597
  188W        W 1053  11.390  28.488   8.391
  189W        W 1054  12.521  27.971   8.639
  190W        W 1055  13.853  28.830  10.353
  191W        W 1056  12.779  26.472   8.037
  192W        W 1057  14.162  28.870   8.809
  193W        W 1058  13.839  26.723  10.407
  194W        W 1059  14.552  28.379   8.541
  195W        W 1060  13.179  27.671  10.025
  196W        W 1061  10.945  27.222   8.231
  197W        W 1062  12.056  27.637   9.804
  198W        W 1063  13.260  26.901   8.182
  199W        W 1064  13.137  27.391   8.286
  200W        W 1065  11.480  26.811   9.760
  201W        W 1066  11.465  26.687  10.682
  202W        W 1067  11.355  25.604   8.841
  203W        W 1068  13.123  25.951   9.402
  204W        W 1069  12.771  26.136  10.565
  205W        W 1070  13.126  26.285   7.743
  206W        W 1071  14.309  28.678  10.497
  207W        W 1072  13.276  25.759  10.536
  208W        W 1073  14.295  28.060  10.658
  209W        W 1074  13.725  26.227  10.254
  210W        W 1075  13.525  26.165   8.524
  211W        W 1076  13.918  27.299  10.928
  212W        W 1077  11.658  28.875   8.914
  213W        W 1078  12.316  26.592   7.900
  214W        W 1079  11.885  25.876  10.564
  215W        W 1080  13.937  26.360   8.245
  216W        W 1081  14.304  26.842   8.190
  217W        W 1082  12.047  29.059  10.661
  218W        W 1083  11.973  25.595   7.896
  219W        W 1084  14.294  26.129   8.931
  220W        W 1085  14.444  28.378   7.376
  221W        W 1086  11.351  27.581   9.078
  222W        W 1087  13.268  26.168   7.308
  223W        W 1088  14.402  28.500   9.028
  224W        W 1089  14.441  25.694   9.778
  225W        W 1090  12.886  26.906  10.332
  226W        W 1091  12.979  28.245   8.035
  227W        W 1092  13.379  27.539  10.775
  228W        W 1093  13.053  25.516   9.084
  229W        W 1094  11.665  26.419   9.147
  230W        W 1095  11.219  27.619   9.921
  231W        W 1096  13.078  28.812   8.627
  232W        W 1097  14.272  26.409   9.499
  233W        W 1098  12.909  28.756  10.266
  234W        W 1099  14.252  27.815   7.471
  235W        W 1100  12.687  27.298   8.532
  236W        W 1101  14.539  25.809  10.273
  237W        W 1102  12.688  27.644   9.867
  238W        W 1103  12.905  26.530   9.312
  239W        W 1104  13.757  26.828   8.150
  240W        W 1105  14.044  26.561   7.792
  241W        W 1106  13.853  28.601   8.181
  242W        W 1107  13.687  28.204   8.977
  243W        W 1108  13.583  27.283   7.955
  244W        W 1109  13.016  27.493   8.941
  245W        W 1110  13.897  27.281   9.008
  246W        W 1111  11.272  26.296   9.432
  247W        W 1112  14.050  27.348  10.259
  248W        W 1113  14.401  28.966   9.405
  249W        W 1114  12.331  28.410   8.807
  250W        W 1115  13.338  28.943  10.131
  251W        W 1116  13.332  26.273   9.895
  252W        W 1117  12.539  28.981   9.956
  253W        W 1118  14.236  25.935   8.422
  254W        W 1119  14.027  27.254   9.723
  255W        W 1120  11.010  26.575   9.761
  256W        W 1121  13.870  26.370   8.779
  257W        W 1122  14.281  26.521  10.556
  258W        W 1123  13.166  28.220   8.774
  259W        W 1124  12.422  28.811   8.387
  260W        W 1125  11.537  25.991   7.645
  261W        W 1126  12.641  25.645   9.455
  262W        W 1127  11.669  28.765   7.303
  263W        W 1128  12.043  27.231   8.054
  264W        W 1129  12.697  27.860  10.367
  265W        W 1130  12.527  26.218   8.357
  266W        W 1131  13.883  25.815   8.785
  267W        W 1132  13.603  29.097   9.113
  268W        W 1133  13.015  28.745   9.453
  269W        W 1134  12.411  27.782   9.414
  270W        W 1135  14.181  28.505   9.540
  271W        W 1136  11.875  26.008   8.309
  272W        W 1137  12.397  28.305   9.269
  273W        W 1138  11.880  26.236   7.334
  274W        W 1139  12.681  26.845   9.728
  275W        W 1140  13.529  25.711   9.598
  276W        W 1141  10.949  27.554   9.483
  277W        W 1142  12.653  27.372   7.641
  278W        W 1143  11.921  25.687   7.411
  279W        W 1144  12.659  26.768   8.462
  280W        W 1145  13.629  25.744  10.161
  281W        W 1146  12.217  27.756  10.270
  282W        W 1147  13.021  27.538  10.487
  283W        W 1148  13.638  27.568  10.380
  284W        W 1149  12.922  25.708  10.885
  285W        W 1150  12.144  26.324   9.278
  286W        W 1151  11.570  26.280   8.676
  287W        W 1152  11.356  28.992   8.352
  288W        W 1153  12.688  28.322  10.477
  289W        W 1154  11.723  27.807   7.836
  290W        W 1155  13.403  27.192   9.057
  291W        W 1156  13.683  26.991   9.456
  292W        W 1157  12.888  27.665   9.390
  293W        W 1158  13.358  28.039   7.522
  294W        W 1159  13.030  26.060   8.850
  295W        W 1160  14.509  26.338   8.118
  296W        W 1161  11.003  28.927  10.149
  297W        W 1162  11.420  28.153   9.681
  298W        W 1163  10.987  28.999   7.913
  299W        W 1164  12.886  26.269   9.719
  300W        W 1165  12.249  28.292   7.568
  301W        W 1166  14.154  28.674   7.754
  302W        W 1167  13.129  27.327   7.768
  303W        W 1168  11.972  26.518   8.285
  304W        W 1169  12.804  26.428   7.337
  305W        W 1170  13.388  27.993  10.515
  306W        W 1171  13.741  25.899   8.132
  307W        W 1172  11.071  25.747   7.580
  308W        W 1173  12.357  28.066   9.870
  309W        W 1174  12.156  27.982   8.962
  310W        W 1175  11.898  27.934   7.360
  311W        W 1176  11.139  28.175   8.128
  312W        W 1177  11.643  27.245  10.570
  313W        W 1178  12.347  25.805  10.756
  314W        W 1179  13.056  25.947  10.112
  315W        W 1180  12.251  25.715   8.393
  316W        W 1181  13.310  25.792   7.898
  317W        W 1182  11.255  25.724   9.475
  318W        W 1183  11.303  26.687   8.845
  319W        W 1184  13.992  25.795   9.251
  320W        W 1185  11.414  26.293   8.065
  321W        W 1186  13.985  25.981   9.681
  322W        W 1187  14.381  27.184   7.366
  323W        W 1188  11.673  25.942   9.185
  324W        W 1189  12.787  26.514  10.125
  325W        W 1190  10.935  26.204   7.603
  326W        W 1191  11.721  27.593  10.164
  327W        W 1192  13.079  26.991   9.343
  328W        W 1193  12.946  29.070   7.639
  329W        W 1194  11.092  27.577   7.336
  330W        W 1195  11.827  27.988  10.462
  331W        W 1196  11.348  27.155  10.093
  332W        W 1197  12.339  27.260   9.887
  333W        W 1198  14.107  25.619  10.149
  334W        W 1199  14.505  27.229  10.140
  335W        W 1200  14.493  27.429   7.826
  336W        W 1201  13.356  27.761   7.925
  337W        W 1202  13.830  29.061   7.620
  338W        W 1203  13.007  27.051  10.762
  339W        W 1204  11.337  28.018  10.802
  340W        W 1205  14.543  25.940  10.754
  341W        W 1206  14.261  26.868   9.375
  342W        W 1207  12.569  28.998  10.852
  343W        W 1208  12.424  25.627   7.579
  344W        W 1209  13.963  28.226   7.522
  345W        W 1210  11.732  26.319  10.408
  346W        W 1211  12.166  28.313  10.270
  347W        W 1212  14.292  26.304  10.068
  348W        W 1213  13.503  28.963   8.036
  349W        W 1214  13.742  27.582   9.403
  350W        W 1215  11.992  25.998  10.070
  351W        W 1216  12.461  27.067  10.827
  352W        W 1217  11.964  28.246   8.021
  353W        W 1218  13.719  27.744   8.285
  354W        W 1219  11.487  26.370  10.009
  355W        W 1220  12.816  28.432   8.473
  356W        W 1221  14.566  26.992   8.654
  357W        W 1222  12.788  25.625  10.373
  358W        W 1223  13.568  28.330   9.452
  359W        W 1224  13.871  28.674   9.160
  360W        W 1225  13.090  28.476   7.588
  361W        W 1226  11.100  28.368  10.430
  362W        W 1227  11.843  26.360   9.668
  363W        W 1228  11.813  25.708   8.778
  364W        W 1229  13.434  26.550   9.470
  365W        W 1230  12.232  27.721   7.670
  366W        W 1231  14.230  27.663   9.169
  367W        W 1232  11.557  28.421  10.592
  368W        W 1233  13.944  29.103   8.389
  369W        W 1234  12.043  26.123   8.834
  370W        W 1235  11.812  27.616   8.924
  371W        W 1236  12.125  29.027   9.674
  372W        W 1237  14.192  29.123  10.706
  373W        W 1238  13.351  27.311   9.639
  374W        W 1239  11.200  27.109   7.554
  375W        W 1240  14.334  28.767   8.251
  376W        W 1241  14.171  26.091   7.870
  377W        W 1242  12.310  25.610  10.273
  378W        W 1243  14.016  28.412   8.731
  379W        W 1244  14.045  26.968   8.636
  380W        W 1245  12.162  26.641   8.852
  381W        W 1246  12.407  26.903  10.176
  382W        W 1247  13.518  28.056  10.039
  383W        W 1248  12.168  26.510  10.151
  384W        W 1249  12.147  28.976   8.767
  385W        W 1250  11.464  28.935  10.401
  386W        W 1251  11.576  28.296   7.531
  387W        W 1252  14.093  28.054   8.341
  388W        W 1253  11.697  26.846  10.227
  389W        W 1254  14.470  26.776   7.708
  390W        W 1255  12.215  27.833   8.179
  391W        W 1256  13.314  27.215  10.260
  392W        W 1257  13.205  26.843   9.804
  393W        W 1258  11.765  27.215   9.833
  394W        W 1259  13.975  29.103   9.662
  395W        W 1260  13.766  25.737  10.656
  396W        W 1261  11.430  25.887  10.243
  397W        W 1262  11.769  26.910   9.296
  398W        W 1263  12.138  26.724   7.418
  399W        W 1264  10.941  28.483   9.963
  400W        W 1265  12.526  27.192   9.406
  401W        W 1266  12.349  26.217   7.511
  402W        W 1267  11.484  27.033   8.292
  403W        W 1268  11.255  28.885   9.729
  404W        W 1269  14.050  27.111   7.837
  405W        W 1270  14.145  26.027  10.523
  406W        W 1271  13.581  28.236   8.486
  407W        W 1272  11.179  27.160  10.663
  408W        W 1273  14.145  25.624   7.959
  409W        W 1274  13.665  28.099   7.970
  410W        W 1275  12.567  27.157   8.055
  411W        W 1276  13.754  25.961   7.578
  412W        W 1277  13.819  26.568   9.764
  413W        W 1278  11.528  27.161   8.971
  414W        W 1279  11.822  28.100   8.620
  415W        W 1280  13.585  26.720   8.585
  416W        W 1281  12.608  26.099   9.281
  417W        W 1282  14.570  28.010   9.792
  418W        W 1283  14.488  25.997   9.353
  419W        W 1284  11.027  28.827   8.729
  420W        W 1285  11.536  28.014   8.265
  421W        W 1286  11.451  25.631  10.818
  422W        W 1287  12.570  28.484  10.920
  423W        W 1288  14.325  27.452   8.710
  424W        W 1289  13.679  27.629   7.590
  425W        W 1290  12.974  29.150   9.802
  426W        W 1291  13.831  27.872  10.839
  427W        W 1292  12.646  25.582   8.119
  428W        W 1293  13.359  26.451   8.978
  429W        W 1294  11.045  28.038   9.310
  430W        W 1295  12.298  26.000   7.951
  431W        W 1296  12.102  27.484  10.800
  432W        W 1297  13.096  26.465   8.514
  433W        W 1298  13.301  27.875   9.636
  434W        W 1299  11.455  28.480  10.071
  435W        W 1300  12.046  28.463  10.794
  436W        W 1301  11.897  26.260   7.808
  437W        W 1302  13.414  26.402   8.133
  438W        W 1303  13.372  28.510  10.370
  439W        W 1304  12.057  27.102   8.969
  440W        W 1305  11.712  28.800   9.834
  441W        W 1306  14.457  28.917   7.435
  442W        W 1307  11.320  27.589  10.431
  443W        W 1308  13.315  27.851   9.119
  444W        W 1309  11.751  27.500   8.361
  445W        W 1310  12.122  28.507   9.756
  446W        W 1311  12.500  25.926   8.797
  447W        W 1312  11.111  27.910   7.727
  448W        W 1313  12.630  26.861   7.597
  449W        W 1314  11.276  27.410   8.616
  450W        W 1315  12.566  26.052  10.080
  451W        W 1316  14.238  25.761   7.507
  452W        W 1317  14.331  27.507  10.606
  453W        W 1318  12.985  28.764  10.758
  454W        W 1319  14.543  27.858  10.280
  455W        W 1320  13.951  28.656  10.891
  456W        W 1321  11.690  29.112   9.369
  457W        W 1322  14.549  27.734   8.243
  458W        W 1323  13.079  27.001   8.756
  459W        W 1324  12.846  25.613   8.646
  460W        W 1325  11.905  28.597   8.483
  461W        W 1326  12.404  26.338   9.708
  462W        W 1327  12.104  25.707   9.177
  463W        W 1328  11.167  28.529   7.725
  464W        W 1329  12.983  27.893   8.443
  465W        W 1330  11.858  28.688  10.322
  466W        W 1331  11.335  27.511   8.018
  467W        W 1332  11.220  26.054   9.017
  468W        W 1333  12.768  28.019   9.074
  469W        W 1334  11.020  25.873   8.094
  470W        W 1335  13.684  27.079  10.021
  471W        W 1336  13.561  26.465   7.593
  472W        W 1337  14.078  28.137   9.241
  473W        W 1338  12.739  28.621   9.072
  474W        W 1339  12.151  28.725   7.983
  475W        W 1340  13.433  25.628   7.413
  476W        W 1341  11.233  28.888   9.154
  477W        W 1342  13.430  26.646  10.789
  478W        W 1343  11.413  26.176  10.788
  479W        W 1344  11.144  26.776   8.121
  480W        W 1345  11.835  26.765   7.846
  481W        W 1346  13.598  27.092  10.663
  482W        W 1347  11.941  27.373   9.372
  483W        W 1348  13.415  25.659   8.492
  484W        W 1349  12.546  29.090   8.995
  485W        W 1350  13.760  28.552   9.932
  486W        W 1351  13.344  28.701   9.043
  487W        W 1352  13.363  27.681   8.637
  488W        W 1353  12.825  25.906   7.708
  489W        W 1354  14.506  25.534   8.430
  490W        W 1355  12.194  27.169   7.593
  491W        W 1356  14.360  26.506   8.583
  492W        W 1357  13.052  27.676   7.460
  493W        W 1358  13.988  27.876  10.208
  494W        W 1359  13.642  28.577   7.675
  495W        W 1360  12.257  26.252  10.581
  496W        W 1361  12.077  26.836   9.822
  497W        W 1362  14.169  28.331  10.099
  498W        W 1363  13.269  26.281  10.476
  499W        W 1364  11.113  26.752  10.253
  500W        W 1365  12.873  27.229   9.979
  501W        W 1366  11.230  27.987   8.636
  502W        W 1367  11.377  27.284   9.526
  503W        W 1368  13.694  27.570   9.876
  504W        W 1369  13.466  28.950  10.687
  505W        W 1370  13.362  26.689  10.240
  506W        W 1371  13.639  28.743   8.645
  507W        W 1372  12.641  28.463   9.968
  508W        W 1373  12.126  28.818   9.237
  509W        W 1374  13.931  27.989   9.656
  510W        W 1375  12.981  28.061  10.793
  511W        W 1376  11.586  28.014   9.132
  512W        W 1377  13.932  27.773   8.777
  513W        W 1378  13.573  28.839   9.528
  514W        W 1379  11.551  28.568   9.398
  515W        W 1380  12.572  26.620  10.608
  516W        W 1381  13.023  28.786   8.119
  517W        W 1382  12.331  28.041  10.757
  518W        W 1383  12.457  28.279   8.134
  519W        W 1384  11.678  27.019   7.393
  520W        W 1385  11.017  29.105  14.292
  521W        W 1386  11.393  27.998  13.815
  522W        W 1387  14.098  27.728  11.585
  523W        W 1388  14.228  28.813  13.612
  524W        W 1389  12.146  28.804  11.138
  525W        W 1390  12.229  26.956  12.121
  526W        W 1391  11.744  26.804  12.285
  527W        W 1392  12.735  27.619  11.719
  528W        W 1393  12.410  28.711  14.074
  529W        W 1394  11.059  26.272  14.037
  530W        W 1395  11.821  25.552  13.839
  531W        W 1396  13.515  25.940  12.726
  532W        W 1397  13.164  26.811  11.296
  533W        W 1398  13.734  26.245  14.387
  534W        W 1399  11.100  26.037  13.512
  535W        W 1400  11.199  28.656  14.533
  536W        W 1401  12.721  28.046  11.265
  537W        W 1402  11.153  26.829  12.958
  538W        W 1403  12.046  26.720  14.195
  539W        W 1404  14.505  26.579  12.694
  540W        W 1405  14.269  27.622  13.553
  541W        W 1406  12.577  26.955  12.580
  542W        W 1407  13.123  28.294  12.949
  543W        W 1408  11.623  27.728  13.181
  544W        W 1409  10.982  27.256  12.752
  545W        W 1410  12.018  27.228  13.944
  546W        W 1411  14.289  27.011  14.198
  547W        W 1412  11.905  28.455  12.643
  548W        W 1413  13.026  28.144  13.777
  549W        W 1414  12.246  26.784  13.002
  550W        W 1415  12.538  27.568  12.645
  551W        W 1416  13.535  28.341  14.493
  552W        W 1417  12.614  27.661  14.503
  553W        W 1418  12.595  27.377  13.981
  554W        W 1419  11.004  26.768  14.503
  555W        W 1420  13.836  28.303  14.102
  556W        W 1421  11.417  25.885  12.100
  557W        W 1422  11.944  28.143  13.099
  558W        W 1423  14.407  27.926  12.389
  559W        W 1424  13.820  26.326  12.956
  560W        W 1425  14.105  26.279  11.051
  561W        W 1426  14.570  27.080  13.357
  562W        W 1427  12.537  28.787  13.110
  563W        W 1428  14.311  28.253  11.548
  564W        W 1429  11.440  29.039  11.302
  565W        W 1430  11.833  29.085  11.978
  566W        W 1431  11.630  25.839  13.404
  567W        W 1432  14.253  26.857  13.679
  568W        W 1433  13.658  27.279  12.138
  569W        W 1434  13.624  26.967  11.165
  570W        W 1435  12.832  28.111  13.305
  571W        W 1436  12.638  26.441  12.504
  572W        W 1437  13.238  28.528  13.498
  573W        W 1438  14.109  27.319  11.920
  574W        W 1439  13.011  25.977  11.936
  575W        W 1440  11.668  28.671  11.619
  576W        W 1441  11.039  26.170  12.218
  577W        W 1442  13.825  26.777  12.692
  578W        W 1443  11.283  28.394  12.607
  579W        W 1444  12.624  28.744  11.477
  580W        W 1445  14.016  26.770  10.941
  581W        W 1446  11.039  28.528  13.105
  582W        W 1447  11.830  28.100  13.585
  583W        W 1448  12.203  27.460  12.204
  584W        W 1449  12.225  25.865  13.297
  585W        W 1450  14.454  25.627  12.594
  586W        W 1451  11.673  27.499  11.062
  587W        W 1452  11.328  26.532  11.241
  588W        W 1453  11.390  28.488  12.035
  589W        W 1454  12.521  27.971  12.283
  590W        W 1455  13.853  28.830  13.997
  591W        W 1456  12.779  26.472  11.681
  592W        W 1457  14.162  28.870  12.453
  593W        W 1458  13.839  26.723  14.051
  594W        W 1459  14.552  28.379  12.185
  595W        W 1460  13.179  27.671  13.669
  596W        W 1461  10.945  27.222  11.875
  597W        W 1462  12.056  27.637  13.448
  598W        W 1463  13.260  26.901  11.826
  599W        W 1464  13.137  27.391  11.930
  600W        W 1465  11.480  26.811  13.404
  601W        W 1466  11.465  26.687  14.326
  602W        W 1467  11.355  25.604  12.485
  603W        W 1468  13.123  25.951  13.046
  604W        W 1469  12.771  26.136  14.209
  605W        W 1470  13.126  26.285  11.387
  606W        W 1471  14.309  28.678  14.141
  607W        W 1472  13.276  25.759  14.180
  608W        W 1473  14.295  28.060  14.302
  609W        W 1474  13.725  26.227  13.898
  610W        W 1475  13.525  26.165  12.168
  611W        W 1476  13.918  27.299  14.572
  612W        W 1477  11.658  28.875  12.558
  613W        W 1478  12.316  26.592  11.544
  614W        W 1479  11.885  25.876  14.208
  615W        W 1480  13.937  26.360  11.889
  616W        W 1481  14.304  26.842  11.834
  617W        W 1482  12.047  29.059  14.305
  618W        W 1483  11.973  25.595  11.540
  619W        W 1484  14.294  26.129  12.575
  620W        W 1485  14.444  28.378  11.020
  621W        W 1486  11.351  27.581  12.722
  622W        W 1487  13.268  26.168  10.952
  623W        W 1488  14.402  28.500  12.672
  624W        W 1489  14.441  25.694  13.422
  625W        W 1490  12.886  26.906  13.976
  626W        W 1491  12.979  28.245  11.679
  627W        W 1492  13.379  27.539  14.419
  628W        W 1493  13.053  25.516  12.728
  629W        W 1494  11.665  26.419  12.791
  630W        W 1495  11.219  27.619  13.565
  631W        W 1496  13.078  28.812  12.271
  632W        W 1497  14.272  26.409  13.143
  633W        W 1498  12.909  28.756  13.910
  634W        W 1499  14.252  27.815  11.115
  635W        W 1500  12.687  27.298  12.176
  636W        W 1501  14.539  25.809  13.917
  637W        W 1502  12.688  27.644  13.511
  638W        W 1503  12.905  26.530  12.956
  639W        W 1504  13.757  26.828  11.794
  640W        W 1505  14.044  26.561  11.436
  641W        W 1506  13.853  28.601  11.825
  642W        W 1507  13.687  28.204  12.621
  643W        W 1508  13.583  27.283  11.599
  644W        W 1509  13.016  27.493  12.585
  645W        W 1510  13.897  27.281  12.652
  646W        W 1511  11.272  26.296  13.076
  647W        W 1512  14.050  27.348  13.903
  648W        W 1513  14.401  28.966  13.049
  649W        W 1514  12.331  28.410  12.451
  650W        W 1515  13.338  28.943  13.775
  651W        W 1516  13.332  26.273  13.539
  652W        W 1517  12.539  28.981  13.600
  653W        W 1518  14.236  25.935  12.066
  654W        W 1519  14.027  27.254  13.367
  655W        W 1520  11.010  26.575  13.405
  656W        W 1521  13.870  26.370  12.423
  657W        W 1522  14.281  26.521  14.200
  658W        W 1523  13.166  28.220  12.418
  659W        W 1524  12.422  28.811  12.031
  660W        W 1525  11.537  25.991  11.289
  661W        W 1526  12.641  25.645  13.099
  662W        W 1527  11.669  28.765  10.947
  663W        W 1528  12.043  27.231  11.698
  664W        W 1529  12.697  27.860  14.011
  665W        W 1530  12.527  26.218  12.001
  666W        W 1531  13.883  25.815  12.429
  667W        W 1532  13.603  29.097  12.757
  668W        W 1533  13.015  28.745  13.097
  669W        W 1534  12.411  27.782  13.058
  670W        W 1535  14.181  28.505  13.184
  671W        W 1536  11.875  26.008  11.953
  672W        W 1537  12.397  28.305  12.913
  673W        W 1538  11.880  26.236  10.978
  674W        W 1539  12.681  26.845  13.372
  675W        W 1540  13.529  25.711  13.242
  676W        W 1541  10.949  27.554  13.127
  677W        W 1542  12.653  27.372  11.285
  678W        W 1543  11.921  25.687  11.055
  679W        W 1544  12.659  26.768  12.106
  680W        W 1545  13.629  25.744  13.805
  681W        W 1546  12.217  27.756  13.914
  682W        W 1547  13.021  27.538  14.131
  683W        W 1548  13.638  27.568  14.024
  684W        W 1549  12.922  25.708  14.529
  685W        W 1550  12.144  26.324  12.922
  686W        W 1551  11.570  26.280  12.320
  687W        W 1552  11.356  28.992  11.996
  688W        W 1553  12.688  28.322  14.121
  689W        W 1554  11.723  27.807  11.480
  690W        W 1555  13.403  27.192  12.701
  691W        W 1556  13.683  26.991  13.100
  692W        W 1557  12.888  27.665  13.034
  693W        W 1558  13.358  28.039  11.166
  694W        W 1559  13.030  26.060  12.494
  695W        W 1560  14.509  26.338  11.762
  696W        W 1561  11.003  28.927  13.793
  697W        W 1562  11.420  28.153  13.325
  698W        W 1563  10.987  28.999  11.557
  699W        W 1564  12.886  26.269  13.363
  700W        W 1565  12.249  28.292  11.212
  701W        W 1566  14.154  28.674  11.398
  702W        W 1567  13.129  27.327  11.412
  703W        W 1568  11.972  26.518  11.929
  704W        W 1569  12.804  26.428  10.981
  705W        W 1570  13.388  27.993  14.159
  706W        W 1571  13.741  25.899  11.776
  707W        W 1572  11.071  25.747  11.224
  708W        W 1573  12.357  28.066  13.514
  709W        W 1574  12.156  27.982  12.606
  710W        W 1575  11.898  27.934  11.004
  711W        W 1576  11.139  28.175  11.772
  712W        W 1577  11.643  27.245  14.214
  713W        W 1578  12.347  25.805  14.400
  714W        W 1579  13.056  25.947  13.756
  715W        W 1580  12.251  25.715  12.037
  716W        W 1581  13.310  25.792  11.542
  717W        W 1582  11.255  25.724  13.119
  718W        W 1583  11.303  26.687  12.489
  719W        W 1584  13.992  25.795  12.895
  720W        W 1585  11.414  26.293  11.709
  721W        W 1586  13.985  25.981  13.325
  722W        W 1587  14.381  27.184  11.010
  723W        W 1588  11.673  25.942  12.829
  724W        W 1589  12.787  26.514  13.769
  725W        W 1590  10.935  26.204  11.247
  726W        W 1591  11.721  27.593  13.808
  727W        W 1592  13.079  26.991  12.987
  728W        W 1593  12.946  29.070  11.283
  729W        W 1594  11.092  27.577  10.980
  730W        W 1595  11.827  27.988  14.106
  731W        W 1596  11.348  27.155  13.737
  732W        W 1597  12.339  27.260  13.531
  733W        W 1598  14.107  25.619  13.793
  734W        W 1599  14.505  27.229  13.784
  735W        W 1600  14.493  27.429  11.470
  736W        W 1601  13.356  27.761  11.569
  737W        W 1602  13.830  29.061  11.264
  738W        W 1603  13.007  27.051  14.406
  739W        W 1604  11.337  28.018  14.446
  740W        W 1605  14.543  25.940  14.398
  741W        W 1606  14.261  26.868  13.019
  742W        W 1607  12.569  28.998  14.496
  743W        W 1608  12.424  25.627  11.223
  744W        W 1609  13.963  28.226  11.166
  745W        W 1610  11.732  26.319  14.052
  746W        W 1611  12.166  28.313  13.914
  747W        W 1612  14.292  26.304  13.712
  748W        W 1613  13.503  28.963  11.680
  749W        W 1614  13.742  27.582  13.047
  750W        W 1615  11.992  25.998  13.714
  751W        W 1616  12.461  27.067  14.471
  752W        W 1617  11.964  28.246  11.665
  753W        W 1618  13.719  27.744  11.929
  754W        W 1619  11.487  26.370  13.653
  755W        W 1620  12.816  28.432  12.117
  756W        W 1621  14.566  26.992  12.298
  757W        W 1622  12.788  25.625  14.017
  758W        W 1623  13.568  28.330  13.096
  759W        W 1624  13.871  28.674  12.804
  760W        W 1625  13.090  28.476  11.232
  761W        W 1626  11.100  28.368  14.074
  762W        W 1627  11.843  26.360  13.312
  763W        W 1628  11.813  25.708  12.422
  764W        W 1629  13.434  26.550  13.114
  765W        W 1630  12.232  27.721  11.314
  766W        W 1631  14.230  27.663  12.813
  767W        W 1632  11.557  28.421  14.236
  768W        W 1633  13.944  29.103  12.033
  769W        W 1634  12.043  26.123  12.478
  770W        W 1635  11.812  27.616  12.568
  771W        W 1636  12.125  29.027  13.318
  772W        W 1637  14.192  29.123  14.350
  773W        W 1638  13.351  27.311  13.283
  774W        W 1639  11.200  27.109  11.198
  775W        W 1640  14.334  28.767  11.895
  776W        W 1641  14.171  26.091  11.514
  777W        W 1642  12.310  25.610  13.917
  778W        W 1643  14.016  28.412  12.375
  779W        W 1644  14.045  26.968  12.280
  780W        W 1645  12.162  26.641  12.496
  781W        W 1646  12.407  26.903  13.820
  782W        W 1647  13.518  28.056  13.683
  783W        W 1648  12.168  26.510  13.795
  784W        W 1649  12.147  28.976  12.411
  785W        W 1650  11.464  28.935  14.045
  786W        W 1651  11.576  28.296  11.175
  787W        W 1652  14.093  28.054  11.985
  788W        W 1653  11.697  26.846  13.871
  789W        W 1654  14.470  26.776  11.352
  790W        W 1655  12.215  27.833  11.823
  791W        W 1656  13.314  27.215  13.904
  792W        W 1657  13.205  26.843  13.448
  793W        W 1658  11.765  27.215  13.477
  794W        W 1659  13.975  29.103  13.306
  795W        W 1660  13.766  25.737  14.300
  796W        W 1661  11.430  25.887  13.887
  797W        W 1662  11.769  26.910  12.940
  798W        W 1663  12.138  26.724  11.062
  799W        W 1664  10.941  28.483  13.607
  800W        W 1665  12.526  27.192  13.050
  801W        W 1666  12.349  26.217  11.155
  802W        W 1667  11.484  27.033  11.936
  803W        W 1668  11.255  28.885  13.373
  804W        W 1669  14.050  27.111  11.481
  805W        W 1670  14.145  26.027  14.167
  806W        W 1671  13.581  28.236  12.130
  807W        W 1672  11.179  27.160  14.307
  808W        W 1673  14.145  25.624  11.603
  809W        W 1674  13.665  28.099  11.614
  810W        W 1675  12.567  27.157  11.699
  811W        W 1676  13.754  25.961  11.222
  812W        W 1677  13.819  26.568  13.408
  813W        W 1678  11.528  27.161  12.615
  814W        W 1679  11.822  28.100  12.264
  815W        W 1680  13.585  26.720  12.229
  816W        W 1681  12.608  26.099  12.925
  817W        W 1682  14.570  28.010  13.436
  818W        W 1683  14.488  25.997  12.997
  819W        W 1684  11.027  28.827  12.373
  820W        W 1685  11.536  28.014  11.909
  821W        W 1686  11.451  25.631  14.462
  822W        W 1687  12.570  28.484  14.564
  823W        W 1688  14.325  27.452  12.354
  824W        W 1689  13.679  27.629  11.234
  825W        W 1690  12.974  29.150  13.446
  826W        W 1691  13.831  27.872  14.483
  827W        W 1692  12.646  25.582  11.763
  828W        W 1693  13.359  26.451  12.622
  829W        W 1694  11.045  28.038  12.954
  830W        W 1695  12.298  26.000  11.595
  831W        W 1696  12.102  27.484  14.444
  832W        W 1697  13.096  26.465  12.158
  833W        W 1698  13.301  27.875  13.280
  834W        W 1699  11.455  28.480  13.715
  835W        W 1700  12.046  28.463  14.438
  836W        W 1701  11.897  26.260  11.452
  837W        W 1702  13.414  26.402  11.777
  838W        W 1703  13.372  28.510  14.014
  839W        W 1704  12.057  27.102  12.613
  840W        W 1705  11.712  28.800  13.478
  841W        W 1706  14.457  28.917  11.079
  842W        W 1707  11.320  27.589  14.075
  843W        W 1708  13.315  27.851  12.763
  844W        W 1709  11.751  27.500  12.005
  845W        W 1710  12.122  28.507  13.400
  846W        W 1711  12.500  25.926  12.441
  847W        W 1712  11.111  27.910  11.371
  848W        W 1713  12.630  26.861  11.241
  849W        W 1714  11.276  27.410  12.260
  850W        W 1715  12.566  26.052  13.724
  851W        W 1716  14.238  25.761  11.151
  852W        W 1717  14.331  27.507  14.250
  853W        W 1718  12.985  28.764  14.402
  854W        W 1719  14.543  27.858  13.924
  855W        W 1720  13.951  28.656  14.535
  856W        W 1721  11.690  29.112  13.013
  857W        W 1722  14.549  27.734  11.887
  858W        W 1723  13.079  27.001  12.400
  859W        W 1724  12.846  25.613  12.290
  860W        W 1725  11.905  28.597  12.127
  861W        W 1726  12.404  26.338  13.352
  862W        W 1727  12.104  25.707  12.821
  863W        W 1728  11.167  28.529  11.369
  864W        W 1729  12.983  27.893  12.087
  865W        W 1730  11.858  28.688  13.966
  866W        W 1731  11.335  27.511  11.662
  867W        W 1732  11.220  26.054  12.661
  868W        W 1733  12.768  28.019  12.718
  869W        W 1734  11.020  25.873  11.738
  870W        W 1735  13.684  27.079  13.665
  871W        W 1736  13.561  26.465  11.237
  872W        W 1737  14.078  28.137  12.885
  873W        W 1738  12.739  28.621  12.716
  874W        W 1739  12.151  28.725  11.627
  875W        W 1740  13.433  25.628  11.057
  876W        W 1741  11.233  28.888  12.798
  877W        W 1742  13.430  26.646  14.433
  878W        W 1743  11.413  26.176  14.432
  879W        W 1744  11.144  26.776  11.765
  880W        W 1745  11.835  26.765  11.490
  881W        W 1746  13.598  27.092  14.307
  882W        W 1747  11.941  27.373  13.016
  883W        W 1748  13.415  25.659  12.136
  884W        W 1749  12.546  29.090  12.639
  885W        W 1750  13.760  28.552  13.576
  886W        W 1751  13.344  28.701  12.687
  887W        W 1752  13.363  27.681  12.281
  888W        W 1753  12.825  25.906  11.352
  889W        W 1754  14.506  25.534  12.074
  890W        W 1755  12.194  27.169  11.237
  891W        W 1756  14.360  26.506  12.227
  892W        W 1757  13.052  27.676  11.104
  893W        W 1758  13.988  27.876  13.852
  894W        W 1759  13.642  28.577  11.319
  895W        W 1760  12.257  26.252  14.225
  896W        W 1761  12.077  26.836  13.466
  897W        W 1762  14.169  28.331  13.743
  898W        W 1763  13.269  26.281  14.120
  899W        W 1764  11.113  26.752  13.897
  900W        W 1765  12.873  27.229  13.623
  901W        W 1766  11.230  27.987  12.280
  902W        W 1767  11.377  27.284  13.170
  903W        W 1768  13.694  27.570  13.520
  904W        W 1769  13.466  28.950  14.331
  905W        W 1770  13.362  26.689  13.884
  906W        W 1771  13.639  28.743  12.289
  907W        W 1772  12.641  28.463  13.612
  908W        W 1773  12.126  28.818  12.881
  909W        W 1774  13.931  27.989  13.300
  910W        W 1775  12.981  28.061  14.437
  911W        W 1776  11.586  28.014  12.776
  912W        W 1777  13.932  27.773  12.421
  913W        W 1778  13.573  28.839  13.172
  914W        W 1779  11.551  28.568  13.042
  915W        W 1780  12.572  26.620  14.252
  916W        W 1781  13.023  28.786  11.763
  917W        W 1782  12.331  28.041  14.401
  918W        W 1783  12.457  28.279  11.778
  919W        W 1784  11.678  27.019  11.037
  920W        W 1785  11.017  29.105  17.936
  921W        W 1786  11.393  27.998  17.459
  922W        W 1787  14.098  27.728  15.229
  923W        W 1788  14.228  28.813  17.256
  924W        W 1789  12.146  28.804  14.782
  925W        W 1790  12.229  26.956  15.765
  926W        W 1791  11.744  26.804  15.929
  927W        W 1792  12.735  27.619  15.363
  928W        W 1793  12.410  28.711  17.718
  929W        W 1794  11.059  26.272  17.681
  930W        W 1795  11.821  25.552  17.483
  931W        W 1796  13.515  25.940  16.370
  932W        W 1797  13.164  26.811  14.940
  933W        W 1798  13.734  26.245  18.031
  934W        W 1799  11.100  26.037  17.156
  935W        W 1800  11.199  28.656  18.177
  936W        W 1801  12.721  28.046  14.909
  937W        W 1802  11.153  26.829  16.602
  938W        W 1803  12.046  26.720  17.839
  939W        W 1804  14.505  26.579  16.338
  940W        W 1805  14.269  27.622  17.197
  941W        W 1806  12.577  26.955  16.224
  942W        W 1807  13.123  28.294  16.593
  943W        W 1808  11.623  27.728  16.825
  944W        W 1809  10.982  27.256  16.396
  945W        W 1810  12.018  27.228  17.588
  946W        W 1811  14.289  27.011  17.842
  947W        W 1812  11.905  28.455  16.287
  948W        W 1813  13.026  28.144  17.421
  949W        W 1814  12.246  26.784  16.646
  950W        W 1815  12.538  27.568  16.289
  951W        W 1816  13.535  28.341  18.137
  952W        W 1817  12.614  27.661  18.147
  953W        W 1818  12.595  27.377  17.625
  954W        W 1819  11.004  26.768  18.147
  955W        W 1820  13.836  28.303  17.746
  956W        W 1821  11.417  25.885  15.744
  957W        W 1822  11.944  28.143  16.743
  958W        W 1823  14.407  27.926  16.033
  959W        W 1824  13.820  26.326  16.600
  960W        W 1825  14.105  26.279  14.695
  961W        W 1826  14.570  27.080  17.001
  962W        W 1827  12.537  28.787  16.754
  963W        W 1828  14.311  28.253  15.192
  964W        W 1829  11.440  29.039  14.946
  965W        W 1830  11.833  29.085  15.622
  966W        W 1831  11.630  25.839  17.048
  967W        W 1832  14.253  26.857  17.323
  968W        W 1833  13.658  27.279  15.782
  969W        W 1834  13.624  26.967  14.809
  970W        W 1835  12.832  28.111  16.949
  971W        W 1836  12.638  26.441  16.148
  972W        W 1837  13.238  28.528  17.142
  973W        W 1838  14.109  27.319  15.564
  974W        W 1839  13.011  25.977  15.580
  975W        W 1840  11.668  28.671  15.263
  976W        W 1841  11.039  26.170  15.862
  977W        W 1842  13.825  26.777  16.336
  978W        W 1843  11.283  28.394  16.251
  979W        W 1844  12.624  28.744  15.121
  980W        W 1845  14.016  26.770  14.585
  981W        W 1846  11.039  28.528  16.749
  982W        W 1847  11.830  28.100  17.229
  983W        W 1848  12.203  27.460  15.848
  984W        W 1849  12.225  25.865  16.941
  985W        W 1850  14.454  25.627  16.238
  986W        W 1851  11.673  27.499  14.706
  987W        W 1852  11.328  26.532  14.885
  988W        W 1853  11.390  28.488  15.679
  989W        W 1854  12.521  27.971  15.927
  990W        W 1855  13.853  28.830  17.641
  991W        W 1856  12.779  26.472  15.325
  992W        W 1857  14.162  28.870  16.097
  993W        W 1858  13.839  26.723  17.695
  994W        W 1859  14.552  28.379  15.829
  995W        W 1860  13.179  27.671  17.313
  996W        W 1861  10.945  27.222  15.519
  997W        W 1862  12.056  27.637  17.092
  998W        W 1863  13.260  26.901  15.470
  999W        W 1864  13.137  27.391  15.574
 1000W        W 1865  11.480  26.811  17.048
 1001W        W 1866  11.465  26.687  17.970
 1002W        W 1867  11.355  25.604  16.129
 1003W        W 1868  13.123  25.951  16.690
 1004W        W 1869  12.771  26.136  17.853
 1005W        W 1870  13.126  26.285  15.031
 1006W        W 1871  14.309  28.678  17.785
 1007W        W 1872  13.276  25.759  17.824
 1008W        W 1873  14.295  28.060  17.946
 1009W        W 1874  13.725  26.227  17.542
 1010W        W 1875  13.525  26.165  15.812
 1011W        W 1876  13.918  27.299  18.216
 1012W        W 1877  11.658  28.875  16.202
 1013W        W 1878  12.316  26.592  15.188
 1014W        W 1879  11.885  25.876  17.852
 1015W        W 1880  13.937  26.360  15.533
 1016W        W 1881  14.304  26.842  15.478
 1017W        W 1882  12.047  29.059  17.949
 1018W        W 1883  11.973  25.595  15.184
 1019W        W 1884  14.294  26.129  16.219
 1020W        W 1885  14.444  28.378  14.664
 1021W        W 1886  11.351  27.581  16.366
 1022W        W 1887  13.268  26.168  14.596
 1023W        W 1888  14.402  28.500  16.316
 1024W        W 1889  14.441  25.694  17.066
 1025W        W 1890  12.886  26.906  17.620
 1026W        W 1891  12.979  28.245  15.323
 1027W        W 1892  13.379  27.539  18.063
 1028W        W 1893  13.053  25.516  16.372
 1029W        W 1894  11.665  26.419  16.435
 1030W        W 1895  11.219  27.619  17.209
 1031W        W 1896  13.078  28.812  15.915
 1032W        W 1897  14.272  26.409  16.787
 1033W        W 1898  12.909  28.756  17.554
 1034W        W 1899  14.252  27.815  14.759
 1035W        W 1900  12.687  27.298  15.820
 1036W        W 1901  14.539  25.809  17.561
 1037W        W 1902  12.688  27.644  17.155
 1038W        W 1903  12.905  26.530  16.600
 1039W        W 1904  13.757  26.828  15.438
 1040W        W 1905  14.044  26.561  15.080
 1041W        W 1906  13.853  28.601  15.469
 1042W        W 1907  13.687  28.204  16.265
 1043W        W 1908  13.583  27.283  15.243
 1044W        W 1909  13.016  27.493  16.229
 1045W        W 1910  13.897  27.281  16.296
 1046W        W 1911  11.272  26.296  16.720
 1047W        W 1912  14.050  27.348  17.547
 1048W        W 1913  14.401  28.966  16.693
 1049W        W 1914  12.331  28.410  16.095
 1050W        W 1915  13.338  28.943  17.419
 1051W        W 1916  13.332  26.273  17.183
 1052W        W 1917  12.539  28.981  17.244
 1053W        W 1918  14.236  25.935  15.710
 1054W        W 1919  14.027  27.254  17.011
 1055W        W 1920  11.010  26.575  17.049
 1056W        W 1921  13.870  26.370  16.067
 1057W        W 1922  14.281  26.521  17.844
 1058W        W 1923  13.166  28.220  16.062
 1059W        W 1924  12.422  28.811  15.675
 1060W        W 1925  11.537  25.991  14.933
 1061W        W 1926  12.641  25.645  16.743
 1062W        W 1927  11.669  28.765  14.591
 1063W        W 1928  12.043  27.231  15.342
 1064W        W 1929  12.697  27.860  17.655
 1065W        W 1930  12.527  26.218  15.645
 1066W        W 1931  13.883  25.815  16.073
 1067W        W 1932  13.603  29.097  16.401
 1068W        W 1933  13.015  28.745  16.741
 1069W        W 1934  12.411  27.782  16.702
 1070W        W 1935  14.181  28.505  16.828
 1071W        W 1936  11.875  26.008  15.597
 1072W        W 1937  12.397  28.305  16.557
 1073W        W 1938  11.880  26.236  14.622
 1074W        W 1939  12.681  26.845  17.016
 1075W        W 1940  13.529  25.711  16.886
 1076W        W 1941  10.949  27.554  16.771
 1077W        W 1942  12.653  27.372  14.929
 1078W        W 1943  11.921  25.687  14.699
 1079W        W 1944  12.659  26.768  15.750
 1080W        W 1945  13.629  25.744  17.449
 1081W        W 1946  12.217  27.756  17.558
 1082W        W 1947  13.021  27.538  17.775
 1083W        W 1948  13.638  27.568  17.668
 1084W        W 1949  12.922  25.708  18.173
 1085W        W 1950  12.144  26.324  16.566
 1086W        W 1951  11.570  26.280  15.964
 1087W        W 1952  11.356  28.992  15.640
 1088W        W 1953  12.688  28.322  17.765
 1089W        W 1954  11.723  27.807  15.124
 1090W        W 1955  13.403  27.192  16.345
 1091W        W 1956  13.683  26.991  16.744
 1092W        W 1957  12.888  27.665  16.678
 1093W        W 1958  13.358  28.039  14.810
 1094W        W 1959  13.030  26.060  16.138
 1095W        W 1960  14.509  26.338  15.406
 1096W        W 1961  11.003  28.927  17.437
 1097W        W 1962  11.420  28.153  16.969
 1098W        W 1963  10.987  28.999  15.201
 1099W        W 1964  12.886  26.269  17.007
 1100W        W 1965  12.249  28.292  14.856
 1101W        W 1966  14.154  28.674  15.042
 1102W        W 1967  13.129  27.327  15.056
 1103W        W 1968  11.972  26.518  15.573
 1104W        W 1969  12.804  26.428  14.625
 1105W        W 1970  13.388  27.993  17.803
 1106W        W 1971  13.741  25.899  15.420
 1107W        W 1972  11.071  25.747  14.868
 1108W        W 1973  12.357  28.066  17.158
 1109W        W 1974  12.156  27.982  16.250
 1110W        W 1975  11.898  27.934  14.648
 1111W        W 1976  11.139  28.175  15.416
 1112W        W 1977  11.643  27.245  17.858
 1113W        W 1978  12.347  25.805  18.044
 1114W        W 1979  13.056  25.947  17.400
 1115W        W 1980  12.251  25.715  15.681
 1116W        W 1981  13.310  25.792  15.186
 1117W        W 1982  11.255  25.724  16.763
 1118W        W 1983  11.303  26.687  16.133
 1119W        W 1984  13.992  25.795  16.539
 1120W        W 1985  11.414  26.293  15.353
 1121W        W 1986  13.985  25.981  16.969
 1122W        W 1987  14.381  27.184  14.654
 1123W        W 1988  11.673  25.942  16.473
 1124W        W 1989  12.787  26.514  17.413
 1125W        W 1990  10.935  26.204  14.891
 1126W        W 1991  11.721  27.593  17.452
 1127W        W 1992  13.079  26.991  16.631
 1128W        W 1993  12.946  29.070  14.927
 1129W        W 1994  11.092  27.577  14.624
 1130W        W 1995  11.827  27.988  17.750
 1131W        W 1996  11.348  27.155  17.381
 1132W        W 1997  12.339  27.260  17.175
 1133W        W 1998  14.107  25.619  17.437
 1134W        W 1999  14.505  27.229  17.428
 1135W        W 2000  14.493  27.429  15.114
 1136W        W 2001  13.356  27.761  15.213
 1137W        W 2002  13.830  29.061  14.908
 1138W        W 2003  13.007  27.051  18.050
 1139W        W 2004  11.337  28.018  18.090
 1140W        W 2005  14.543  25.940  18.042
 1141W        W 2006  14.261  26.868  16.663
 1142W        W 2007  12.569  28.998  18.140
 1143W        W 2008  12.424  25.627  14.867
 1144W        W 2009  13.963  28.226  14.810
 1145W        W 2010  11.732  26.319  17.696
 1146W        W 2011  12.166  28.313  17.558
 1147W        W 2012  14.292  26.304  17.356
 1148W        W 2013  13.503  28.963  15.324
 1149W        W 2014  13.742  27.582  16.691
 1150W        W 2015  11.992  25.998  17.358
 1151W        W 2016  12.461  27.067  18.115
 1152W        W 2017  11.964  28.246  15.309
 1153W        W 2018  13.719  27.744  15.573
 1154W        W 2019  11.487  26.370  17.297
 1155W        W 2020  12.816  28.432  15.761
 1156W        W 2021  14.566  26.992  15.942
 1157W        W 2022  12.788  25.625  17.661
 1158W        W 2023  13.568  28.330  16.740
 1159W        W 2024  13.871  28.674  16.448
 1160W        W 2025  13.090  28.476  14.876
 1161W        W 2026  11.100  28.368  17.718
 1162W        W 2027  11.843  26.360  16.956
 1163W        W 2028  11.813  25.708  16.066
 1164W        W 2029  13.434  26.550  16.758
 1165W        W 2030  12.232  27.721  14.958
 1166W        W 2031  14.230  27.663  16.457
 1167W        W 2032  11.557  28.421  17.880
 1168W        W 2033  13.944  29.103  15.677
 1169W        W 2034  12.043  26.123  16.122
 1170W        W 2035  11.812  27.616  16.212
 1171W        W 2036  12.125  29.027  16.962
 1172W        W 2037  14.192  29.123  17.994
 1173W        W 2038  13.351  27.311  16.927
 1174W        W 2039  11.200  27.109  14.842
 1175W        W 2040  14.334  28.767  15.539
 1176W        W 2041  14.171  26.091  15.158
 1177W        W 2042  12.310  25.610  17.561
 1178W        W 2043  14.016  28.412  16.019
 1179W        W 2044  14.045  26.968  15.924
 1180W        W 2045  12.162  26.641  16.140
 1181W        W 2046  13.518  28.056  17.327
 1182W        W 2047  12.147  28.976  16.055
 1183W        W 2048  11.464  28.935  17.689
 1184W        W 2049  11.576  28.296  14.819
 1185W        W 2050  14.093  28.054  15.629
 1186W        W 2051  11.697  26.846  17.515
 1187W        W 2052  14.470  26.776  14.996
 1188W        W 2053  12.215  27.833  15.467
 1189W        W 2054  13.314  27.215  17.548
 1190W        W 2055  13.205  26.843  17.092
 1191W        W 2056  11.765  27.215  17.121
 1192W        W 2057  13.975  29.103  16.950
 1193W        W 2058  13.766  25.737  17.944
 1194W        W 2059  11.430  25.887  17.531
 1195W        W 2060  11.769  26.910  16.584
 1196W        W 2061  12.138  26.724  14.706
 1197W        W 2062  10.941  28.483  17.251
 1198W        W 2063  12.526  27.192  16.694
 1199W        W 2064  12.349  26.217  14.799
 1200W        W 2065  11.484  27.033  15.580
 1201W        W 2066  11.255  28.885  17.017
 1202W        W 2067  14.050  27.111  15.125
 1203W        W 2068  14.145  26.027  17.811
 1204W        W 2069  13.581  28.236  15.774
 1205W        W 2070  11.179  27.160  17.951
 1206W        W 2071  14.145  25.624  15.247
 1207W        W 2072  13.665  28.099  15.258
 1208W        W 2073  12.567  27.157  15.343
 1209W        W 2074  13.754  25.961  14.866
 1210W        W 2075  13.819  26.568  17.052
 1211W        W 2076  11.528  27.161  16.259
 1212W        W 2077  11.822  28.100  15.908
 1213W        W 2078  13.585  26.720  15.873
 1214W        W 2079  12.608  26.099  16.569
 1215W        W 2080  14.570  28.010  17.080
 1216W        W 2081  14.488  25.997  16.641
 1217W        W 2082  11.027  28.827  16.017
 1218W        W 2083  11.536  28.014  15.553
 1219W        W 2084  11.451  25.631  18.106
 1220W        W 2085  12.570  28.484  18.208
 1221W        W 2086  14.325  27.452  15.998
 1222W        W 2087  13.679  27.629  14.878
 1223W        W 2088  12.974  29.150  17.090
 1224W        W 2089  13.831  27.872  18.127
 1225W        W 2090  12.646  25.582  15.407
 1226W        W 2091  13.359  26.451  16.266
 1227W        W 2092  11.045  28.038  16.598
 1228W        W 2093  12.298  26.000  15.239
 1229W        W 2094  12.102  27.484  18.088
 1230W        W 2095  13.096  26.465  15.802
 1231W        W 2096  13.301  27.875  16.924
 1232W        W 2097  11.455  28.480  17.359
 1233W        W 2098  12.046  28.463  18.082
 1234W        W 2099  11.897  26.260  15.096
 1235W        W 2100  13.414  26.402  15.421
 1236W        W 2101  13.372  28.510  17.658
 1237W        W 2102  12.057  27.102  16.257
 1238W        W 2103  11.712  28.800  17.122
 1239W        W 2104  14.457  28.917  14.723
 1240W        W 2105  11.320  27.589  17.719
 1241W        W 2106  13.315  27.851  16.407
 1242W        W 2107  11.751  27.500  15.649
 1243W        W 2108  12.122  28.507  17.044
 1244W        W 2109  12.500  25.926  16.085
 1245W        W 2110  11.111  27.910  15.015
 1246W        W 2111  12.630  26.861  14.885
 1247W        W 2112  11.276  27.410  15.904
 1248W        W 2113  12.566  26.052  17.368
 1249W        W 2114  14.238  25.761  14.795
 1250W        W 2115  14.331  27.507  17.894
 1251W        W 2116  12.985  28.764  18.046
 1252W        W 2117  14.543  27.858  17.568
 1253W        W 2118  13.951  28.656  18.179
 1254W        W 2119  11.690  29.112  16.657
 1255W        W 2120  14.549  27.734  15.531
 1256W        W 2121  13.079  27.001  16.044
 1257W        W 2122  12.846  25.613  15.934
 1258W        W 2123  11.905  28.597  15.771
 1259W        W 2124  12.404  26.338  16.996
 1260W        W 2125  12.104  25.707  16.465
 1261W        W 2126  11.167  28.529  15.013
 1262W        W 2127  12.983  27.893  15.731
 1263W        W 2128  11.858  28.688  17.610
 1264W        W 2129  11.335  27.511  15.306
 1265W        W 2130  11.220  26.054  16.305
 1266W        W 2131  12.768  28.019  16.362
 1267W        W 2132  11.020  25.873  15.382
 1268W        W 2133  13.684  27.079  17.309
 1269W        W 2134  13.561  26.465  14.881
 1270W        W 2135  14.078  28.137  16.529
 1271W        W 2136  12.739  28.621  16.360
 1272W        W 2137  12.151  28.725  15.271
 1273W        W 2138  13.433  25.628  14.701
 1274W        W 2139  11.233  28.888  16.442
 1275W        W 2140  13.430  26.646  18.077
 1276W        W 2141  11.413  26.176  18.076
 1277W        W 2142  11.144  26.776  15.409
 1278W        W 2143  11.835  26.765  15.134
 1279W        W 2144  13.598  27.092  17.951
 1280W        W 2145  11.941  27.373  16.660
 1281W        W 2146  13.415  25.659  15.780
 1282W        W 2147  12.546  29.090  16.283
 1283W        W 2148  13.760  28.552  17.220
 1284W        W 2149  13.344  28.701  16.331
 1285W        W 2150  13.363  27.681  15.925
 1286W        W 2151  12.825  25.906  14.996
 1287W        W 2152  14.506  25.534  15.718
 1288W        W 2153  12.194  27.169  14.881
 1289W        W 2154  14.360  26.506  15.871
 1290W        W 2155  13.052  27.676  14.748
 1291W        W 2156  13.988  27.876  17.496
 1292W        W 2157  13.642  28.577  14.963
 1293W        W 2158  12.257  26.252  17.869
 1294W        W 2159  14.169  28.331  17.387
 1295W        W 2160  13.269  26.281  17.764
 1296W        W 2161  11.113  26.752  17.541
 1297W        W 2162  12.873  27.229  17.267
 1298W        W 2163  11.230  27.987  15.924
 1299W        W 2164  11.377  27.284  16.814
 1300W        W 2165  13.694  27.570  17.164
 1301W        W 2166  13.466  28.950  17.975
 1302W        W 2167  13.362  26.689  17.528
 1303W        W 2168  13.639  28.743  15.933
 1304W        W 2169  12.641  28.463  17.256
 1305W        W 2170  12.126  28.818  16.525
 1306W        W 2171  13.931  27.989  16.944
 1307W        W 2172  12.981  28.061  18.081
 1308W        W 2173  11.586  28.014  16.420
 1309W        W 2174  13.932  27.773  16.065
 1310W        W 2175  13.573  28.839  16.816
 1311W        W 2176  11.551  28.568  16.686
 1312W        W 2177  12.572  26.620  17.896
 1313W        W 2178  13.023  28.786  15.407
 1314W        W 2179  12.331  28.041  18.045
 1315W        W 2180  12.457  28.279  15.422
 1316W        W 2181  11.678  27.019  14.681
 1317W        W 2182  11.017  29.105  21.580
 1318W        W 2183  11.393  27.998  21.103
 1319W        W 2184  14.098  27.728  18.873
 1320W        W 2185  14.228  28.813  20.900
 1321W        W 2186  12.146  28.804  18.426
 1322W        W 2187  12.229  26.956  19.409
 1323W        W 2188  11.744  26.804  19.573
 1324W        W 2189  12.735  27.619  19.007
 1325W        W 2190  12.410  28.711  21.362
 1326W        W 2191  11.059  26.272  21.325
 1327W        W 2192  11.821  25.552  21.127
 1328W        W 2193  13.515  25.940  20.014
 1329W        W 2194  13.164  26.811  18.584
 1330W        W 2195  13.734  26.245  21.675
 1331W        W 2196  11.100  26.037  20.800
 1332W        W 2197  11.199  28.656  21.821
 1333W        W 2198  12.721  28.046  18.553
 1334W        W 2199  11.153  26.829  20.246
 1335W        W 2200  12.046  26.720  21.483
 1336W        W 2201  14.505  26.579  19.982
 1337W        W 2202  14.269  27.622  20.841
 1338W        W 2203  12.577  26.955  19.868
 1339W        W 2204  13.123  28.294  20.237
 1340W        W 2205  11.623  27.728  20.469
 1341W        W 2206  10.982  27.256  20.040
 1342W        W 2207  12.018  27.228  21.232
 1343W        W 2208  14.289  27.011  21.486
 1344W        W 2209  11.905  28.455  19.931
 1345W        W 2210  13.026  28.144  21.065
 1346W        W 2211  12.246  26.784  20.290
 1347W        W 2212  12.538  27.568  19.933
 1348W        W 2213  13.535  28.341  21.781
 1349W        W 2214  12.614  27.661  21.791
 1350W        W 2215  12.595  27.377  21.269
 1351W        W 2216  11.004  26.768  21.791
 1352W        W 2217  13.836  28.303  21.390
 1353W        W 2218  11.417  25.885  19.388
 1354W        W 2219  11.944  28.143  20.387
 1355W        W 2220  14.407  27.926  19.677
 1356W        W 2221  13.820  26.326  20.244
 1357W        W 2222  14.105  26.279  18.339
 1358W        W 2223  14.570  27.080  20.645
 1359W        W 2224  12.537  28.787  20.398
 1360W        W 2225  14.311  28.253  18.836
 1361W        W 2226  11.440  29.039  18.590
 1362W        W 2227  11.833  29.085  19.266
 1363W        W 2228  11.630  25.839  20.692
 1364W        W 2229  14.253  26.857  20.967
 1365W        W 2230  13.658  27.279  19.426
 1366W        W 2231  13.624  26.967  18.453
 1367W        W 2232  12.832  28.111  20.593
 1368W        W 2233  12.638  26.441  19.792
 1369W        W 2234  13.238  28.528  20.786
 1370W        W 2235  14.109  27.319  19.208
 1371W        W 2236  13.011  25.977  19.224
 1372W        W 2237  11.668  28.671  18.907
 1373W        W 2238  11.039  26.170  19.506
 1374W        W 2239  13.825  26.777  19.980
 1375W        W 2240  11.283  28.394  19.895
 1376W        W 2241  12.624  28.744  18.765
 1377W        W 2242  14.016  26.770  18.229
 1378W        W 2243  11.039  28.528  20.393
 1379W        W 2244  11.830  28.100  20.873
 1380W        W 2245  12.203  27.460  19.492
 1381W        W 2246  12.225  25.865  20.585
 1382W        W 2247  14.454  25.627  19.882
 1383W        W 2248  11.673  27.499  18.350
 1384W        W 2249  11.328  26.532  18.529
 1385W        W 2250  11.390  28.488  19.323
 1386W        W 2251  12.521  27.971  19.571
 1387W        W 2252  13.853  28.830  21.285
 1388W        W 2253  12.779  26.472  18.969
 1389W        W 2254  14.162  28.870  19.741
 1390W        W 2255  13.839  26.723  21.339
 1391W        W 2256  14.552  28.379  19.473
 1392W        W 2257  13.179  27.671  20.957
 1393W        W 2258  10.945  27.222  19.163
 1394W        W 2259  12.056  27.637  20.736
 1395W        W 2260  13.260  26.901  19.114
 1396W        W 2261  13.137  27.391  19.218
 1397W        W 2262  11.480  26.811  20.692
 1398W        W 2263  11.465  26.687  21.614
 1399W        W 2264  11.355  25.604  19.773
 1400W        W 2265  13.123  25.951  20.334
 1401W        W 2266  12.771  26.136  21.497
 1402W        W 2267  13.126  26.285  18.675
 1403W        W 2268  14.309  28.678  21.429
 1404W        W 2269  13.276  25.759  21.468
 1405W        W 2270  14.295  28.060  21.590
 1406W        W 2271  13.725  26.227  21.186
 1407W        W 2272  13.525  26.165  19.456
 1408W        W 2273  13.918  27.299  21.860
 1409W        W 2274  11.658  28.875  19.846
 1410W        W 2275  12.316  26.592  18.832
 1411W        W 2276  11.885  25.876  21.496
 1412W        W 2277  13.937  26.360  19.177
 1413W        W 2278  14.304  26.842  19.122
 1414W        W 2279  12.047  29.059  21.593
 1415W        W 2280  11.973  25.595  18.828
 1416W        W 2281  14.294  26.129  19.863
 1417W        W 2282  14.444  28.378  18.308
 1418W        W 2283  11.351  27.581  20.010
 1419W        W 2284  13.268  26.168  18.240
 1420W        W 2285  14.402  28.500  19.960
 1421W        W 2286  14.441  25.694  20.710
 1422W        W 2287  12.886  26.906  21.264
 1423W        W 2288  12.979  28.245  18.967
 1424W        W 2289  13.379  27.539  21.707
 1425W        W 2290  13.053  25.516  20.016
 1426W        W 2291  11.665  26.419  20.079
 1427W        W 2292  11.219  27.619  20.853
 1428W        W 2293  13.078  28.812  19.559
 1429W        W 2294  14.272  26.409  20.431
 1430W        W 2295  12.909  28.756  21.198
 1431W        W 2296  14.252  27.815  18.403
 1432W        W 2297  12.687  27.298  19.464
 1433W        W 2298  14.539  25.809  21.205
 1434W        W 2299  12.688  27.644  20.799
 1435W        W 2300  12.905  26.530  20.244
 1436W        W 2301  13.757  26.828  19.082
 1437W        W 2302  14.044  26.561  18.724
 1438W        W 2303  13.853  28.601  19.113
 1439W        W 2304  13.687  28.204  19.909
 1440W        W 2305  13.583  27.283  18.887
 1441W        W 2306  13.016  27.493  19.873
 1442W        W 2307  13.897  27.281  19.940
 1443W        W 2308  11.272  26.296  20.364
 1444W        W 2309  14.050  27.348  21.191
 1445W        W 2310  14.401  28.966  20.337
 1446W        W 2311  12.331  28.410  19.739
 1447W        W 2312  13.338  28.943  21.063
 1448W        W 2313  13.332  26.273  20.827
 1449W        W 2314  12.539  28.981  20.888
 1450W        W 2315  14.236  25.935  19.354
 1451W        W 2316  14.027  27.254  20.655
 1452W        W 2317  11.010  26.575  20.693
 1453W        W 2318  13.870  26.370  19.711
 1454W        W 2319  14.281  26.521  21.488
 1455W        W 2320  13.166  28.220  19.706
 1456W        W 2321  12.422  28.811  19.319
 1457W        W 2322  11.537  25.991  18.577
 1458W        W 2323  12.641  25.645  20.387
 1459W        W 2324  11.669  28.765  18.235
 1460W        W 2325  12.043  27.231  18.986
 1461W        W 2326  12.697  27.860  21.299
 1462W        W 2327  12.527  26.218  19.289
 1463W        W 2328  13.883  25.815  19.717
 1464W        W 2329  13.603  29.097  20.045
 1465W        W 2330  13.015  28.745  20.385
 1466W        W 2331  12.411  27.782  20.346
 1467W        W 2332  14.181  28.505  20.472
 1468W        W 2333  11.875  26.008  19.241
 1469W        W 2334  12.397  28.305  20.201
 1470W        W 2335  11.880  26.236  18.266
 1471W        W 2336  12.681  26.845  20.660
 1472W        W 2337  13.529  25.711  20.530
 1473W        W 2338  10.949  27.554  20.415
 1474W        W 2339  12.653  27.372  18.573
 1475W        W 2340  11.921  25.687  18.343
 1476W        W 2341  12.659  26.768  19.394
 1477W        W 2342  13.629  25.744  21.093
 1478W        W 2343  12.217  27.756  21.202
 1479W        W 2344  13.021  27.538  21.419
 1480W        W 2345  13.638  27.568  21.312
 1481W        W 2346  12.922  25.708  21.817
 1482W        W 2347  12.144  26.324  20.210
 1483W        W 2348  11.570  26.280  19.608
 1484W        W 2349  11.356  28.992  19.284
 1485W        W 2350  12.688  28.322  21.409
 1486W        W 2351  11.723  27.807  18.768
 1487W        W 2352  13.403  27.192  19.989
 1488W        W 2353  13.683  26.991  20.388
 1489W        W 2354  12.888  27.665  20.322
 1490W        W 2355  13.358  28.039  18.454
 1491W        W 2356  13.030  26.060  19.782
 1492W        W 2357  14.509  26.338  19.050
 1493W        W 2358  11.003  28.927  21.081
 1494W        W 2359  11.420  28.153  20.613
 1495W        W 2360  10.987  28.999  18.845
 1496W        W 2361  12.886  26.269  20.651
 1497W        W 2362  12.249  28.292  18.500
 1498W        W 2363  14.154  28.674  18.686
 1499W        W 2364  13.129  27.327  18.700
 1500W        W 2365  11.972  26.518  19.217
 1501W        W 2366  12.804  26.428  18.269
 1502W        W 2367  13.388  27.993  21.447
 1503W        W 2368  13.741  25.899  19.064
 1504W        W 2369  11.071  25.747  18.512
 1505W        W 2370  12.357  28.066  20.802
 1506W        W 2371  12.156  27.982  19.894
 1507W        W 2372  11.898  27.934  18.292
 1508W        W 2373  11.139  28.175  19.060
 1509W        W 2374  11.643  27.245  21.502
 1510W        W 2375  12.347  25.805  21.688
 1511W        W 2376  13.056  25.947  21.044
 1512W        W 2377  12.251  25.715  19.325
 1513W        W 2378  13.310  25.792  18.830
 1514W        W 2379  11.255  25.724  20.407
 1515W        W 2380  11.303  26.687  19.777
 1516W        W 2381  13.992  25.795  20.183
 1517W        W 2382  11.414  26.293  18.997
 1518W        W 2383  13.985  25.981  20.613
 1519W        W 2384  14.381  27.184  18.298
 1520W        W 2385  11.673  25.942  20.117
 1521W        W 2386  12.787  26.514  21.057
 1522W        W 2387  10.935  26.204  18.535
 1523W        W 2388  11.721  27.593  21.096
 1524W        W 2389  13.079  26.991  20.275
 1525W        W 2390  12.946  29.070  18.571
 1526W        W 2391  11.092  27.577  18.268
 1527W        W 2392  11.827  27.988  21.394
 1528W        W 2393  11.348  27.155  21.025
 1529W        W 2394  12.339  27.260  20.819
 1530W        W 2395  14.107  25.619  21.081
 1531W        W 2396  14.505  27.229  21.072
 1532W        W 2397  14.493  27.429  18.758
 1533W        W 2398  13.356  27.761  18.857
 1534W        W 2399  13.830  29.061  18.552
 1535W        W 2400  13.007  27.051  21.694
 1536W        W 2401  11.337  28.018  21.734
 1537W        W 2402  14.543  25.940  21.686
 1538W        W 2403  14.261  26.868  20.307
 1539W        W 2404  12.569  28.998  21.784
 1540W        W 2405  12.424  25.627  18.511
 1541W        W 2406  13.963  28.226  18.454
 1542W        W 2407  11.732  26.319  21.340
 1543W        W 2408  12.166  28.313  21.202
 1544W        W 2409  14.292  26.304  21.000
 1545W        W 2410  13.503  28.963  18.968
 1546W        W 2411  13.742  27.582  20.335
 1547W        W 2412  11.992  25.998  21.002
 1548W        W 2413  12.461  27.067  21.759
 1549W        W 2414  11.964  28.246  18.953
 1550W        W 2415  13.719  27.744  19.217
 1551W        W 2416  11.487  26.370  20.941
 1552W        W 2417  12.816  28.432  19.405
 1553W        W 2418  14.566  26.992  19.586
 1554W        W 2419  12.788  25.625  21.305
 1555W        W 2420  13.568  28.330  20.384
 1556W        W 2421  13.871  28.674  20.092
 1557W        W 2422  13.090  28.476  18.520
 1558W        W 2423  11.100  28.368  21.362
 1559W        W 2424  11.843  26.360  20.600
 1560W        W 2425  11.813  25.708  19.710
 1561W        W 2426  13.434  26.550  20.402
 1562W        W 2427  12.232  27.721  18.602
 1563W        W 2428  14.230  27.663  20.101
 1564W        W 2429  11.557  28.421  21.524
 1565W        W 2430  13.944  29.103  19.321
 1566W        W 2431  12.043  26.123  19.766
 1567W        W 2432  11.812  27.616  19.856
 1568W        W 2433  12.125  29.027  20.606
 1569W        W 2434  14.192  29.123  21.638
 1570W        W 2435  13.351  27.311  20.571
 1571W        W 2436  11.200  27.109  18.486
 1572W        W 2437  14.334  28.767  19.183
 1573W        W 2438  14.171  26.091  18.802
 1574W        W 2439  12.310  25.610  21.205
 1575W        W 2440  14.016  28.412  19.663
 1576W        W 2441  14.045  26.968  19.568
 1577W        W 2442  12.162  26.641  19.784
 1578W        W 2443  12.407  26.903  21.108
 1579W        W 2444  13.518  28.056  20.971
 1580W        W 2445  12.168  26.510  21.083
 1581W        W 2446  12.147  28.976  19.699
 1582W        W 2447  11.464  28.935  21.333
 1583W        W 2448  11.576  28.296  18.463
 1584W        W 2449  14.093  28.054  19.273
 1585W        W 2450  11.697  26.846  21.159
 1586W        W 2451  14.470  26.776  18.640
 1587W        W 2452  12.215  27.833  19.111
 1588W        W 2453  13.314  27.215  21.192
 1589W        W 2454  13.205  26.843  20.736
 1590W        W 2455  11.765  27.215  20.765
 1591W        W 2456  13.975  29.103  20.594
 1592W        W 2457  13.766  25.737  21.588
 1593W        W 2458  11.430  25.887  21.175
 1594W        W 2459  11.769  26.910  20.228
 1595W        W 2460  12.138  26.724  18.350
 1596W        W 2461  10.941  28.483  20.895
 1597W        W 2462  12.526  27.192  20.338
 1598W        W 2463  12.349  26.217  18.443
 1599W        W 2464  11.484  27.033  19.224
 1600W        W 2465  11.255  28.885  20.661
 1601W        W 2466  14.050  27.111  18.769
 1602W        W 2467  14.145  26.027  21.455
 1603W        W 2468  13.581  28.236  19.418
 1604W        W 2469  11.179  27.160  21.595
 1605W        W 2470  14.145  25.624  18.891
 1606W        W 2471  13.665  28.099  18.902
 1607W        W 2472  12.567  27.157  18.987
 1608W        W 2473  13.754  25.961  18.510
 1609W        W 2474  13.819  26.568  20.696
 1610W        W 2475  11.528  27.161  19.903
 1611W        W 2476  11.822  28.100  19.552
 1612W        W 2477  13.585  26.720  19.517
 1613W        W 2478  12.608  26.099  20.213
 1614W        W 2479  14.570  28.010  20.724
 1615W        W 2480  14.488  25.997  20.285
 1616W        W 2481  11.027  28.827  19.661
 1617W        W 2482  11.536  28.014  19.197
 1618W        W 2483  11.451  25.631  21.750
 1619W        W 2484  12.570  28.484  21.852
 1620W        W 2485  14.325  27.452  19.642
 1621W        W 2486  13.679  27.629  18.522
 1622W        W 2487  12.974  29.150  20.734
 1623W        W 2488  13.831  27.872  21.771
 1624W        W 2489  12.646  25.582  19.051
 1625W        W 2490  13.359  26.451  19.910
 1626W        W 2491  11.045  28.038  20.242
 1627W        W 2492  12.298  26.000  18.883
 1628W        W 2493  12.102  27.484  21.732
 1629W        W 2494  13.096  26.465  19.446
 1630W        W 2495  13.301  27.875  20.568
 1631W        W 2496  11.455  28.480  21.003
 1632W        W 2497  12.046  28.463  21.726
 1633W        W 2498  11.897  26.260  18.740
 1634W        W 2499  13.414  26.402  19.065
 1635W        W 2500  13.372  28.510  21.302
 1636W        W 2501  12.057  27.102  19.901
 1637W        W 2502  11.712  28.800  20.766
 1638W        W 2503  14.457  28.917  18.367
 1639W        W 2504  11.320  27.589  21.363
 1640W        W 2505  13.315  27.851  20.051
 1641W        W 2506  11.751  27.500  19.293
 1642W        W 2507  12.122  28.507  20.688
 1643W        W 2508  12.500  25.926  19.729
 1644W        W 2509  11.111  27.910  18.659
 1645W        W 2510  12.630  26.861  18.529
 1646W        W 2511  11.276  27.410  19.548
 1647W        W 2512  12.566  26.052  21.012
 1648W        W 2513  14.238  25.761  18.439
 1649W        W 2514  14.331  27.507  21.538
 1650W        W 2515  12.985  28.764  21.690
 1651W        W 2516  14.543  27.858  21.212
 1652W        W 2517  13.951  28.656  21.823
 1653W        W 2518  11.690  29.112  20.301
 1654W        W 2519  14.549  27.734  19.175
 1655W        W 2520  13.079  27.001  19.688
 1656W        W 2521  12.846  25.613  19.578
 1657W        W 2522  11.905  28.597  19.415
 1658W        W 2523  12.404  26.338  20.640
 1659W        W 2524  12.104  25.707  20.109
 1660W        W 2525  11.167  28.529  18.657
 1661W        W 2526  12.983  27.893  19.375
 1662W        W 2527  11.858  28.688  21.254
 1663W        W 2528  11.335  27.511  18.950
 1664W        W 2529  11.220  26.054  19.949
 1665W        W 2530  12.768  28.019  20.006
 1666W        W 2531  11.020  25.873  19.026
 1667W        W 2532  13.684  27.079  20.953
 1668W        W 2533  13.561  26.465  18.525
 1669W        W 2534  14.078  28.137  20.173
 1670W        W 2535  12.739  28.621  20.004
 1671W        W 2536  12.151  28.725  18.915
 1672W        W 2537  13.433  25.628  18.345
 1673W        W 2538  11.233  28.888  20.086
 1674W        W 2539  13.430  26.646  21.721
 1675W        W 2540  11.413  26.176  21.720
 1676W        W 2541  11.144  26.776  19.053
 1677W        W 2542  11.835  26.765  18.778
 1678W        W 2543  13.598  27.092  21.595
 1679W        W 2544  11.941  27.373  20.304
 1680W        W 2545  13.415  25.659  19.424
 1681W        W 2546  12.546  29.090  19.927
 1682W        W 2547  13.760  28.552  20.864
 1683W        W 2548  13.344  28.701  19.975
 1684W        W 2549  13.363  27.681  19.569
 1685W        W 2550  12.825  25.906  18.640
 1686W        W 2551  14.506  25.534  19.362
 1687W        W 2552  12.194  27.169  18.525
 1688W        W 2553  14.360  26.506  19.515
 1689W        W 2554  13.052  27.676  18.392
 1690W        W 2555  13.988  27.876  21.140
 1691W        W 2556  13.642  28.577  18.607
 1692W        W 2557  12.257  26.252  21.513
 1693W        W 2558  12.077  26.836  20.754
 1694W        W 2559  14.169  28.331  21.031
 1695W        W 2560  13.269  26.281  21.408
 1696W        W 2561  11.113  26.752  21.185
 1697W        W 2562  12.873  27.229  20.911
 1698W        W 2563  11.230  27.987  19.568
 1699W        W 2564  11.377  27.284  20.458
 1700W        W 2565  13.694  27.570  20.808
 1701W        W 2566  13.466  28.950  21.619
 1702W        W 2567  13.362  26.689  21.172
 1703W        W 2568  13.639  28.743  19.577
 1704W        W 2569  12.641  28.463  20.900
 1705W        W 2570  12.126  28.818  20.169
 1706W        W 2571  13.931  27.989  20.588
 1707W        W 2572  12.981  28.061  21.725
 1708W        W 2573  11.586  28.014  20.064
 1709W        W 2574  13.932  27.773  19.709
 1710W        W 2575  13.573  28.839  20.460
 1711W        W 2576  11.551  28.568  20.330
 1712W        W 2577  12.572  26.620  21.540
 1713W        W 2578  13.023  28.786  19.051
 1714W        W 2579  12.331  28.041  21.689
 1715W        W 2580  12.457  28.279  19.066
 1716W        W 2581  11.678  27.019  18.325
 1717W        W 2582  11.017  29.105  25.225
 1718W        W 2583  11.393  27.998  24.748
 1719W        W 2584  14.098  27.728  22.518
 1720W        W 2585  14.228  28.813  24.545
 1721W        W 2586  12.146  28.804  22.071
 1722W        W 2587  12.229  26.956  23.054
 1723W        W 2588  11.744  26.804  23.218
 1724W        W 2589  12.735  27.619  22.652
 1725W        W 2590  12.410  28.711  25.007
 1726W        W 2591  11.059  26.272  24.970
 1727W        W 2592  11.821  25.552  24.772
 1728W        W 2593  13.515  25.940  23.659
 1729W        W 2594  13.164  26.811  22.229
 1730W        W 2595  13.734  26.245  25.320
 1731W        W 2596  11.100  26.037  24.445
 1732W        W 2597  11.199  28.656  25.466
 1733W        W 2598  12.721  28.046  22.198
 1734W        W 2599  11.153  26.829  23.891
 1735W        W 2600  12.046  26.720  25.128
 1736W        W 2601  14.505  26.579  23.627
 1737W        W 2602  14.269  27.622  24.486
 1738W        W 2603  12.577  26.955  23.513
 1739W        W 2604  13.123  28.294  23.882
 1740W        W 2605  11.623  27.728  24.114
 1741W        W 2606  10.982  27.256  23.685
 1742W        W 2607  12.018  27.228  24.877
 1743W        W 2608  14.289  27.011  25.131
 1744W        W 2609  11.905  28.455  23.576
 1745W        W 2610  13.026  28.144  24.710
 1746W        W 2611  12.246  26.784  23.935
 1747W        W 2612  12.538  27.568  23.578
 1748W        W 2613  13.535  28.341  25.426
 1749W        W 2614  12.614  27.661  25.436
 1750W        W 2615  12.595  27.377  24.914
 1751W        W 2616  11.004  26.768  25.436
 1752W        W 2617  13.836  28.303  25.035
 1753W        W 2618  11.417  25.885  23.033
 1754W        W 2619  11.944  28.143  24.032
 1755W        W 2620  14.407  27.926  23.322
 1756W        W 2621  13.820  26.326  23.889
 1757W        W 2622  14.105  26.279  21.984
 1758W        W 2623  14.570  27.080  24.290
 1759W        W 2624  12.537  28.787  24.043
 1760W        W 2625  14.311  28.253  22.481
 1761W        W 2626  11.440  29.039  22.235
 1762W        W 2627  11.833  29.085  22.911
 1763W        W 2628  11.630  25.839  24.337
 1764W        W 2629  14.253  26.857  24.612
 1765W        W 2630  13.658  27.279  23.071
 1766W        W 2631  13.624  26.967  22.098
 1767W        W 2632  12.832  28.111  24.238
 1768W        W 2633  12.638  26.441  23.437
 1769W        W 2634  13.238  28.528  24.431
 1770W        W 2635  14.109  27.319  22.853
 1771W        W 2636  13.011  25.977  22.869
 1772W        W 2637  11.668  28.671  22.552
 1773W        W 2638  11.039  26.170  23.151
 1774W        W 2639  13.825  26.777  23.625
 1775W        W 2640  11.283  28.394  23.540
 1776W        W 2641  12.624  28.744  22.410
 1777W        W 2642  14.016  26.770  21.874
 1778W        W 2643  11.039  28.528  24.038
 1779W        W 2644  11.830  28.100  24.518
 1780W        W 2645  12.203  27.460  23.137
 1781W        W 2646  12.225  25.865  24.230
 1782W        W 2647  14.454  25.627  23.527
 1783W        W 2648  11.673  27.499  21.995
 1784W        W 2649  11.328  26.532  22.174
 1785W        W 2650  11.390  28.488  22.968
 1786W        W 2651  12.521  27.971  23.216
 1787W        W 2652  13.853  28.830  24.930
 1788W        W 2653  12.779  26.472  22.614
 1789W        W 2654  14.162  28.870  23.386
 1790W        W 2655  13.839  26.723  24.984
 1791W        W 2656  14.552  28.379  23.118
 1792W        W 2657  13.179  27.671  24.602
 1793W        W 2658  10.945  27.222  22.808
 1794W        W 2659  12.056  27.637  24.381
 1795W        W 2660  13.260  26.901  22.759
 1796W        W 2661  13.137  27.391  22.863
 1797W        W 2662  11.480  26.811  24.337
 1798W        W 2663  11.465  26.687  25.259
 1799W        W 2664  11.355  25.604  23.418
 1800W        W 2665  13.123  25.951  23.979
 1801W        W 2666  12.771  26.136  25.142
 1802W        W 2667  13.126  26.285  22.320
 1803W        W 2668  14.309  28.678  25.074
 1804W        W 2669  13.276  25.759  25.113
 1805W        W 2670  14.295  28.060  25.235
 1806W        W 2671  13.725  26.227  24.831
 1807W        W 2672  13.525  26.165  23.101
 1808W        W 2673  13.918  27.299  25.505
 1809W        W 2674  11.658  28.875  23.491
 1810W        W 2675  12.316  26.592  22.477
 1811W        W 2676  11.885  25.876  25.141
 1812W        W 2677  13.937  26.360  22.822
 1813W        W 2678  14.304  26.842  22.767
 1814W        W 2679  12.047  29.059  25.238
 1815W        W 2680  11.973  25.595  22.473
 1816W        W 2681  14.294  26.129  23.508
 1817W        W 2682  14.444  28.378  21.953
 1818W        W 2683  11.351  27.581  23.655
 1819W        W 2684  13.268  26.168  21.885
 1820W        W 2685  14.402  28.500  23.605
 1821W        W 2686  14.441  25.694  24.355
 1822W        W 2687  12.886  26.906  24.909
 1823W        W 2688  12.979  28.245  22.612
 1824W        W 2689  13.379  27.539  25.352
 1825W        W 2690  13.053  25.516  23.661
 1826W        W 2691  11.665  26.419  23.724
 1827W        W 2692  11.219  27.619  24.498
 1828W        W 2693  13.078  28.812  23.204
 1829W        W 2694  14.272  26.409  24.076
 1830W        W 2695  12.909  28.756  24.843
 1831W        W 2696  14.252  27.815  22.048
 1832W        W 2697  12.687  27.298  23.109
 1833W        W 2698  14.539  25.809  24.850
 1834W        W 2699  12.688  27.644  24.444
 1835W        W 2700  12.905  26.530  23.889
 1836W        W 2701  13.757  26.828  22.727
 1837W        W 2702  14.044  26.561  22.369
 1838W        W 2703  13.853  28.601  22.758
 1839W        W 2704  13.687  28.204  23.554
 1840W        W 2705  13.583  27.283  22.532
 1841W        W 2706  13.016  27.493  23.518
 1842W        W 2707  13.897  27.281  23.585
 1843W        W 2708  14.050  27.348  24.836
 1844W        W 2709  14.401  28.966  23.982
 1845W        W 2710  12.331  28.410  23.384
 1846W        W 2711  13.338  28.943  24.708
 1847W        W 2712  13.332  26.273  24.472
 1848W        W 2713  12.539  28.981  24.533
 1849W        W 2714  14.236  25.935  22.999
 1850W        W 2715  14.027  27.254  24.300
 1851W        W 2716  11.010  26.575  24.338
 1852W        W 2717  13.870  26.370  23.356
 1853W        W 2718  14.281  26.521  25.133
 1854W        W 2719  13.166  28.220  23.351
 1855W        W 2720  12.422  28.811  22.964
 1856W        W 2721  11.537  25.991  22.222
 1857W        W 2722  12.641  25.645  24.032
 1858W        W 2723  11.669  28.765  21.880
 1859W        W 2724  12.043  27.231  22.631
 1860W        W 2725  12.697  27.860  24.944
 1861W        W 2726  12.527  26.218  22.934
 1862W        W 2727  13.883  25.815  23.362
 1863W        W 2728  13.603  29.097  23.690
 1864W        W 2729  13.015  28.745  24.030
 1865W        W 2730  12.411  27.782  23.991
 1866W        W 2731  14.181  28.505  24.117
 1867W        W 2732  11.875  26.008  22.886
 1868W        W 2733  12.397  28.305  23.846
 1869W        W 2734  11.880  26.236  21.911
 1870W        W 2735  12.681  26.845  24.305
 1871W        W 2736  13.529  25.711  24.175
 1872W        W 2737  10.949  27.554  24.060
 1873W        W 2738  12.653  27.372  22.218
 1874W        W 2739  11.921  25.687  21.988
 1875W        W 2740  12.659  26.768  23.039
 1876W        W 2741  13.629  25.744  24.738
 1877W        W 2742  12.217  27.756  24.847
 1878W        W 2743  13.021  27.538  25.064
 1879W        W 2744  13.638  27.568  24.957
 1880W        W 2745  12.922  25.708  25.462
 1881W        W 2746  12.144  26.324  23.855
 1882W        W 2747  11.570  26.280  23.253
 1883W        W 2748  11.356  28.992  22.929
 1884W        W 2749  12.688  28.322  25.054
 1885W        W 2750  11.723  27.807  22.413
 1886W        W 2751  13.403  27.192  23.634
 1887W        W 2752  13.683  26.991  24.033
 1888W        W 2753  12.888  27.665  23.967
 1889W        W 2754  13.358  28.039  22.099
 1890W        W 2755  13.030  26.060  23.427
 1891W        W 2756  14.509  26.338  22.695
 1892W        W 2757  11.003  28.927  24.726
 1893W        W 2758  11.420  28.153  24.258
 1894W        W 2759  10.987  28.999  22.490
 1895W        W 2760  12.886  26.269  24.296
 1896W        W 2761  12.249  28.292  22.145
 1897W        W 2762  14.154  28.674  22.331
 1898W        W 2763  13.129  27.327  22.345
 1899W        W 2764  11.972  26.518  22.862
 1900W        W 2765  12.804  26.428  21.914
 1901W        W 2766  13.388  27.993  25.092
 1902W        W 2767  13.741  25.899  22.709
 1903W        W 2768  11.071  25.747  22.157
 1904W        W 2769  12.357  28.066  24.447
 1905W        W 2770  12.156  27.982  23.539
 1906W        W 2771  11.898  27.934  21.937
 1907W        W 2772  11.139  28.175  22.705
 1908W        W 2773  11.643  27.245  25.147
 1909W        W 2774  12.347  25.805  25.333
 1910W        W 2775  13.056  25.947  24.689
 1911W        W 2776  12.251  25.715  22.970
 1912W        W 2777  13.310  25.792  22.475
 1913W        W 2778  11.255  25.724  24.052
 1914W        W 2779  11.303  26.687  23.422
 1915W        W 2780  13.992  25.795  23.828
 1916W        W 2781  11.414  26.293  22.642
 1917W        W 2782  13.985  25.981  24.258
 1918W        W 2783  14.381  27.184  21.943
 1919W        W 2784  11.673  25.942  23.762
 1920W        W 2785  12.787  26.514  24.702
 1921W        W 2786  10.935  26.204  22.180
 1922W        W 2787  11.721  27.593  24.741
 1923W        W 2788  13.079  26.991  23.920
 1924W        W 2789  12.946  29.070  22.216
 1925W        W 2790  11.092  27.577  21.913
 1926W        W 2791  11.827  27.988  25.039
 1927W        W 2792  11.348  27.155  24.670
 1928W        W 2793  12.339  27.260  24.464
 1929W        W 2794  14.107  25.619  24.726
 1930W        W 2795  14.505  27.229  24.717
 1931W        W 2796  14.493  27.429  22.403
 1932W        W 2797  13.356  27.761  22.502
 1933W        W 2798  13.830  29.061  22.197
 1934W        W 2799  13.007  27.051  25.339
 1935W        W 2800  11.337  28.018  25.379
 1936W        W 2801  14.543  25.940  25.331
 1937W        W 2802  14.261  26.868  23.952
 1938W        W 2803  12.569  28.998  25.429
 1939W        W 2804  12.424  25.627  22.156
 1940W        W 2805  13.963  28.226  22.099
 1941W        W 2806  11.732  26.319  24.985
 1942W        W 2807  12.166  28.313  24.847
 1943W        W 2808  14.292  26.304  24.645
 1944W        W 2809  13.503  28.963  22.613
 1945W        W 2810  13.742  27.582  23.980
 1946W        W 2811  11.992  25.998  24.647
 1947W        W 2812  12.461  27.067  25.404
 1948W        W 2813  11.964  28.246  22.598
 1949W        W 2814  13.719  27.744  22.862
 1950W        W 2815  11.487  26.370  24.586
 1951W        W 2816  12.816  28.432  23.050
 1952W        W 2817  14.566  26.992  23.231
 1953W        W 2818  12.788  25.625  24.950
 1954W        W 2819  13.568  28.330  24.029
 1955W        W 2820  13.871  28.674  23.737
 1956W        W 2821  13.090  28.476  22.165
 1957W        W 2822  11.100  28.368  25.007
 1958W        W 2823  11.843  26.360  24.245
 1959W        W 2824  11.813  25.708  23.355
 1960W        W 2825  13.434  26.550  24.047
 1961W        W 2826  12.232  27.721  22.247
 1962W        W 2827  14.230  27.663  23.746
 1963W        W 2828  11.557  28.421  25.169
 1964W        W 2829  13.944  29.103  22.966
 1965W        W 2830  12.043  26.123  23.411
 1966W        W 2831  11.812  27.616  23.501
 1967W        W 2832  12.125  29.027  24.251
 1968W        W 2833  14.192  29.123  25.283
 1969W        W 2834  13.351  27.311  24.216
 1970W        W 2835  11.200  27.109  22.131
 1971W        W 2836  14.334  28.767  22.828
 1972W        W 2837  14.171  26.091  22.447
 1973W        W 2838  12.310  25.610  24.850
 1974W        W 2839  14.016  28.412  23.308
 1975W        W 2840  14.045  26.968  23.213
 1976W        W 2841  12.162  26.641  23.429
 1977W        W 2842  12.407  26.903  24.753
 1978W        W 2843  13.518  28.056  24.616
 1979W        W 2844  12.168  26.510  24.728
 1980W        W 2845  12.147  28.976  23.344
 1981W        W 2846  11.464  28.935  24.978
 1982W        W 2847  11.576  28.296  22.108
 1983W        W 2848  14.093  28.054  22.918
 1984W        W 2849  11.697  26.846  24.804
 1985W        W 2850  14.470  26.776  22.285
 1986W        W 2851  12.215  27.833  22.756
 1987W        W 2852  13.314  27.215  24.837
 1988W        W 2853  13.205  26.843  24.381
 1989W        W 2854  11.765  27.215  24.410
 1990W        W 2855  13.975  29.103  24.239
 1991W        W 2856  13.766  25.737  25.233
 1992W        W 2857  11.430  25.887  24.820
 1993W        W 2858  11.769  26.910  23.873
 1994W        W 2859  12.138  26.724  21.995
 1995W        W 2860  10.941  28.483  24.540
 1996W        W 2861  12.526  27.192  23.983
 1997W        W 2862  12.349  26.217  22.088
 1998W        W 2863  11.484  27.033  22.869
 1999W        W 2864  11.255  28.885  24.306
 2000W        W 2865  14.050  27.111  22.414
 2001W        W 2866  14.145  26.027  25.100
 2002W        W 2867  13.581  28.236  23.063
 2003W        W 2868  11.179  27.160  25.240
 2004W        W 2869  14.145  25.624  22.536
 2005W        W 2870  13.665  28.099  22.547
 2006W        W 2871  12.567  27.157  22.632
 2007W        W 2872  13.754  25.961  22.155
 2008W        W 2873  13.819  26.568  24.341
 2009W        W 2874  11.528  27.161  23.548
 2010W        W 2875  11.822  28.100  23.197
 2011W        W 2876  13.585  26.720  23.162
 2012W        W 2877  12.608  26.099  23.858
 2013W        W 2878  14.570  28.010  24.369
 2014W        W 2879  14.488  25.997  23.930
 2015W        W 2880  11.027  28.827  23.306
 2016W        W 2881  11.536  28.014  22.842
 2017W        W 2882  11.451  25.631  25.395
 2018W        W 2883  12.570  28.484  25.497
 2019W        W 2884  14.325  27.452  23.287
 2020W        W 2885  13.679  27.629  22.167
 2021W        W 2886  12.974  29.150  24.379
 2022W        W 2887  13.831  27.872  25.416
 2023W        W 2888  12.646  25.582  22.696
 2024W        W 2889  13.359  26.451  23.555
 2025W        W 2890  11.045  28.038  23.887
 2026W        W 2891  12.298  26.000  22.528
 2027W        W 2892  12.102  27.484  25.377
 2028W        W 2893  13.096  26.465  23.091
 2029W        W 2894  13.301  27.875  24.213
 2030W        W 2895  11.455  28.480  24.648
 2031W        W 2896  12.046  28.463  25.371
 2032W        W 2897  11.897  26.260  22.385
 2033W        W 2898  13.414  26.402  22.710
 2034W        W 2899  13.372  28.510  24.947
 2035W        W 2900  12.057  27.102  23.546
 2036W        W 2901  11.712  28.800  24.411
 2037W        W 2902  14.457  28.917  22.012
 2038W        W 2903  11.320  27.589  25.008
 2039W        W 2904  13.315  27.851  23.696
 2040W        W 2905  11.751  27.500  22.938
 2041W        W 2906  12.122  28.507  24.333
 2042W        W 2907  12.500  25.926  23.374
 2043W        W 2908  11.111  27.910  22.304
 2044W        W 2909  12.630  26.861  22.174
 2045W        W 2910  11.276  27.410  23.193
 2046W        W 2911  12.566  26.052  24.657
 2047W        W 2912  14.238  25.761  22.084
 2048W        W 2913  14.331  27.507  25.183
 2049W        W 2914  12.985  28.764  25.335
 2050W        W 2915  14.543  27.858  24.857
 2051W        W 2916  13.951  28.656  25.468
 2052W        W 2917  11.690  29.112  23.946
 2053W        W 2918  14.549  27.734  22.820
 2054W        W 2919  13.079  27.001  23.333
 2055W        W 2920  12.846  25.613  23.223
 2056W        W 2921  11.905  28.597  23.060
 2057W        W 2922  12.404  26.338  24.285
 2058W        W 2923  12.104  25.707  23.754
 2059W        W 2924  11.167  28.529  22.302
 2060W        W 2925  12.983  27.893  23.020
 2061W        W 2926  11.858  28.688  24.899
 2062W        W 2927  11.335  27.511  22.595
 2063W        W 2928  12.768  28.019  23.651
 2064W        W 2929  11.020  25.873  22.671
 2065W        W 2930  13.684  27.079  24.598
 2066W        W 2931  13.561  26.465  22.170
 2067W        W 2932  14.078  28.137  23.818
 2068W        W 2933  12.739  28.621  23.649
 2069W        W 2934  12.151  28.725  22.560
 2070W        W 2935  13.433  25.628  21.990
 2071W        W 2936  11.233  28.888  23.731
 2072W        W 2937  13.430  26.646  25.366
 2073W        W 2938  11.413  26.176  25.365
 2074W        W 2939  11.144  26.776  22.698
 2075W        W 2940  11.835  26.765  22.423
 2076W        W 2941  13.598  27.092  25.240
 2077W        W 2942  11.941  27.373  23.949
 2078W        W 2943  13.415  25.659  23.069
 2079W        W 2944  12.546  29.090  23.572
 2080W        W 2945  13.760  28.552  24.509
 2081W        W 2946  13.344  28.701  23.620
 2082W        W 2947  13.363  27.681  23.214
 2083W        W 2948  12.825  25.906  22.285
 2084W        W 2949  14.506  25.534  23.007
 2085W        W 2950  12.194  27.169  22.170
 2086W        W 2951  14.360  26.506  23.160
 2087W        W 2952  13.052  27.676  22.037
 2088W        W 2953  13.988  27.876  24.785
 2089W        W 2954  13.642  28.577  22.252
 2090W        W 2955  12.257  26.252  25.158
 2091W        W 2956  12.077  26.836  24.399
 2092W        W 2957  14.169  28.331  24.676
 2093W        W 2958  13.269  26.281  25.053
 2094W        W 2959  11.113  26.752  24.830
 2095W        W 2960  12.873  27.229  24.556
 2096W        W 2961  11.230  27.987  23.213
 2097W        W 2962  11.377  27.284  24.103
 2098W        W 2963  13.694  27.570  24.453
 2099W        W 2964  13.466  28.950  25.264
 2100W        W 2965  13.362  26.689  24.817
 2101W        W 2966  13.639  28.743  23.222
 2102W        W 2967  12.641  28.463  24.545
 2103W        W 2968  12.126  28.818  23.814
 2104W        W 2969  13.931  27.989  24.233
 2105W        W 2970  12.981  28.061  25.370
 2106W        W 2971  11.586  28.014  23.709
 2107W        W 2972  13.932  27.773  23.354
 2108W        W 2973  13.573  28.839  24.105
 2109W        W 2974  11.551  28.568  23.975
 2110W        W 2975  12.572  26.620  25.185
 2111W        W 2976  13.023  28.786  22.696
 2112W        W 2977  12.331  28.041  25.334
 2113W        W 2978  12.457  28.279  22.711
 2114W        W 2979  11.678  27.019  21.970
 2115W        W 2980  11.017  29.105  28.869
 2116W        W 2981  11.393  27.998  28.392
 2117W        W 2982  14.098  27.728  26.162
 2118W        W 2983  14.228  28.813  28.189
 2119W        W 2984  12.146  28.804  25.715
 2120W        W 2985  12.229  26.956  26.698
 2121W        W 2986  11.744  26.804  26.862
 2122W        W 2987  12.735  27.619  26.296
 2123W        W 2988  12.410  28.711  28.651
 2124W        W 2989  11.059  26.272  28.614
 2125W        W 2990  11.821  25.552  28.416
 2126W        W 2991  13.515  25.940  27.303
 2127W        W 2992  13.164  26.811  25.873
 2128W        W 2993  13.734  26.245  28.964
 2129W        W 2994  11.100  26.037  28.089
 2130W        W 2995  11.199  28.656  29.110
 2131W        W 2996  12.721  28.046  25.842
 2132W        W 2997  11.153  26.829  27.535
 2133W        W 2998  12.046  26.720  28.772
 2134W        W 2999  14.505  26.579  27.271
 2135W        W 3000  14.269  27.622  28.130
 2136W        W 3001  12.577  26.955  27.157
 2137W        W 3002  13.123  28.294  27.526
 2138W        W 3003  11.623  27.728  27.758
 2139W        W 3004  10.982  27.256  27.329
 2140W        W 3005  12.018  27.228  28.521
 2141W        W 3006  14.289  27.011  28.775
 2142W        W 3007  11.905  28.455  27.220
 2143W        W 3008  13.026  28.144  28.354
 2144W        W 3009  12.246  26.784  27.579
 2145W        W 3010  12.538  27.568  27.222
 2146W        W 3011  13.535  28.341  29.070
 2147W        W 3012  12.614  27.661  29.080
 2148W        W 3013  12.595  27.377  28.558
 2149W        W 3014  11.004  26.768  29.080
 2150W        W 3015  13.836  28.303  28.679
 2151W        W 3016  11.417  25.885  26.677
 2152W        W 3017  11.944  28.143  27.676
 2153W        W 3018  14.407  27.926  26.966
 2154W        W 3019  13.820  26.326  27.533
 2155W        W 3020  14.105  26.279  25.628
 2156W        W 3021  14.570  27.080  27.934
 2157W        W 3022  12.537  28.787  27.687
 2158W        W 3023  14.311  28.253  26.125
 2159W        W 3024  11.440  29.039  25.879
 2160W        W 3025  11.833  29.085  26.555
 2161W        W 3026  11.630  25.839  27.981
 2162W        W 3027  14.253  26.857  28.256
 2163W        W 3028  13.658  27.279  26.715
 2164W        W 3029  13.624  26.967  25.742
 2165W        W 3030  12.832  28.111  27.882
 2166W        W 3031  12.638  26.441  27.081
 2167W        W 3032  13.238  28.528  28.075
 2168W        W 3033  14.109  27.319  26.497
 2169W        W 3034  13.011  25.977  26.513
 2170W        W 3035  11.668  28.671  26.196
 2171W        W 3036  11.039  26.170  26.795
 2172W        W 3037  13.825  26.777  27.269
 2173W        W 3038  11.283  28.394  27.184
 2174W        W 3039  12.624  28.744  26.054
 2175W        W 3040  14.016  26.770  25.518
 2176W        W 3041  11.039  28.528  27.682
 2177W        W 3042  11.830  28.100  28.162
 2178W        W 3043  12.203  27.460  26.781
 2179W        W 3044  12.225  25.865  27.874
 2180W        W 3045  14.454  25.627  27.171
 2181W        W 3046  11.673  27.499  25.639
 2182W        W 3047  11.328  26.532  25.818
 2183W        W 3048  11.390  28.488  26.612
 2184W        W 3049  12.521  27.971  26.860
 2185W        W 3050  13.853  28.830  28.574
 2186W        W 3051  12.779  26.472  26.258
 2187W        W 3052  14.162  28.870  27.030
 2188W        W 3053  13.839  26.723  28.628
 2189W        W 3054  14.552  28.379  26.762
 2190W        W 3055  13.179  27.671  28.246
 2191W        W 3056  10.945  27.222  26.452
 2192W        W 3057  12.056  27.637  28.025
 2193W        W 3058  13.260  26.901  26.403
 2194W        W 3059  13.137  27.391  26.507
 2195W        W 3060  11.480  26.811  27.981
 2196W        W 3061  11.465  26.687  28.903
 2197W        W 3062  11.355  25.604  27.062
 2198W        W 3063  13.123  25.951  27.623
 2199W        W 3064  12.771  26.136  28.786
 2200W        W 3065  13.126  26.285  25.964
 2201W        W 3066  14.309  28.678  28.718
 2202W        W 3067  13.276  25.759  28.757
 2203W        W 3068  14.295  28.060  28.879
 2204W        W 3069  13.725  26.227  28.475
 2205W        W 3070  13.525  26.165  26.745
 2206W        W 3071  13.918  27.299  29.149
 2207W        W 3072  11.658  28.875  27.135
 2208W        W 3073  12.316  26.592  26.121
 2209W        W 3074  11.885  25.876  28.785
 2210W        W 3075  13.937  26.360  26.466
 2211W        W 3076  14.304  26.842  26.411
 2212W        W 3077  12.047  29.059  28.882
 2213W        W 3078  11.973  25.595  26.117
 2214W        W 3079  14.294  26.129  27.152
 2215W        W 3080  14.444  28.378  25.597
 2216W        W 3081  11.351  27.581  27.299
 2217W        W 3082  13.268  26.168  25.529
 2218W        W 3083  14.402  28.500  27.249
 2219W        W 3084  14.441  25.694  27.999
 2220W        W 3085  12.886  26.906  28.553
 2221W        W 3086  12.979  28.245  26.256
 2222W        W 3087  13.379  27.539  28.996
 2223W        W 3088  13.053  25.516  27.305
 2224W        W 3089  11.665  26.419  27.368
 2225W        W 3090  11.219  27.619  28.142
 2226W        W 3091  13.078  28.812  26.848
 2227W        W 3092  14.272  26.409  27.720
 2228W        W 3093  12.909  28.756  28.487
 2229W        W 3094  14.252  27.815  25.692
 2230W        W 3095  12.687  27.298  26.753
 2231W        W 3096  14.539  25.809  28.494
 2232W        W 3097  12.688  27.644  28.088
 2233W        W 3098  12.905  26.530  27.533
 2234W        W 3099  13.757  26.828  26.371
 2235W        W 3100  14.044  26.561  26.013
 2236W        W 3101  13.853  28.601  26.402
 2237W        W 3102  13.687  28.204  27.198
 2238W        W 3103  13.583  27.283  26.176
 2239W        W 3104  13.016  27.493  27.162
 2240W        W 3105  13.897  27.281  27.229
 2241W        W 3106  11.272  26.296  27.653
 2242W        W 3107  14.050  27.348  28.480
 2243W        W 3108  14.401  28.966  27.626
 2244W        W 3109  12.331  28.410  27.028
 2245W        W 3110  13.338  28.943  28.352
 2246W        W 3111  13.332  26.273  28.116
 2247W        W 3112  12.539  28.981  28.177
 2248W        W 3113  14.236  25.935  26.643
 2249W        W 3114  14.027  27.254  27.944
 2250W        W 3115  11.010  26.575  27.982
 2251W        W 3116  13.870  26.370  27.000
 2252W        W 3117  14.281  26.521  28.777
 2253W        W 3118  13.166  28.220  26.995
 2254W        W 3119  12.422  28.811  26.608
 2255W        W 3120  11.537  25.991  25.866
 2256W        W 3121  12.641  25.645  27.676
 2257W        W 3122  11.669  28.765  25.524
 2258W        W 3123  12.043  27.231  26.275
 2259W        W 3124  12.697  27.860  28.588
 2260W        W 3125  12.527  26.218  26.578
 2261W        W 3126  13.883  25.815  27.006
 2262W        W 3127  13.603  29.097  27.334
 2263W        W 3128  13.015  28.745  27.674
 2264W        W 3129  12.411  27.782  27.635
 2265W        W 3130  14.181  28.505  27.761
 2266W        W 3131  11.875  26.008  26.530
 2267W        W 3132  12.397  28.305  27.490
 2268W        W 3133  11.880  26.236  25.555
 2269W        W 3134  12.681  26.845  27.949
 2270W        W 3135  13.529  25.711  27.819
 2271W        W 3136  10.949  27.554  27.704
 2272W        W 3137  12.653  27.372  25.862
 2273W        W 3138  11.921  25.687  25.632
 2274W        W 3139  12.659  26.768  26.683
 2275W        W 3140  13.629  25.744  28.382
 2276W        W 3141  12.217  27.756  28.491
 2277W        W 3142  13.021  27.538  28.708
 2278W        W 3143  13.638  27.568  28.601
 2279W        W 3144  12.922  25.708  29.106
 2280W        W 3145  12.144  26.324  27.499
 2281W        W 3146  11.570  26.280  26.897
 2282W        W 3147  11.356  28.992  26.573
 2283W        W 3148  12.688  28.322  28.698
 2284W        W 3149  11.723  27.807  26.057
 2285W        W 3150  13.403  27.192  27.278
 2286W        W 3151  13.683  26.991  27.677
 2287W        W 3152  12.888  27.665  27.611
 2288W        W 3153  13.358  28.039  25.743
 2289W        W 3154  13.030  26.060  27.071
 2290W        W 3155  14.509  26.338  26.339
 2291W        W 3156  11.003  28.927  28.370
 2292W        W 3157  11.420  28.153  27.902
 2293W        W 3158  10.987  28.999  26.134
 2294W        W 3159  12.886  26.269  27.940
 2295W        W 3160  12.249  28.292  25.789
 2296W        W 3161  14.154  28.674  25.975
 2297W        W 3162  13.129  27.327  25.989
 2298W        W 3163  11.972  26.518  26.506
 2299W        W 3164  12.804  26.428  25.558
 2300W        W 3165  13.388  27.993  28.736
 2301W        W 3166  13.741  25.899  26.353
 2302W        W 3167  11.071  25.747  25.801
 2303W        W 3168  12.357  28.066  28.091
 2304W        W 3169  12.156  27.982  27.183
 2305W        W 3170  11.898  27.934  25.581
 2306W        W 3171  11.139  28.175  26.349
 2307W        W 3172  11.643  27.245  28.791
 2308W        W 3173  12.347  25.805  28.977
 2309W        W 3174  13.056  25.947  28.333
 2310W        W 3175  12.251  25.715  26.614
 2311W        W 3176  13.310  25.792  26.119
 2312W        W 3177  11.255  25.724  27.696
 2313W        W 3178  11.303  26.687  27.066
 2314W        W 3179  13.992  25.795  27.472
 2315W        W 3180  11.414  26.293  26.286
 2316W        W 3181  13.985  25.981  27.902
 2317W        W 3182  14.381  27.184  25.587
 2318W        W 3183  11.673  25.942  27.406
 2319W        W 3184  12.787  26.514  28.346
 2320W        W 3185  10.935  26.204  25.824
 2321W        W 3186  11.721  27.593  28.385
 2322W        W 3187  13.079  26.991  27.564
 2323W        W 3188  12.946  29.070  25.860
 2324W        W 3189  11.092  27.577  25.557
 2325W        W 3190  11.827  27.988  28.683
 2326W        W 3191  11.348  27.155  28.314
 2327W        W 3192  12.339  27.260  28.108
 2328W        W 3193  14.107  25.619  28.370
 2329W        W 3194  14.505  27.229  28.361
 2330W        W 3195  14.493  27.429  26.047
 2331W        W 3196  13.356  27.761  26.146
 2332W        W 3197  13.830  29.061  25.841
 2333W        W 3198  13.007  27.051  28.983
 2334W        W 3199  11.337  28.018  29.023
 2335W        W 3200  14.543  25.940  28.975
 2336W        W 3201  14.261  26.868  27.596
 2337W        W 3202  12.569  28.998  29.073
 2338W        W 3203  12.424  25.627  25.800
 2339W        W 3204  13.963  28.226  25.743
 2340W        W 3205  11.732  26.319  28.629
 2341W        W 3206  12.166  28.313  28.491
 2342W        W 3207  14.292  26.304  28.289
 2343W        W 3208  13.503  28.963  26.257
 2344W        W 3209  13.742  27.582  27.624
 2345W        W 3210  11.992  25.998  28.291
 2346W        W 3211  12.461  27.067  29.048
 2347W        W 3212  11.964  28.246  26.242
 2348W        W 3213  13.719  27.744  26.506
 2349W        W 3214  11.487  26.370  28.230
 2350W        W 3215  12.816  28.432  26.694
 2351W        W 3216  14.566  26.992  26.875
 2352W        W 3217  12.788  25.625  28.594
 2353W        W 3218  13.568  28.330  27.673
 2354W        W 3219  13.871  28.674  27.381
 2355W        W 3220  13.090  28.476  25.809
 2356W        W 3221  11.100  28.368  28.651
 2357W        W 3222  11.843  26.360  27.889
 2358W        W 3223  11.813  25.708  26.999
 2359W        W 3224  13.434  26.550  27.691
 2360W        W 3225  12.232  27.721  25.891
 2361W        W 3226  14.230  27.663  27.390
 2362W        W 3227  11.557  28.421  28.813
 2363W        W 3228  13.944  29.103  26.610
 2364W        W 3229  12.043  26.123  27.055
 2365W        W 3230  11.812  27.616  27.145
 2366W        W 3231  12.125  29.027  27.895
 2367W        W 3232  14.192  29.123  28.927
 2368W        W 3233  13.351  27.311  27.860
 2369W        W 3234  11.200  27.109  25.775
 2370W        W 3235  14.334  28.767  26.472
 2371W        W 3236  14.171  26.091  26.091
 2372W        W 3237  12.310  25.610  28.494
 2373W        W 3238  14.016  28.412  26.952
 2374W        W 3239  14.045  26.968  26.857
 2375W        W 3240  12.162  26.641  27.073
 2376W        W 3241  12.407  26.903  28.397
 2377W        W 3242  13.518  28.056  28.260
 2378W        W 3243  12.168  26.510  28.372
 2379W        W 3244  12.147  28.976  26.988
 2380W        W 3245  11.464  28.935  28.622
 2381W        W 3246  11.576  28.296  25.752
 2382W        W 3247  14.093  28.054  26.562
 2383W        W 3248  11.697  26.846  28.448
 2384W        W 3249  14.470  26.776  25.929
 2385W        W 3250  12.215  27.833  26.400
 2386W        W 3251  13.314  27.215  28.481
 2387W        W 3252  13.205  26.843  28.025
 2388W        W 3253  11.765  27.215  28.054
 2389W        W 3254  13.975  29.103  27.883
 2390W        W 3255  13.766  25.737  28.877
 2391W        W 3256  11.430  25.887  28.464
 2392W        W 3257  11.769  26.910  27.517
 2393W        W 3258  12.138  26.724  25.639
 2394W        W 3259  10.941  28.483  28.184
 2395W        W 3260  12.526  27.192  27.627
 2396W        W 3261  12.349  26.217  25.732
 2397W        W 3262  11.484  27.033  26.513
 2398W        W 3263  11.255  28.885  27.950
 2399W        W 3264  14.050  27.111  26.058
 2400W        W 3265  14.145  26.027  28.744
 2401W        W 3266  13.581  28.236  26.707
 2402W        W 3267  11.179  27.160  28.884
 2403W        W 3268  14.145  25.624  26.180
 2404W        W 3269  13.665  28.099  26.191
 2405W        W 3270  12.567  27.157  26.276
 2406W        W 3271  13.754  25.961  25.799
 2407W        W 3272  13.819  26.568  27.985
 2408W        W 3273  11.528  27.161  27.192
 2409W        W 3274  11.822  28.100  26.841
 2410W        W 3275  13.585  26.720  26.806
 2411W        W 3276  12.608  26.099  27.502
 2412W        W 3277  14.570  28.010  28.013
 2413W        W 3278  14.488  25.997  27.574
 2414W        W 3279  11.027  28.827  26.950
 2415W        W 3280  11.536  28.014  26.486
 2416W        W 3281  11.451  25.631  29.039
 2417W        W 3282  12.570  28.484  29.141
 2418W        W 3283  14.325  27.452  26.931
 2419W        W 3284  13.679  27.629  25.811
 2420W        W 3285  12.974  29.150  28.023
 2421W        W 3286  13.831  27.872  29.060
 2422W        W 3287  12.646  25.582  26.340
 2423W        W 3288  13.359  26.451  27.199
 2424W        W 3289  11.045  28.038  27.531
 2425W        W 3290  12.298  26.000  26.172
 2426W        W 3291  12.102  27.484  29.021
 2427W        W 3292  13.096  26.465  26.735
 2428W        W 3293  13.301  27.875  27.857
 2429W        W 3294  11.455  28.480  28.292
 2430W        W 3295  12.046  28.463  29.015
 2431W        W 3296  11.897  26.260  26.029
 2432W        W 3297  13.414  26.402  26.354
 2433W        W 3298  13.372  28.510  28.591
 2434W        W 3299  12.057  27.102  27.190
 2435W        W 3300  11.712  28.800  28.055
 2436W        W 3301  14.457  28.917  25.656
 2437W        W 3302  11.320  27.589  28.652
 2438W        W 3303  13.315  27.851  27.340
 2439W        W 3304  11.751  27.500  26.582
 2440W        W 3305  12.122  28.507  27.977
 2441W        W 3306  12.500  25.926  27.018
 2442W        W 3307  11.111  27.910  25.948
 2443W        W 3308  12.630  26.861  25.818
 2444W        W 3309  11.276  27.410  26.837
 2445W        W 3310  12.566  26.052  28.301
 2446W        W 3311  14.238  25.761  25.728
 2447W        W 3312  14.331  27.507  28.827
 2448W        W 3313  12.985  28.764  28.979
 2449W        W 3314  14.543  27.858  28.501
 2450W        W 3315  13.951  28.656  29.112
 2451W        W 3316  11.690  29.112  27.590
 2452W        W 3317  14.549  27.734  26.464
 2453W        W 3318  13.079  27.001  26.977
 2454W        W 3319  12.846  25.613  26.867
 2455W        W 3320  11.905  28.597  26.704
 2456W        W 3321  12.404  26.338  27.929
 2457W        W 3322  12.104  25.707  27.398
 2458W        W 3323  11.167  28.529  25.946
 2459W        W 3324  12.983  27.893  26.664
 2460W        W 3325  11.858  28.688  28.543
 2461W        W 3326  11.335  27.511  26.239
 2462W        W 3327  11.220  26.054  27.238
 2463W        W 3328  12.768  28.019  27.295
 2464W        W 3329  11.020  25.873  26.315
 2465W        W 3330  13.684  27.079  28.242
 2466W        W 3331  13.561  26.465  25.814
 2467W        W 3332  14.078  28.137  27.462
 2468W        W 3333  12.739  28.621  27.293
 2469W        W 3334  12.151  28.725  26.204
 2470W        W 3335  13.433  25.628  25.634
 2471W        W 3336  11.233  28.888  27.375
 2472W        W 3337  13.430  26.646  29.010
 2473W        W 3338  11.413  26.176  29.009
 2474W        W 3339  11.144  26.776  26.342
 2475W        W 3340  11.835  26.765  26.067
 2476W        W 3341  13.598  27.092  28.884
 2477W        W 3342  11.941  27.373  27.593
 2478W        W 3343  13.415  25.659  26.713
 2479W        W 3344  12.546  29.090  27.216
 2480W        W 3345  13.760  28.552  28.153
 2481W        W 3346  13.344  28.701  27.264
 2482W        W 3347  13.363  27.681  26.858
 2483W        W 3348  12.825  25.906  25.929
 2484W        W 3349  14.506  25.534  26.651
 2485W        W 3350  12.194  27.169  25.814
 2486W        W 3351  14.360  26.506  26.804
 2487W        W 3352  13.052  27.676  25.681
 2488W        W 3353  13.988  27.876  28.429
 2489W        W 3354  13.642  28.577  25.896
 2490W        W 3355  12.257  26.252  28.802
 2491W        W 3356  12.077  26.836  28.043
 2492W        W 3357  14.169  28.331  28.320
 2493W        W 3358  13.269  26.281  28.697
 2494W        W 3359  11.113  26.752  28.474
 2495W        W 3360  12.873  27.229  28.200
 2496W        W 3361  11.230  27.987  26.857
 2497W        W 3362  11.377  27.284  27.747
 2498W        W 3363  13.694  27.570  28.097
 2499W        W 3364  13.466  28.950  28.908
 2500W        W 3365  13.362  26.689  28.461
 2501W        W 3366  13.639  28.743  26.866
 2502W        W 3367  12.641  28.463  28.189
 2503W        W 3368  12.126  28.818  27.458
 2504W        W 3369  13.931  27.989  27.877
 2505W        W 3370  12.981  28.061  29.014
 2506W        W 3371  11.586  28.014  27.353
 2507W        W 3372  13.932  27.773  26.998
 2508W        W 3373  13.573  28.839  27.749
 2509W        W 3374  11.551  28.568  27.619
 2510W        W 3375  12.572  26.620  28.829
 2511W        W 3376  13.023  28.786  26.340
 2512W        W 3377  12.331  28.041  28.978
 2513W        W 3378  12.457  28.279  26.355
 2514W        W 3379  11.678  27.019  25.614
 2515W        W 3380  14.661   3.595   3.359
 2516W        W 3381  15.037   2.488   2.882
 2517W        W 3382  17.742   2.218   0.652
 2518W        W 3383  17.872   3.303   2.679
 2519W        W 3384  15.790   3.294   0.205
 2520W        W 3385  15.873   1.446   1.188
 2521W        W 3386  15.388   1.294   1.352
 2522W        W 3387  16.379   2.109   0.786
 2523W        W 3388  16.054   3.201   3.141
 2524W        W 3389  14.703   0.762   3.104
 2525W        W 3390  15.465   0.042   2.906
 2526W        W 3391  17.159   0.430   1.793
 2527W        W 3392  16.808   1.301   0.363
 2528W        W 3393  17.378   0.735   3.454
 2529W        W 3394  14.744   0.527   2.579
 2530W        W 3395  14.843   3.146   3.600
 2531W        W 3396  16.365   2.536   0.332
 2532W        W 3397  14.797   1.319   2.025
 2533W        W 3398  15.690   1.210   3.262
 2534W        W 3399  18.149   1.069   1.761
 2535W        W 3400  17.913   2.112   2.620
 2536W        W 3401  16.221   1.445   1.647
 2537W        W 3402  16.767   2.784   2.016
 2538W        W 3403  15.267   2.218   2.248
 2539W        W 3404  14.626   1.746   1.819
 2540W        W 3405  15.662   1.718   3.011
 2541W        W 3406  17.933   1.501   3.265
 2542W        W 3407  15.549   2.945   1.710
 2543W        W 3408  16.670   2.634   2.844
 2544W        W 3409  15.890   1.274   2.069
 2545W        W 3410  16.182   2.058   1.712
 2546W        W 3411  17.179   2.831   3.560
 2547W        W 3412  16.258   2.151   3.570
 2548W        W 3413  16.239   1.867   3.048
 2549W        W 3414  14.648   1.258   3.570
 2550W        W 3415  17.480   2.793   3.169
 2551W        W 3416  15.061   0.375   1.167
 2552W        W 3417  15.588   2.633   2.166
 2553W        W 3418  18.051   2.416   1.456
 2554W        W 3419  17.464   0.816   2.023
 2555W        W 3420  17.749   0.769   0.118
 2556W        W 3421  18.214   1.570   2.424
 2557W        W 3422  16.181   3.277   2.177
 2558W        W 3423  17.955   2.743   0.615
 2559W        W 3424  15.084   3.529   0.369
 2560W        W 3425  15.477   3.575   1.045
 2561W        W 3426  15.274   0.329   2.471
 2562W        W 3427  17.897   1.347   2.746
 2563W        W 3428  17.302   1.769   1.205
 2564W        W 3429  17.268   1.457   0.232
 2565W        W 3430  16.476   2.601   2.372
 2566W        W 3431  16.282   0.931   1.571
 2567W        W 3432  16.882   3.018   2.565
 2568W        W 3433  17.753   1.809   0.987
 2569W        W 3434  16.655   0.467   1.003
 2570W        W 3435  15.312   3.161   0.686
 2571W        W 3436  14.683   0.660   1.285
 2572W        W 3437  17.469   1.267   1.759
 2573W        W 3438  14.927   2.884   1.674
 2574W        W 3439  16.268   3.234   0.544
 2575W        W 3440  17.660   1.260   0.008
 2576W        W 3441  14.683   3.018   2.172
 2577W        W 3442  15.474   2.590   2.652
 2578W        W 3443  15.847   1.950   1.271
 2579W        W 3444  15.869   0.355   2.364
 2580W        W 3445  18.098   0.117   1.661
 2581W        W 3446  15.317   1.989   0.129
 2582W        W 3447  14.972   1.022   0.308
 2583W        W 3448  15.034   2.978   1.102
 2584W        W 3449  16.165   2.461   1.350
 2585W        W 3450  17.497   3.320   3.064
 2586W        W 3451  16.423   0.962   0.748
 2587W        W 3452  17.806   3.360   1.520
 2588W        W 3453  17.483   1.213   3.118
 2589W        W 3454  18.196   2.869   1.252
 2590W        W 3455  16.823   2.161   2.736
 2591W        W 3456  14.589   1.712   0.942
 2592W        W 3457  15.700   2.127   2.515
 2593W        W 3458  16.904   1.391   0.893
 2594W        W 3459  16.781   1.881   0.997
 2595W        W 3460  15.124   1.301   2.471
 2596W        W 3461  15.109   1.177   3.393
 2597W        W 3462  14.999   0.094   1.552
 2598W        W 3463  16.767   0.441   2.113
 2599W        W 3464  16.415   0.626   3.276
 2600W        W 3465  16.770   0.775   0.454
 2601W        W 3466  17.953   3.168   3.208
 2602W        W 3467  16.920   0.249   3.247
 2603W        W 3468  17.939   2.550   3.369
 2604W        W 3469  17.369   0.717   2.965
 2605W        W 3470  17.169   0.655   1.235
 2606W        W 3471  17.562   1.789   3.639
 2607W        W 3472  15.302   3.365   1.625
 2608W        W 3473  15.960   1.082   0.611
 2609W        W 3474  15.529   0.366   3.275
 2610W        W 3475  17.581   0.850   0.956
 2611W        W 3476  17.948   1.332   0.901
 2612W        W 3477  15.691   3.549   3.372
 2613W        W 3478  15.617   0.085   0.607
 2614W        W 3479  17.938   0.619   1.642
 2615W        W 3480  18.088   2.868   0.087
 2616W        W 3481  14.995   2.071   1.789
 2617W        W 3482  16.912   0.658   0.019
 2618W        W 3483  18.046   2.990   1.739
 2619W        W 3484  18.085   0.184   2.489
 2620W        W 3485  16.530   1.396   3.043
 2621W        W 3486  16.623   2.735   0.746
 2622W        W 3487  17.023   2.029   3.486
 2623W        W 3488  16.697   0.006   1.795
 2624W        W 3489  15.309   0.909   1.858
 2625W        W 3490  14.863   2.109   2.632
 2626W        W 3491  16.722   3.302   1.338
 2627W        W 3492  17.916   0.899   2.210
 2628W        W 3493  16.553   3.246   2.977
 2629W        W 3494  17.896   2.305   0.182
 2630W        W 3495  16.331   1.788   1.243
 2631W        W 3496  18.183   0.299   2.984
 2632W        W 3497  16.332   2.134   2.578
 2633W        W 3498  16.549   1.020   2.023
 2634W        W 3499  17.401   1.318   0.861
 2635W        W 3500  17.688   1.051   0.503
 2636W        W 3501  17.497   3.091   0.892
 2637W        W 3502  17.331   2.694   1.688
 2638W        W 3503  17.227   1.773   0.666
 2639W        W 3504  16.660   1.983   1.652
 2640W        W 3505  17.541   1.771   1.719
 2641W        W 3506  14.916   0.786   2.143
 2642W        W 3507  17.694   1.838   2.970
 2643W        W 3508  18.045   3.456   2.116
 2644W        W 3509  15.975   2.900   1.518
 2645W        W 3510  16.982   3.433   2.842
 2646W        W 3511  16.976   0.763   2.606
 2647W        W 3512  16.183   3.471   2.667
 2648W        W 3513  17.880   0.425   1.133
 2649W        W 3514  17.671   1.744   2.434
 2650W        W 3515  14.654   1.065   2.472
 2651W        W 3516  17.514   0.860   1.490
 2652W        W 3517  17.925   1.011   3.267
 2653W        W 3518  16.810   2.710   1.485
 2654W        W 3519  16.066   3.301   1.098
 2655W        W 3520  15.181   0.481   0.356
 2656W        W 3521  16.285   0.135   2.166
 2657W        W 3522  15.313   3.255   0.014
 2658W        W 3523  15.687   1.721   0.765
 2659W        W 3524  16.341   2.350   3.078
 2660W        W 3525  16.171   0.708   1.068
 2661W        W 3526  17.527   0.305   1.496
 2662W        W 3527  17.247   3.587   1.824
 2663W        W 3528  16.659   3.235   2.164
 2664W        W 3529  16.055   2.272   2.125
 2665W        W 3530  17.825   2.995   2.251
 2666W        W 3531  15.519   0.498   1.020
 2667W        W 3532  16.041   2.795   1.980
 2668W        W 3533  15.524   0.726   0.045
 2669W        W 3534  16.325   1.335   2.439
 2670W        W 3535  17.173   0.201   2.309
 2671W        W 3536  14.593   2.044   2.194
 2672W        W 3537  16.297   1.862   0.352
 2673W        W 3538  15.565   0.177   0.122
 2674W        W 3539  16.303   1.258   1.173
 2675W        W 3540  17.273   0.234   2.872
 2676W        W 3541  15.861   2.246   2.981
 2677W        W 3542  16.665   2.028   3.198
 2678W        W 3543  17.282   2.058   3.091
 2679W        W 3544  16.566   0.198   3.596
 2680W        W 3545  15.788   0.814   1.989
 2681W        W 3546  15.214   0.770   1.387
 2682W        W 3547  15.000   3.482   1.063
 2683W        W 3548  16.332   2.812   3.188
 2684W        W 3549  15.367   2.297   0.547
 2685W        W 3550  17.047   1.682   1.768
 2686W        W 3551  17.327   1.481   2.167
 2687W        W 3552  16.532   2.155   2.101
 2688W        W 3553  17.002   2.529   0.233
 2689W        W 3554  16.674   0.550   1.561
 2690W        W 3555  18.153   0.828   0.829
 2691W        W 3556  14.647   3.417   2.860
 2692W        W 3557  15.064   2.643   2.392
 2693W        W 3558  14.631   3.489   0.624
 2694W        W 3559  16.530   0.759   2.430
 2695W        W 3560  15.893   2.782   0.279
 2696W        W 3561  17.798   3.164   0.465
 2697W        W 3562  16.773   1.817   0.479
 2698W        W 3563  15.616   1.008   0.996
 2699W        W 3564  16.448   0.918   0.048
 2700W        W 3565  17.032   2.483   3.226
 2701W        W 3566  17.385   0.389   0.843
 2702W        W 3567  14.715   0.237   0.291
 2703W        W 3568  16.001   2.556   2.581
 2704W        W 3569  15.800   2.472   1.673
 2705W        W 3570  15.542   2.424   0.071
 2706W        W 3571  14.783   2.665   0.839
 2707W        W 3572  15.287   1.735   3.281
 2708W        W 3573  15.991   0.295   3.467
 2709W        W 3574  16.700   0.437   2.823
 2710W        W 3575  15.895   0.205   1.104
 2711W        W 3576  16.954   0.282   0.609
 2712W        W 3577  14.899   0.214   2.186
 2713W        W 3578  14.947   1.177   1.556
 2714W        W 3579  17.636   0.285   1.962
 2715W        W 3580  15.058   0.783   0.776
 2716W        W 3581  17.629   0.471   2.392
 2717W        W 3582  18.025   1.674   0.077
 2718W        W 3583  15.317   0.432   1.896
 2719W        W 3584  16.431   1.004   2.836
 2720W        W 3585  14.579   0.694   0.314
 2721W        W 3586  15.365   2.083   2.875
 2722W        W 3587  16.723   1.481   2.054
 2723W        W 3588  16.590   3.560   0.350
 2724W        W 3589  14.736   2.067   0.047
 2725W        W 3590  15.471   2.478   3.173
 2726W        W 3591  14.992   1.645   2.804
 2727W        W 3592  15.983   1.750   2.598
 2728W        W 3593  17.751   0.109   2.860
 2729W        W 3594  18.149   1.719   2.851
 2730W        W 3595  18.137   1.919   0.537
 2731W        W 3596  17.000   2.251   0.636
 2732W        W 3597  17.474   3.551   0.331
 2733W        W 3598  16.651   1.541   3.473
 2734W        W 3599  14.981   2.508   3.513
 2735W        W 3600  18.187   0.430   3.465
 2736W        W 3601  17.905   1.358   2.086
 2737W        W 3602  16.213   3.488   3.563
 2738W        W 3603  16.068   0.117   0.290
 2739W        W 3604  17.607   2.716   0.233
 2740W        W 3605  15.376   0.809   3.119
 2741W        W 3606  15.810   2.803   2.981
 2742W        W 3607  17.936   0.794   2.779
 2743W        W 3608  17.147   3.453   0.747
 2744W        W 3609  17.386   2.072   2.114
 2745W        W 3610  15.636   0.488   2.781
 2746W        W 3611  16.105   1.557   3.538
 2747W        W 3612  15.608   2.736   0.732
 2748W        W 3613  17.363   2.234   0.996
 2749W        W 3614  15.131   0.860   2.720
 2750W        W 3615  16.460   2.922   1.184
 2751W        W 3616  18.210   1.482   1.365
 2752W        W 3617  16.432   0.115   3.084
 2753W        W 3618  17.212   2.820   2.163
 2754W        W 3619  17.515   3.164   1.871
 2755W        W 3620  16.734   2.966   0.299
 2756W        W 3621  14.744   2.858   3.141
 2757W        W 3622  15.487   0.850   2.379
 2758W        W 3623  15.457   0.198   1.489
 2759W        W 3624  17.078   1.040   2.181
 2760W        W 3625  15.876   2.211   0.381
 2761W        W 3626  17.874   2.153   1.880
 2762W        W 3627  15.201   2.911   3.303
 2763W        W 3628  17.588   3.593   1.100
 2764W        W 3629  15.687   0.613   1.545
 2765W        W 3630  15.456   2.106   1.635
 2766W        W 3631  15.769   3.517   2.385
 2767W        W 3632  17.836   3.613   3.417
 2768W        W 3633  16.995   1.801   2.350
 2769W        W 3634  14.844   1.599   0.265
 2770W        W 3635  17.978   3.257   0.962
 2771W        W 3636  17.815   0.581   0.581
 2772W        W 3637  15.954   0.100   2.984
 2773W        W 3638  17.660   2.902   1.442
 2774W        W 3639  17.689   1.458   1.347
 2775W        W 3640  15.806   1.131   1.563
 2776W        W 3641  16.051   1.393   2.887
 2777W        W 3642  17.162   2.546   2.750
 2778W        W 3643  15.812   1.000   2.862
 2779W        W 3644  15.791   3.466   1.478
 2780W        W 3645  15.108   3.425   3.112
 2781W        W 3646  15.220   2.786   0.242
 2782W        W 3647  17.737   2.544   1.052
 2783W        W 3648  15.341   1.336   2.938
 2784W        W 3649  18.114   1.266   0.419
 2785W        W 3650  15.859   2.323   0.890
 2786W        W 3651  16.958   1.705   2.971
 2787W        W 3652  16.849   1.333   2.515
 2788W        W 3653  15.409   1.705   2.544
 2789W        W 3654  17.619   3.593   2.373
 2790W        W 3655  17.410   0.227   3.367
 2791W        W 3656  15.074   0.377   2.954
 2792W        W 3657  15.413   1.400   2.007
 2793W        W 3658  15.782   1.214   0.129
 2794W        W 3659  14.585   2.973   2.674
 2795W        W 3660  16.170   1.682   2.117
 2796W        W 3661  15.993   0.707   0.222
 2797W        W 3662  15.128   1.523   1.003
 2798W        W 3663  14.899   3.375   2.440
 2799W        W 3664  17.694   1.601   0.548
 2800W        W 3665  17.789   0.517   3.234
 2801W        W 3666  17.225   2.726   1.197
 2802W        W 3667  14.823   1.650   3.374
 2803W        W 3668  17.789   0.114   0.670
 2804W        W 3669  17.309   2.589   0.681
 2805W        W 3670  16.211   1.647   0.766
 2806W        W 3671  17.398   0.451   0.289
 2807W        W 3672  17.463   1.058   2.475
 2808W        W 3673  15.172   1.651   1.682
 2809W        W 3674  15.466   2.590   1.331
 2810W        W 3675  17.229   1.210   1.296
 2811W        W 3676  16.252   0.589   1.992
 2812W        W 3677  18.214   2.500   2.503
 2813W        W 3678  18.132   0.487   2.064
 2814W        W 3679  14.671   3.317   1.440
 2815W        W 3680  15.180   2.504   0.976
 2816W        W 3681  15.095   0.121   3.529
 2817W        W 3682  16.214   2.974   3.631
 2818W        W 3683  17.969   1.942   1.421
 2819W        W 3684  17.323   2.119   0.301
 2820W        W 3685  16.618   3.640   2.513
 2821W        W 3686  17.475   2.362   3.550
 2822W        W 3687  16.290   0.072   0.830
 2823W        W 3688  17.003   0.941   1.689
 2824W        W 3689  14.689   2.528   2.021
 2825W        W 3690  15.942   0.490   0.662
 2826W        W 3691  15.746   1.974   3.511
 2827W        W 3692  16.740   0.955   1.225
 2828W        W 3693  16.945   2.365   2.347
 2829W        W 3694  15.099   2.970   2.782
 2830W        W 3695  15.690   2.953   3.505
 2831W        W 3696  15.541   0.750   0.519
 2832W        W 3697  17.058   0.892   0.844
 2833W        W 3698  17.016   3.000   3.081
 2834W        W 3699  15.701   1.592   1.680
 2835W        W 3700  15.356   3.290   2.545
 2836W        W 3701  18.101   3.407   0.146
 2837W        W 3702  14.964   2.079   3.142
 2838W        W 3703  16.959   2.341   1.830
 2839W        W 3704  15.395   1.990   1.072
 2840W        W 3705  15.766   2.997   2.467
 2841W        W 3706  16.144   0.416   1.508
 2842W        W 3707  14.755   2.400   0.438
 2843W        W 3708  16.274   1.351   0.308
 2844W        W 3709  14.920   1.900   1.327
 2845W        W 3710  16.210   0.542   2.791
 2846W        W 3711  17.882   0.251   0.218
 2847W        W 3712  17.975   1.997   3.317
 2848W        W 3713  16.629   3.254   3.469
 2849W        W 3714  18.187   2.348   2.991
 2850W        W 3715  17.595   3.146   3.602
 2851W        W 3716  15.334   3.602   2.080
 2852W        W 3717  18.193   2.224   0.954
 2853W        W 3718  16.723   1.491   1.467
 2854W        W 3719  16.490   0.103   1.357
 2855W        W 3720  15.549   3.087   1.194
 2856W        W 3721  16.048   0.828   2.419
 2857W        W 3722  15.748   0.197   1.888
 2858W        W 3723  14.811   3.019   0.436
 2859W        W 3724  16.627   2.383   1.154
 2860W        W 3725  15.502   3.178   3.033
 2861W        W 3726  14.979   2.001   0.729
 2862W        W 3727  14.864   0.544   1.728
 2863W        W 3728  16.412   2.509   1.785
 2864W        W 3729  14.664   0.363   0.805
 2865W        W 3730  17.328   1.569   2.732
 2866W        W 3731  17.205   0.955   0.304
 2867W        W 3732  17.722   2.627   1.952
 2868W        W 3733  16.383   3.111   1.783
 2869W        W 3734  15.795   3.215   0.694
 2870W        W 3735  17.077   0.118   0.124
 2871W        W 3736  14.877   3.378   1.865
 2872W        W 3737  17.074   1.136   3.500
 2873W        W 3738  15.057   0.666   3.499
 2874W        W 3739  14.788   1.266   0.832
 2875W        W 3740  15.479   1.255   0.557
 2876W        W 3741  17.242   1.582   3.374
 2877W        W 3742  15.585   1.863   2.083
 2878W        W 3743  17.059   0.149   1.203
 2879W        W 3744  16.190   3.580   1.706
 2880W        W 3745  17.404   3.042   2.643
 2881W        W 3746  16.988   3.191   1.754
 2882W        W 3747  17.007   2.171   1.348
 2883W        W 3748  16.469   0.396   0.419
 2884W        W 3749  18.150   0.024   1.141
 2885W        W 3750  15.838   1.659   0.304
 2886W        W 3751  18.004   0.996   1.294
 2887W        W 3752  16.696   2.166   0.171
 2888W        W 3753  17.632   2.366   2.919
 2889W        W 3754  17.286   3.067   0.386
 2890W        W 3755  15.901   0.742   3.292
 2891W        W 3756  15.721   1.326   2.533
 2892W        W 3757  17.813   2.821   2.810
 2893W        W 3758  16.913   0.771   3.187
 2894W        W 3759  14.757   1.242   2.964
 2895W        W 3760  16.517   1.719   2.690
 2896W        W 3761  14.874   2.477   1.347
 2897W        W 3762  15.021   1.774   2.237
 2898W        W 3763  17.338   2.060   2.587
 2899W        W 3764  17.110   3.440   3.398
 2900W        W 3765  17.006   1.179   2.951
 2901W        W 3766  17.283   3.233   1.356
 2902W        W 3767  16.285   2.953   2.679
 2903W        W 3768  15.770   3.308   1.948
 2904W        W 3769  17.575   2.479   2.367
 2905W        W 3770  16.625   2.551   3.504
 2906W        W 3771  15.230   2.504   1.843
 2907W        W 3772  17.576   2.263   1.488
 2908W        W 3773  17.217   3.329   2.239
 2909W        W 3774  15.195   3.058   2.109
 2910W        W 3775  16.216   1.110   3.319
 2911W        W 3776  16.667   3.276   0.830
 2912W        W 3777  15.975   2.531   3.468
 2913W        W 3778  16.101   2.769   0.845
 2914W        W 3779  15.322   1.509   0.104
 2915W        W 3780  14.661   3.595   7.003
 2916W        W 3781  15.037   2.488   6.526
 2917W        W 3782  17.742   2.218   4.296
 2918W        W 3783  17.872   3.303   6.323
 2919W        W 3784  15.790   3.294   3.849
 2920W        W 3785  15.873   1.446   4.832
 2921W        W 3786  15.388   1.294   4.996
 2922W        W 3787  16.379   2.109   4.430
 2923W        W 3788  16.054   3.201   6.785
 2924W        W 3789  14.703   0.762   6.748
 2925W        W 3790  15.465   0.042   6.550
 2926W        W 3791  17.159   0.430   5.437
 2927W        W 3792  16.808   1.301   4.007
 2928W        W 3793  17.378   0.735   7.098
 2929W        W 3794  14.744   0.527   6.223
 2930W        W 3795  14.843   3.146   7.244
 2931W        W 3796  16.365   2.536   3.976
 2932W        W 3797  14.797   1.319   5.669
 2933W        W 3798  15.690   1.210   6.906
 2934W        W 3799  18.149   1.069   5.405
 2935W        W 3800  17.913   2.112   6.264
 2936W        W 3801  16.221   1.445   5.291
 2937W        W 3802  16.767   2.784   5.660
 2938W        W 3803  15.267   2.218   5.892
 2939W        W 3804  14.626   1.746   5.463
 2940W        W 3805  15.662   1.718   6.655
 2941W        W 3806  17.933   1.501   6.909
 2942W        W 3807  15.549   2.945   5.354
 2943W        W 3808  16.670   2.634   6.488
 2944W        W 3809  15.890   1.274   5.713
 2945W        W 3810  16.182   2.058   5.356
 2946W        W 3811  16.258   2.151   7.214
 2947W        W 3812  16.239   1.867   6.692
 2948W        W 3813  14.648   1.258   7.214
 2949W        W 3814  17.480   2.793   6.813
 2950W        W 3815  15.061   0.375   4.811
 2951W        W 3816  15.588   2.633   5.810
 2952W        W 3817  18.051   2.416   5.100
 2953W        W 3818  17.464   0.816   5.667
 2954W        W 3819  17.749   0.769   3.762
 2955W        W 3820  18.214   1.570   6.068
 2956W        W 3821  16.181   3.277   5.821
 2957W        W 3822  17.955   2.743   4.259
 2958W        W 3823  15.084   3.529   4.013
 2959W        W 3824  15.477   3.575   4.689
 2960W        W 3825  15.274   0.329   6.115
 2961W        W 3826  17.897   1.347   6.390
 2962W        W 3827  17.302   1.769   4.849
 2963W        W 3828  17.268   1.457   3.876
 2964W        W 3829  16.476   2.601   6.016
 2965W        W 3830  16.282   0.931   5.215
 2966W        W 3831  16.882   3.018   6.209
 2967W        W 3832  17.753   1.809   4.631
 2968W        W 3833  16.655   0.467   4.647
 2969W        W 3834  15.312   3.161   4.330
 2970W        W 3835  14.683   0.660   4.929
 2971W        W 3836  17.469   1.267   5.403
 2972W        W 3837  14.927   2.884   5.318
 2973W        W 3838  16.268   3.234   4.188
 2974W        W 3839  17.660   1.260   3.652
 2975W        W 3840  14.683   3.018   5.816
 2976W        W 3841  15.474   2.590   6.296
 2977W        W 3842  15.847   1.950   4.915
 2978W        W 3843  15.869   0.355   6.008
 2979W        W 3844  18.098   0.117   5.305
 2980W        W 3845  15.317   1.989   3.773
 2981W        W 3846  14.972   1.022   3.952
 2982W        W 3847  15.034   2.978   4.746
 2983W        W 3848  16.165   2.461   4.994
 2984W        W 3849  17.497   3.320   6.708
 2985W        W 3850  16.423   0.962   4.392
 2986W        W 3851  17.806   3.360   5.164
 2987W        W 3852  17.483   1.213   6.762
 2988W        W 3853  18.196   2.869   4.896
 2989W        W 3854  16.823   2.161   6.380
 2990W        W 3855  14.589   1.712   4.586
 2991W        W 3856  15.700   2.127   6.159
 2992W        W 3857  16.904   1.391   4.537
 2993W        W 3858  16.781   1.881   4.641
 2994W        W 3859  15.124   1.301   6.115
 2995W        W 3860  15.109   1.177   7.037
 2996W        W 3861  14.999   0.094   5.196
 2997W        W 3862  16.767   0.441   5.757
 2998W        W 3863  16.415   0.626   6.920
 2999W        W 3864  16.770   0.775   4.098
 3000W        W 3865  17.953   3.168   6.852
 3001W        W 3866  16.920   0.249   6.891
 3002W        W 3867  17.939   2.550   7.013
 3003W        W 3868  17.369   0.717   6.609
 3004W        W 3869  17.169   0.655   4.879
 3005W        W 3870  17.562   1.789   7.283
 3006W        W 3871  15.302   3.365   5.269
 3007W        W 3872  15.960   1.082   4.255
 3008W        W 3873  15.529   0.366   6.919
 3009W        W 3874  17.581   0.850   4.600
 3010W        W 3875  17.948   1.332   4.545
 3011W        W 3876  15.691   3.549   7.016
 3012W        W 3877  15.617   0.085   4.251
 3013W        W 3878  17.938   0.619   5.286
 3014W        W 3879  18.088   2.868   3.731
 3015W        W 3880  14.995   2.071   5.433
 3016W        W 3881  16.912   0.658   3.663
 3017W        W 3882  18.046   2.990   5.383
 3018W        W 3883  18.085   0.184   6.133
 3019W        W 3884  16.530   1.396   6.687
 3020W        W 3885  16.623   2.735   4.390
 3021W        W 3886  17.023   2.029   7.130
 3022W        W 3887  16.697   0.006   5.439
 3023W        W 3888  15.309   0.909   5.502
 3024W        W 3889  14.863   2.109   6.276
 3025W        W 3890  16.722   3.302   4.982
 3026W        W 3891  17.916   0.899   5.854
 3027W        W 3892  16.553   3.246   6.621
 3028W        W 3893  17.896   2.305   3.826
 3029W        W 3894  16.331   1.788   4.887
 3030W        W 3895  18.183   0.299   6.628
 3031W        W 3896  16.332   2.134   6.222
 3032W        W 3897  16.549   1.020   5.667
 3033W        W 3898  17.401   1.318   4.505
 3034W        W 3899  17.688   1.051   4.147
 3035W        W 3900  17.497   3.091   4.536
 3036W        W 3901  17.331   2.694   5.332
 3037W        W 3902  17.227   1.773   4.310
 3038W        W 3903  16.660   1.983   5.296
 3039W        W 3904  17.541   1.771   5.363
 3040W        W 3905  14.916   0.786   5.787
 3041W        W 3906  17.694   1.838   6.614
 3042W        W 3907  18.045   3.456   5.760
 3043W        W 3908  15.975   2.900   5.162
 3044W        W 3909  16.982   3.433   6.486
 3045W        W 3910  16.976   0.763   6.250
 3046W        W 3911  16.183   3.471   6.311
 3047W        W 3912  17.880   0.425   4.777
 3048W        W 3913  17.671   1.744   6.078
 3049W        W 3914  14.654   1.065   6.116
 3050W        W 3915  17.514   0.860   5.134
 3051W        W 3916  17.925   1.011   6.911
 3052W        W 3917  16.810   2.710   5.129
 3053W        W 3918  16.066   3.301   4.742
 3054W        W 3919  15.181   0.481   4.000
 3055W        W 3920  16.285   0.135   5.810
 3056W        W 3921  15.313   3.255   3.658
 3057W        W 3922  15.687   1.721   4.409
 3058W        W 3923  16.341   2.350   6.722
 3059W        W 3924  16.171   0.708   4.712
 3060W        W 3925  17.527   0.305   5.140
 3061W        W 3926  17.247   3.587   5.468
 3062W        W 3927  16.659   3.235   5.808
 3063W        W 3928  16.055   2.272   5.769
 3064W        W 3929  17.825   2.995   5.895
 3065W        W 3930  15.519   0.498   4.664
 3066W        W 3931  16.041   2.795   5.624
 3067W        W 3932  15.524   0.726   3.689
 3068W        W 3933  16.325   1.335   6.083
 3069W        W 3934  17.173   0.201   5.953
 3070W        W 3935  14.593   2.044   5.838
 3071W        W 3936  16.297   1.862   3.996
 3072W        W 3937  15.565   0.177   3.766
 3073W        W 3938  16.303   1.258   4.817
 3074W        W 3939  17.273   0.234   6.516
 3075W        W 3940  15.861   2.246   6.625
 3076W        W 3941  16.665   2.028   6.842
 3077W        W 3942  17.282   2.058   6.735
 3078W        W 3943  16.566   0.198   7.240
 3079W        W 3944  15.788   0.814   5.633
 3080W        W 3945  15.214   0.770   5.031
 3081W        W 3946  15.000   3.482   4.707
 3082W        W 3947  16.332   2.812   6.832
 3083W        W 3948  15.367   2.297   4.191
 3084W        W 3949  17.047   1.682   5.412
 3085W        W 3950  17.327   1.481   5.811
 3086W        W 3951  16.532   2.155   5.745
 3087W        W 3952  17.002   2.529   3.877
 3088W        W 3953  16.674   0.550   5.205
 3089W        W 3954  18.153   0.828   4.473
 3090W        W 3955  14.647   3.417   6.504
 3091W        W 3956  15.064   2.643   6.036
 3092W        W 3957  14.631   3.489   4.268
 3093W        W 3958  16.530   0.759   6.074
 3094W        W 3959  15.893   2.782   3.923
 3095W        W 3960  17.798   3.164   4.109
 3096W        W 3961  16.773   1.817   4.123
 3097W        W 3962  15.616   1.008   4.640
 3098W        W 3963  16.448   0.918   3.692
 3099W        W 3964  17.032   2.483   6.870
 3100W        W 3965  17.385   0.389   4.487
 3101W        W 3966  14.715   0.237   3.935
 3102W        W 3967  16.001   2.556   6.225
 3103W        W 3968  15.800   2.472   5.317
 3104W        W 3969  15.542   2.424   3.715
 3105W        W 3970  14.783   2.665   4.483
 3106W        W 3971  15.287   1.735   6.925
 3107W        W 3972  15.991   0.295   7.111
 3108W        W 3973  16.700   0.437   6.467
 3109W        W 3974  15.895   0.205   4.748
 3110W        W 3975  16.954   0.282   4.253
 3111W        W 3976  14.899   0.214   5.830
 3112W        W 3977  14.947   1.177   5.200
 3113W        W 3978  17.636   0.285   5.606
 3114W        W 3979  15.058   0.783   4.420
 3115W        W 3980  17.629   0.471   6.036
 3116W        W 3981  18.025   1.674   3.721
 3117W        W 3982  15.317   0.432   5.540
 3118W        W 3983  16.431   1.004   6.480
 3119W        W 3984  14.579   0.694   3.958
 3120W        W 3985  15.365   2.083   6.519
 3121W        W 3986  16.723   1.481   5.698
 3122W        W 3987  16.590   3.560   3.994
 3123W        W 3988  14.736   2.067   3.691
 3124W        W 3989  15.471   2.478   6.817
 3125W        W 3990  14.992   1.645   6.448
 3126W        W 3991  15.983   1.750   6.242
 3127W        W 3992  17.751   0.109   6.504
 3128W        W 3993  18.149   1.719   6.495
 3129W        W 3994  18.137   1.919   4.181
 3130W        W 3995  17.000   2.251   4.280
 3131W        W 3996  17.474   3.551   3.975
 3132W        W 3997  16.651   1.541   7.117
 3133W        W 3998  14.981   2.508   7.157
 3134W        W 3999  18.187   0.430   7.109
 3135W        W 4000  17.905   1.358   5.730
 3136W        W 4001  16.213   3.488   7.207
 3137W        W 4002  16.068   0.117   3.934
 3138W        W 4003  17.607   2.716   3.877
 3139W        W 4004  15.376   0.809   6.763
 3140W        W 4005  15.810   2.803   6.625
 3141W        W 4006  17.936   0.794   6.423
 3142W        W 4007  17.147   3.453   4.391
 3143W        W 4008  17.386   2.072   5.758
 3144W        W 4009  15.636   0.488   6.425
 3145W        W 4010  16.105   1.557   7.182
 3146W        W 4011  15.608   2.736   4.376
 3147W        W 4012  17.363   2.234   4.640
 3148W        W 4013  15.131   0.860   6.364
 3149W        W 4014  16.460   2.922   4.828
 3150W        W 4015  18.210   1.482   5.009
 3151W        W 4016  16.432   0.115   6.728
 3152W        W 4017  17.212   2.820   5.807
 3153W        W 4018  17.515   3.164   5.515
 3154W        W 4019  16.734   2.966   3.943
 3155W        W 4020  14.744   2.858   6.785
 3156W        W 4021  15.487   0.850   6.023
 3157W        W 4022  15.457   0.198   5.133
 3158W        W 4023  17.078   1.040   5.825
 3159W        W 4024  15.876   2.211   4.025
 3160W        W 4025  17.874   2.153   5.524
 3161W        W 4026  15.201   2.911   6.947
 3162W        W 4027  17.588   3.593   4.744
 3163W        W 4028  15.687   0.613   5.189
 3164W        W 4029  15.456   2.106   5.279
 3165W        W 4030  15.769   3.517   6.029
 3166W        W 4031  17.836   3.613   7.061
 3167W        W 4032  16.995   1.801   5.994
 3168W        W 4033  14.844   1.599   3.909
 3169W        W 4034  17.978   3.257   4.606
 3170W        W 4035  17.815   0.581   4.225
 3171W        W 4036  15.954   0.100   6.628
 3172W        W 4037  17.660   2.902   5.086
 3173W        W 4038  17.689   1.458   4.991
 3174W        W 4039  15.806   1.131   5.207
 3175W        W 4040  16.051   1.393   6.531
 3176W        W 4041  17.162   2.546   6.394
 3177W        W 4042  15.812   1.000   6.506
 3178W        W 4043  15.791   3.466   5.122
 3179W        W 4044  15.108   3.425   6.756
 3180W        W 4045  15.220   2.786   3.886
 3181W        W 4046  17.737   2.544   4.696
 3182W        W 4047  15.341   1.336   6.582
 3183W        W 4048  18.114   1.266   4.063
 3184W        W 4049  15.859   2.323   4.534
 3185W        W 4050  16.958   1.705   6.615
 3186W        W 4051  16.849   1.333   6.159
 3187W        W 4052  15.409   1.705   6.188
 3188W        W 4053  17.619   3.593   6.017
 3189W        W 4054  17.410   0.227   7.011
 3190W        W 4055  15.074   0.377   6.598
 3191W        W 4056  15.413   1.400   5.651
 3192W        W 4057  15.782   1.214   3.773
 3193W        W 4058  14.585   2.973   6.318
 3194W        W 4059  16.170   1.682   5.761
 3195W        W 4060  15.993   0.707   3.866
 3196W        W 4061  15.128   1.523   4.647
 3197W        W 4062  14.899   3.375   6.084
 3198W        W 4063  17.694   1.601   4.192
 3199W        W 4064  17.789   0.517   6.878
 3200W        W 4065  17.225   2.726   4.841
 3201W        W 4066  14.823   1.650   7.018
 3202W        W 4067  17.789   0.114   4.314
 3203W        W 4068  17.309   2.589   4.325
 3204W        W 4069  16.211   1.647   4.410
 3205W        W 4070  17.398   0.451   3.933
 3206W        W 4071  17.463   1.058   6.119
 3207W        W 4072  15.172   1.651   5.326
 3208W        W 4073  15.466   2.590   4.975
 3209W        W 4074  17.229   1.210   4.940
 3210W        W 4075  16.252   0.589   5.636
 3211W        W 4076  18.214   2.500   6.147
 3212W        W 4077  18.132   0.487   5.708
 3213W        W 4078  14.671   3.317   5.084
 3214W        W 4079  15.180   2.504   4.620
 3215W        W 4080  15.095   0.121   7.173
 3216W        W 4081  16.214   2.974   7.275
 3217W        W 4082  17.969   1.942   5.065
 3218W        W 4083  17.323   2.119   3.945
 3219W        W 4084  16.618   3.640   6.157
 3220W        W 4085  17.475   2.362   7.194
 3221W        W 4086  16.290   0.072   4.474
 3222W        W 4087  17.003   0.941   5.333
 3223W        W 4088  14.689   2.528   5.665
 3224W        W 4089  15.942   0.490   4.306
 3225W        W 4090  15.746   1.974   7.155
 3226W        W 4091  16.740   0.955   4.869
 3227W        W 4092  16.945   2.365   5.991
 3228W        W 4093  15.099   2.970   6.426
 3229W        W 4094  15.690   2.953   7.149
 3230W        W 4095  15.541   0.750   4.163
 3231W        W 4096  17.058   0.892   4.488
 3232W        W 4097  17.016   3.000   6.725
 3233W        W 4098  15.701   1.592   5.324
 3234W        W 4099  15.356   3.290   6.189
 3235W        W 4100  18.101   3.407   3.790
 3236W        W 4101  14.964   2.079   6.786
 3237W        W 4102  16.959   2.341   5.474
 3238W        W 4103  15.395   1.990   4.716
 3239W        W 4104  15.766   2.997   6.111
 3240W        W 4105  16.144   0.416   5.152
 3241W        W 4106  14.755   2.400   4.082
 3242W        W 4107  16.274   1.351   3.952
 3243W        W 4108  14.920   1.900   4.971
 3244W        W 4109  16.210   0.542   6.435
 3245W        W 4110  17.882   0.251   3.862
 3246W        W 4111  17.975   1.997   6.961
 3247W        W 4112  16.629   3.254   7.113
 3248W        W 4113  18.187   2.348   6.635
 3249W        W 4114  17.595   3.146   7.246
 3250W        W 4115  15.334   3.602   5.724
 3251W        W 4116  18.193   2.224   4.598
 3252W        W 4117  16.723   1.491   5.111
 3253W        W 4118  16.490   0.103   5.001
 3254W        W 4119  15.549   3.087   4.838
 3255W        W 4120  16.048   0.828   6.063
 3256W        W 4121  15.748   0.197   5.532
 3257W        W 4122  14.811   3.019   4.080
 3258W        W 4123  16.627   2.383   4.798
 3259W        W 4124  15.502   3.178   6.677
 3260W        W 4125  14.979   2.001   4.373
 3261W        W 4126  14.864   0.544   5.372
 3262W        W 4127  16.412   2.509   5.429
 3263W        W 4128  14.664   0.363   4.449
 3264W        W 4129  17.328   1.569   6.376
 3265W        W 4130  17.205   0.955   3.948
 3266W        W 4131  17.722   2.627   5.596
 3267W        W 4132  16.383   3.111   5.427
 3268W        W 4133  15.795   3.215   4.338
 3269W        W 4134  17.077   0.118   3.768
 3270W        W 4135  14.877   3.378   5.509
 3271W        W 4136  17.074   1.136   7.144
 3272W        W 4137  15.057   0.666   7.143
 3273W        W 4138  14.788   1.266   4.476
 3274W        W 4139  15.479   1.255   4.201
 3275W        W 4140  17.242   1.582   7.018
 3276W        W 4141  15.585   1.863   5.727
 3277W        W 4142  17.059   0.149   4.847
 3278W        W 4143  16.190   3.580   5.350
 3279W        W 4144  17.404   3.042   6.287
 3280W        W 4145  16.988   3.191   5.398
 3281W        W 4146  17.007   2.171   4.992
 3282W        W 4147  16.469   0.396   4.063
 3283W        W 4148  18.150   0.024   4.785
 3284W        W 4149  15.838   1.659   3.948
 3285W        W 4150  18.004   0.996   4.938
 3286W        W 4151  16.696   2.166   3.815
 3287W        W 4152  17.632   2.366   6.563
 3288W        W 4153  17.286   3.067   4.030
 3289W        W 4154  15.901   0.742   6.936
 3290W        W 4155  15.721   1.326   6.177
 3291W        W 4156  17.813   2.821   6.454
 3292W        W 4157  16.913   0.771   6.831
 3293W        W 4158  14.757   1.242   6.608
 3294W        W 4159  16.517   1.719   6.334
 3295W        W 4160  14.874   2.477   4.991
 3296W        W 4161  15.021   1.774   5.881
 3297W        W 4162  17.338   2.060   6.231
 3298W        W 4163  17.110   3.440   7.042
 3299W        W 4164  17.006   1.179   6.595
 3300W        W 4165  17.283   3.233   5.000
 3301W        W 4166  16.285   2.953   6.323
 3302W        W 4167  15.770   3.308   5.592
 3303W        W 4168  17.575   2.479   6.011
 3304W        W 4169  16.625   2.551   7.148
 3305W        W 4170  15.230   2.504   5.487
 3306W        W 4171  17.576   2.263   5.132
 3307W        W 4172  17.217   3.329   5.883
 3308W        W 4173  15.195   3.058   5.753
 3309W        W 4174  16.216   1.110   6.963
 3310W        W 4175  16.667   3.276   4.474
 3311W        W 4176  15.975   2.531   7.112
 3312W        W 4177  16.101   2.769   4.489
 3313W        W 4178  15.322   1.509   3.748
 3314W        W 4179  14.661   3.595  10.648
 3315W        W 4180  15.037   2.488  10.171
 3316W        W 4181  17.742   2.218   7.941
 3317W        W 4182  17.872   3.303   9.968
 3318W        W 4183  15.790   3.294   7.494
 3319W        W 4184  15.873   1.446   8.477
 3320W        W 4185  15.388   1.294   8.641
 3321W        W 4186  16.379   2.109   8.075
 3322W        W 4187  16.054   3.201  10.430
 3323W        W 4188  14.703   0.762  10.393
 3324W        W 4189  15.465   0.042  10.195
 3325W        W 4190  17.159   0.430   9.082
 3326W        W 4191  16.808   1.301   7.652
 3327W        W 4192  17.378   0.735  10.743
 3328W        W 4193  14.744   0.527   9.868
 3329W        W 4194  14.843   3.146  10.889
 3330W        W 4195  16.365   2.536   7.621
 3331W        W 4196  14.797   1.319   9.314
 3332W        W 4197  15.690   1.210  10.551
 3333W        W 4198  18.149   1.069   9.050
 3334W        W 4199  17.913   2.112   9.909
 3335W        W 4200  16.221   1.445   8.936
 3336W        W 4201  16.767   2.784   9.305
 3337W        W 4202  15.267   2.218   9.537
 3338W        W 4203  14.626   1.746   9.108
 3339W        W 4204  15.662   1.718  10.300
 3340W        W 4205  17.933   1.501  10.554
 3341W        W 4206  15.549   2.945   8.999
 3342W        W 4207  16.670   2.634  10.133
 3343W        W 4208  15.890   1.274   9.358
 3344W        W 4209  16.182   2.058   9.001
 3345W        W 4210  17.179   2.831  10.849
 3346W        W 4211  16.258   2.151  10.859
 3347W        W 4212  16.239   1.867  10.337
 3348W        W 4213  14.648   1.258  10.859
 3349W        W 4214  17.480   2.793  10.458
 3350W        W 4215  15.061   0.375   8.456
 3351W        W 4216  15.588   2.633   9.455
 3352W        W 4217  18.051   2.416   8.745
 3353W        W 4218  17.464   0.816   9.312
 3354W        W 4219  17.749   0.769   7.407
 3355W        W 4220  18.214   1.570   9.713
 3356W        W 4221  16.181   3.277   9.466
 3357W        W 4222  17.955   2.743   7.904
 3358W        W 4223  15.084   3.529   7.658
 3359W        W 4224  15.477   3.575   8.334
 3360W        W 4225  15.274   0.329   9.760
 3361W        W 4226  17.897   1.347  10.035
 3362W        W 4227  17.302   1.769   8.494
 3363W        W 4228  17.268   1.457   7.521
 3364W        W 4229  16.476   2.601   9.661
 3365W        W 4230  16.282   0.931   8.860
 3366W        W 4231  16.882   3.018   9.854
 3367W        W 4232  17.753   1.809   8.276
 3368W        W 4233  16.655   0.467   8.292
 3369W        W 4234  15.312   3.161   7.975
 3370W        W 4235  14.683   0.660   8.574
 3371W        W 4236  17.469   1.267   9.048
 3372W        W 4237  14.927   2.884   8.963
 3373W        W 4238  16.268   3.234   7.833
 3374W        W 4239  17.660   1.260   7.297
 3375W        W 4240  14.683   3.018   9.461
 3376W        W 4241  15.474   2.590   9.941
 3377W        W 4242  15.847   1.950   8.560
 3378W        W 4243  15.869   0.355   9.653
 3379W        W 4244  18.098   0.117   8.950
 3380W        W 4245  15.317   1.989   7.418
 3381W        W 4246  14.972   1.022   7.597
 3382W        W 4247  15.034   2.978   8.391
 3383W        W 4248  16.165   2.461   8.639
 3384W        W 4249  17.497   3.320  10.353
 3385W        W 4250  16.423   0.962   8.037
 3386W        W 4251  17.806   3.360   8.809
 3387W        W 4252  17.483   1.213  10.407
 3388W        W 4253  18.196   2.869   8.541
 3389W        W 4254  16.823   2.161  10.025
 3390W        W 4255  14.589   1.712   8.231
 3391W        W 4256  15.700   2.127   9.804
 3392W        W 4257  16.904   1.391   8.182
 3393W        W 4258  16.781   1.881   8.286
 3394W        W 4259  15.124   1.301   9.760
 3395W        W 4260  15.109   1.177  10.682
 3396W        W 4261  14.999   0.094   8.841
 3397W        W 4262  16.767   0.441   9.402
 3398W        W 4263  16.415   0.626  10.565
 3399W        W 4264  16.770   0.775   7.743
 3400W        W 4265  17.953   3.168  10.497
 3401W        W 4266  16.920   0.249  10.536
 3402W        W 4267  17.939   2.550  10.658
 3403W        W 4268  17.369   0.717  10.254
 3404W        W 4269  17.169   0.655   8.524
 3405W        W 4270  17.562   1.789  10.928
 3406W        W 4271  15.302   3.365   8.914
 3407W        W 4272  15.960   1.082   7.900
 3408W        W 4273  15.529   0.366  10.564
 3409W        W 4274  17.581   0.850   8.245
 3410W        W 4275  17.948   1.332   8.190
 3411W        W 4276  15.691   3.549  10.661
 3412W        W 4277  15.617   0.085   7.896
 3413W        W 4278  17.938   0.619   8.931
 3414W        W 4279  18.088   2.868   7.376
 3415W        W 4280  14.995   2.071   9.078
 3416W        W 4281  16.912   0.658   7.308
 3417W        W 4282  18.046   2.990   9.028
 3418W        W 4283  18.085   0.184   9.778
 3419W        W 4284  16.530   1.396  10.332
 3420W        W 4285  16.623   2.735   8.035
 3421W        W 4286  17.023   2.029  10.775
 3422W        W 4287  16.697   0.006   9.084
 3423W        W 4288  15.309   0.909   9.147
 3424W        W 4289  14.863   2.109   9.921
 3425W        W 4290  16.722   3.302   8.627
 3426W        W 4291  17.916   0.899   9.499
 3427W        W 4292  16.553   3.246  10.266
 3428W        W 4293  17.896   2.305   7.471
 3429W        W 4294  16.331   1.788   8.532
 3430W        W 4295  18.183   0.299  10.273
 3431W        W 4296  16.332   2.134   9.867
 3432W        W 4297  16.549   1.020   9.312
 3433W        W 4298  17.401   1.318   8.150
 3434W        W 4299  17.688   1.051   7.792
 3435W        W 4300  17.497   3.091   8.181
 3436W        W 4301  17.331   2.694   8.977
 3437W        W 4302  17.227   1.773   7.955
 3438W        W 4303  16.660   1.983   8.941
 3439W        W 4304  17.541   1.771   9.008
 3440W        W 4305  14.916   0.786   9.432
 3441W        W 4306  17.694   1.838  10.259
 3442W        W 4307  18.045   3.456   9.405
 3443W        W 4308  15.975   2.900   8.807
 3444W        W 4309  16.982   3.433  10.131
 3445W        W 4310  16.976   0.763   9.895
 3446W        W 4311  16.183   3.471   9.956
 3447W        W 4312  17.880   0.425   8.422
 3448W        W 4313  17.671   1.744   9.723
 3449W        W 4314  14.654   1.065   9.761
 3450W        W 4315  17.514   0.860   8.779
 3451W        W 4316  17.925   1.011  10.556
 3452W        W 4317  16.810   2.710   8.774
 3453W        W 4318  16.066   3.301   8.387
 3454W        W 4319  15.181   0.481   7.645
 3455W        W 4320  16.285   0.135   9.455
 3456W        W 4321  15.313   3.255   7.303
 3457W        W 4322  15.687   1.721   8.054
 3458W        W 4323  16.341   2.350  10.367
 3459W        W 4324  16.171   0.708   8.357
 3460W        W 4325  17.527   0.305   8.785
 3461W        W 4326  17.247   3.587   9.113
 3462W        W 4327  16.659   3.235   9.453
 3463W        W 4328  16.055   2.272   9.414
 3464W        W 4329  17.825   2.995   9.540
 3465W        W 4330  15.519   0.498   8.309
 3466W        W 4331  16.041   2.795   9.269
 3467W        W 4332  15.524   0.726   7.334
 3468W        W 4333  16.325   1.335   9.728
 3469W        W 4334  17.173   0.201   9.598
 3470W        W 4335  14.593   2.044   9.483
 3471W        W 4336  16.297   1.862   7.641
 3472W        W 4337  15.565   0.177   7.411
 3473W        W 4338  16.303   1.258   8.462
 3474W        W 4339  17.273   0.234  10.161
 3475W        W 4340  15.861   2.246  10.270
 3476W        W 4341  16.665   2.028  10.487
 3477W        W 4342  17.282   2.058  10.380
 3478W        W 4343  16.566   0.198  10.885
 3479W        W 4344  15.788   0.814   9.278
 3480W        W 4345  15.214   0.770   8.676
 3481W        W 4346  15.000   3.482   8.352
 3482W        W 4347  16.332   2.812  10.477
 3483W        W 4348  15.367   2.297   7.836
 3484W        W 4349  17.047   1.682   9.057
 3485W        W 4350  17.327   1.481   9.456
 3486W        W 4351  16.532   2.155   9.390
 3487W        W 4352  17.002   2.529   7.522
 3488W        W 4353  16.674   0.550   8.850
 3489W        W 4354  18.153   0.828   8.118
 3490W        W 4355  14.647   3.417  10.149
 3491W        W 4356  15.064   2.643   9.681
 3492W        W 4357  14.631   3.489   7.913
 3493W        W 4358  16.530   0.759   9.719
 3494W        W 4359  15.893   2.782   7.568
 3495W        W 4360  17.798   3.164   7.754
 3496W        W 4361  16.773   1.817   7.768
 3497W        W 4362  15.616   1.008   8.285
 3498W        W 4363  16.448   0.918   7.337
 3499W        W 4364  17.032   2.483  10.515
 3500W        W 4365  17.385   0.389   8.132
 3501W        W 4366  14.715   0.237   7.580
 3502W        W 4367  16.001   2.556   9.870
 3503W        W 4368  15.800   2.472   8.962
 3504W        W 4369  15.542   2.424   7.360
 3505W        W 4370  14.783   2.665   8.128
 3506W        W 4371  15.287   1.735  10.570
 3507W        W 4372  15.991   0.295  10.756
 3508W        W 4373  16.700   0.437  10.112
 3509W        W 4374  15.895   0.205   8.393
 3510W        W 4375  16.954   0.282   7.898
 3511W        W 4376  14.899   0.214   9.475
 3512W        W 4377  14.947   1.177   8.845
 3513W        W 4378  17.636   0.285   9.251
 3514W        W 4379  15.058   0.783   8.065
 3515W        W 4380  17.629   0.471   9.681
 3516W        W 4381  18.025   1.674   7.366
 3517W        W 4382  15.317   0.432   9.185
 3518W        W 4383  16.431   1.004  10.125
 3519W        W 4384  14.579   0.694   7.603
 3520W        W 4385  15.365   2.083  10.164
 3521W        W 4386  16.723   1.481   9.343
 3522W        W 4387  16.590   3.560   7.639
 3523W        W 4388  14.736   2.067   7.336
 3524W        W 4389  15.471   2.478  10.462
 3525W        W 4390  14.992   1.645  10.093
 3526W        W 4391  15.983   1.750   9.887
 3527W        W 4392  17.751   0.109  10.149
 3528W        W 4393  18.149   1.719  10.140
 3529W        W 4394  18.137   1.919   7.826
 3530W        W 4395  17.000   2.251   7.925
 3531W        W 4396  17.474   3.551   7.620
 3532W        W 4397  16.651   1.541  10.762
 3533W        W 4398  14.981   2.508  10.802
 3534W        W 4399  18.187   0.430  10.754
 3535W        W 4400  17.905   1.358   9.375
 3536W        W 4401  16.213   3.488  10.852
 3537W        W 4402  16.068   0.117   7.579
 3538W        W 4403  17.607   2.716   7.522
 3539W        W 4404  15.376   0.809  10.408
 3540W        W 4405  15.810   2.803  10.270
 3541W        W 4406  17.936   0.794  10.068
 3542W        W 4407  17.147   3.453   8.036
 3543W        W 4408  17.386   2.072   9.403
 3544W        W 4409  15.636   0.488  10.070
 3545W        W 4410  16.105   1.557  10.827
 3546W        W 4411  15.608   2.736   8.021
 3547W        W 4412  17.363   2.234   8.285
 3548W        W 4413  15.131   0.860  10.009
 3549W        W 4414  16.460   2.922   8.473
 3550W        W 4415  18.210   1.482   8.654
 3551W        W 4416  16.432   0.115  10.373
 3552W        W 4417  17.212   2.820   9.452
 3553W        W 4418  17.515   3.164   9.160
 3554W        W 4419  14.744   2.858  10.430
 3555W        W 4420  15.487   0.850   9.668
 3556W        W 4421  15.457   0.198   8.778
 3557W        W 4422  17.078   1.040   9.470
 3558W        W 4423  15.876   2.211   7.670
 3559W        W 4424  17.874   2.153   9.169
 3560W        W 4425  15.201   2.911  10.592
 3561W        W 4426  17.588   3.593   8.389
 3562W        W 4427  15.687   0.613   8.834
 3563W        W 4428  15.456   2.106   8.924
 3564W        W 4429  15.769   3.517   9.674
 3565W        W 4430  17.836   3.613  10.706
 3566W        W 4431  16.995   1.801   9.639
 3567W        W 4432  14.844   1.599   7.554
 3568W        W 4433  17.978   3.257   8.251
 3569W        W 4434  17.815   0.581   7.870
 3570W        W 4435  15.954   0.100  10.273
 3571W        W 4436  17.660   2.902   8.731
 3572W        W 4437  17.689   1.458   8.636
 3573W        W 4438  15.806   1.131   8.852
 3574W        W 4439  16.051   1.393  10.176
 3575W        W 4440  17.162   2.546  10.039
 3576W        W 4441  15.812   1.000  10.151
 3577W        W 4442  15.791   3.466   8.767
 3578W        W 4443  15.108   3.425  10.401
 3579W        W 4444  15.220   2.786   7.531
 3580W        W 4445  17.737   2.544   8.341
 3581W        W 4446  15.341   1.336  10.227
 3582W        W 4447  18.114   1.266   7.708
 3583W        W 4448  15.859   2.323   8.179
 3584W        W 4449  16.958   1.705  10.260
 3585W        W 4450  16.849   1.333   9.804
 3586W        W 4451  15.409   1.705   9.833
 3587W        W 4452  17.619   3.593   9.662
 3588W        W 4453  17.410   0.227  10.656
 3589W        W 4454  15.074   0.377  10.243
 3590W        W 4455  15.413   1.400   9.296
 3591W        W 4456  15.782   1.214   7.418
 3592W        W 4457  14.585   2.973   9.963
 3593W        W 4458  16.170   1.682   9.406
 3594W        W 4459  15.993   0.707   7.511
 3595W        W 4460  15.128   1.523   8.292
 3596W        W 4461  14.899   3.375   9.729
 3597W        W 4462  17.694   1.601   7.837
 3598W        W 4463  17.789   0.517  10.523
 3599W        W 4464  17.225   2.726   8.486
 3600W        W 4465  14.823   1.650  10.663
 3601W        W 4466  17.789   0.114   7.959
 3602W        W 4467  17.309   2.589   7.970
 3603W        W 4468  16.211   1.647   8.055
 3604W        W 4469  17.398   0.451   7.578
 3605W        W 4470  17.463   1.058   9.764
 3606W        W 4471  15.172   1.651   8.971
 3607W        W 4472  15.466   2.590   8.620
 3608W        W 4473  17.229   1.210   8.585
 3609W        W 4474  16.252   0.589   9.281
 3610W        W 4475  18.214   2.500   9.792
 3611W        W 4476  18.132   0.487   9.353
 3612W        W 4477  14.671   3.317   8.729
 3613W        W 4478  15.180   2.504   8.265
 3614W        W 4479  15.095   0.121  10.818
 3615W        W 4480  16.214   2.974  10.920
 3616W        W 4481  17.969   1.942   8.710
 3617W        W 4482  17.323   2.119   7.590
 3618W        W 4483  16.618   3.640   9.802
 3619W        W 4484  17.475   2.362  10.839
 3620W        W 4485  16.290   0.072   8.119
 3621W        W 4486  17.003   0.941   8.978
 3622W        W 4487  14.689   2.528   9.310
 3623W        W 4488  15.942   0.490   7.951
 3624W        W 4489  15.746   1.974  10.800
 3625W        W 4490  16.740   0.955   8.514
 3626W        W 4491  16.945   2.365   9.636
 3627W        W 4492  15.099   2.970  10.071
 3628W        W 4493  15.690   2.953  10.794
 3629W        W 4494  15.541   0.750   7.808
 3630W        W 4495  17.058   0.892   8.133
 3631W        W 4496  17.016   3.000  10.370
 3632W        W 4497  15.701   1.592   8.969
 3633W        W 4498  15.356   3.290   9.834
 3634W        W 4499  18.101   3.407   7.435
 3635W        W 4500  14.964   2.079  10.431
 3636W        W 4501  16.959   2.341   9.119
 3637W        W 4502  15.395   1.990   8.361
 3638W        W 4503  15.766   2.997   9.756
 3639W        W 4504  16.144   0.416   8.797
 3640W        W 4505  14.755   2.400   7.727
 3641W        W 4506  16.274   1.351   7.597
 3642W        W 4507  14.920   1.900   8.616
 3643W        W 4508  16.210   0.542  10.080
 3644W        W 4509  17.882   0.251   7.507
 3645W        W 4510  17.975   1.997  10.606
 3646W        W 4511  16.629   3.254  10.758
 3647W        W 4512  18.187   2.348  10.280
 3648W        W 4513  17.595   3.146  10.891
 3649W        W 4514  15.334   3.602   9.369
 3650W        W 4515  18.193   2.224   8.243
 3651W        W 4516  16.723   1.491   8.756
 3652W        W 4517  16.490   0.103   8.646
 3653W        W 4518  15.549   3.087   8.483
 3654W        W 4519  16.048   0.828   9.708
 3655W        W 4520  15.748   0.197   9.177
 3656W        W 4521  14.811   3.019   7.725
 3657W        W 4522  16.627   2.383   8.443
 3658W        W 4523  15.502   3.178  10.322
 3659W        W 4524  14.979   2.001   8.018
 3660W        W 4525  14.864   0.544   9.017
 3661W        W 4526  16.412   2.509   9.074
 3662W        W 4527  14.664   0.363   8.094
 3663W        W 4528  17.328   1.569  10.021
 3664W        W 4529  17.205   0.955   7.593
 3665W        W 4530  17.722   2.627   9.241
 3666W        W 4531  16.383   3.111   9.072
 3667W        W 4532  15.795   3.215   7.983
 3668W        W 4533  17.077   0.118   7.413
 3669W        W 4534  14.877   3.378   9.154
 3670W        W 4535  17.074   1.136  10.789
 3671W        W 4536  15.057   0.666  10.788
 3672W        W 4537  14.788   1.266   8.121
 3673W        W 4538  15.479   1.255   7.846
 3674W        W 4539  17.242   1.582  10.663
 3675W        W 4540  15.585   1.863   9.372
 3676W        W 4541  17.059   0.149   8.492
 3677W        W 4542  16.190   3.580   8.995
 3678W        W 4543  17.404   3.042   9.932
 3679W        W 4544  16.988   3.191   9.043
 3680W        W 4545  17.007   2.171   8.637
 3681W        W 4546  16.469   0.396   7.708
 3682W        W 4547  18.150   0.024   8.430
 3683W        W 4548  15.838   1.659   7.593
 3684W        W 4549  18.004   0.996   8.583
 3685W        W 4550  16.696   2.166   7.460
 3686W        W 4551  17.632   2.366  10.208
 3687W        W 4552  17.286   3.067   7.675
 3688W        W 4553  15.901   0.742  10.581
 3689W        W 4554  15.721   1.326   9.822
 3690W        W 4555  17.813   2.821  10.099
 3691W        W 4556  16.913   0.771  10.476
 3692W        W 4557  14.757   1.242  10.253
 3693W        W 4558  16.517   1.719   9.979
 3694W        W 4559  14.874   2.477   8.636
 3695W        W 4560  15.021   1.774   9.526
 3696W        W 4561  17.338   2.060   9.876
 3697W        W 4562  17.110   3.440  10.687
 3698W        W 4563  17.006   1.179  10.240
 3699W        W 4564  17.283   3.233   8.645
 3700W        W 4565  16.285   2.953   9.968
 3701W        W 4566  15.770   3.308   9.237
 3702W        W 4567  17.575   2.479   9.656
 3703W        W 4568  16.625   2.551  10.793
 3704W        W 4569  15.230   2.504   9.132
 3705W        W 4570  17.576   2.263   8.777
 3706W        W 4571  17.217   3.329   9.528
 3707W        W 4572  15.195   3.058   9.398
 3708W        W 4573  16.216   1.110  10.608
 3709W        W 4574  16.667   3.276   8.119
 3710W        W 4575  15.975   2.531  10.757
 3711W        W 4576  16.101   2.769   8.134
 3712W        W 4577  15.322   1.509   7.393
 3713W        W 4578  14.661   3.595  14.292
 3714W        W 4579  15.037   2.488  13.815
 3715W        W 4580  17.742   2.218  11.585
 3716W        W 4581  17.872   3.303  13.612
 3717W        W 4582  15.790   3.294  11.138
 3718W        W 4583  15.873   1.446  12.121
 3719W        W 4584  15.388   1.294  12.285
 3720W        W 4585  16.379   2.109  11.719
 3721W        W 4586  16.054   3.201  14.074
 3722W        W 4587  14.703   0.762  14.037
 3723W        W 4588  15.465   0.042  13.839
 3724W        W 4589  17.159   0.430  12.726
 3725W        W 4590  16.808   1.301  11.296
 3726W        W 4591  17.378   0.735  14.387
 3727W        W 4592  14.744   0.527  13.512
 3728W        W 4593  14.843   3.146  14.533
 3729W        W 4594  16.365   2.536  11.265
 3730W        W 4595  14.797   1.319  12.958
 3731W        W 4596  15.690   1.210  14.195
 3732W        W 4597  18.149   1.069  12.694
 3733W        W 4598  17.913   2.112  13.553
 3734W        W 4599  16.221   1.445  12.580
 3735W        W 4600  16.767   2.784  12.949
 3736W        W 4601  15.267   2.218  13.181
 3737W        W 4602  14.626   1.746  12.752
 3738W        W 4603  15.662   1.718  13.944
 3739W        W 4604  17.933   1.501  14.198
 3740W        W 4605  15.549   2.945  12.643
 3741W        W 4606  16.670   2.634  13.777
 3742W        W 4607  15.890   1.274  13.002
 3743W        W 4608  16.182   2.058  12.645
 3744W        W 4609  17.179   2.831  14.493
 3745W        W 4610  16.258   2.151  14.503
 3746W        W 4611  16.239   1.867  13.981
 3747W        W 4612  14.648   1.258  14.503
 3748W        W 4613  17.480   2.793  14.102
 3749W        W 4614  15.061   0.375  12.100
 3750W        W 4615  15.588   2.633  13.099
 3751W        W 4616  18.051   2.416  12.389
 3752W        W 4617  17.464   0.816  12.956
 3753W        W 4618  17.749   0.769  11.051
 3754W        W 4619  18.214   1.570  13.357
 3755W        W 4620  16.181   3.277  13.110
 3756W        W 4621  17.955   2.743  11.548
 3757W        W 4622  15.084   3.529  11.302
 3758W        W 4623  15.477   3.575  11.978
 3759W        W 4624  15.274   0.329  13.404
 3760W        W 4625  17.897   1.347  13.679
 3761W        W 4626  17.302   1.769  12.138
 3762W        W 4627  17.268   1.457  11.165
 3763W        W 4628  16.476   2.601  13.305
 3764W        W 4629  16.282   0.931  12.504
 3765W        W 4630  16.882   3.018  13.498
 3766W        W 4631  17.753   1.809  11.920
 3767W        W 4632  16.655   0.467  11.936
 3768W        W 4633  15.312   3.161  11.619
 3769W        W 4634  14.683   0.660  12.218
 3770W        W 4635  17.469   1.267  12.692
 3771W        W 4636  14.927   2.884  12.607
 3772W        W 4637  16.268   3.234  11.477
 3773W        W 4638  17.660   1.260  10.941
 3774W        W 4639  14.683   3.018  13.105
 3775W        W 4640  15.474   2.590  13.585
 3776W        W 4641  15.847   1.950  12.204
 3777W        W 4642  15.869   0.355  13.297
 3778W        W 4643  18.098   0.117  12.594
 3779W        W 4644  15.317   1.989  11.062
 3780W        W 4645  14.972   1.022  11.241
 3781W        W 4646  15.034   2.978  12.035
 3782W        W 4647  16.165   2.461  12.283
 3783W        W 4648  17.497   3.320  13.997
 3784W        W 4649  16.423   0.962  11.681
 3785W        W 4650  17.806   3.360  12.453
 3786W        W 4651  17.483   1.213  14.051
 3787W        W 4652  18.196   2.869  12.185
 3788W        W 4653  16.823   2.161  13.669
 3789W        W 4654  14.589   1.712  11.875
 3790W        W 4655  15.700   2.127  13.448
 3791W        W 4656  16.904   1.391  11.826
 3792W        W 4657  16.781   1.881  11.930
 3793W        W 4658  15.124   1.301  13.404
 3794W        W 4659  15.109   1.177  14.326
 3795W        W 4660  14.999   0.094  12.485
 3796W        W 4661  16.767   0.441  13.046
 3797W        W 4662  16.415   0.626  14.209
 3798W        W 4663  16.770   0.775  11.387
 3799W        W 4664  17.953   3.168  14.141
 3800W        W 4665  16.920   0.249  14.180
 3801W        W 4666  17.939   2.550  14.302
 3802W        W 4667  17.369   0.717  13.898
 3803W        W 4668  17.169   0.655  12.168
 3804W        W 4669  17.562   1.789  14.572
 3805W        W 4670  15.302   3.365  12.558
 3806W        W 4671  15.960   1.082  11.544
 3807W        W 4672  15.529   0.366  14.208
 3808W        W 4673  17.581   0.850  11.889
 3809W        W 4674  17.948   1.332  11.834
 3810W        W 4675  15.617   0.085  11.540
 3811W        W 4676  17.938   0.619  12.575
 3812W        W 4677  18.088   2.868  11.020
 3813W        W 4678  14.995   2.071  12.722
 3814W        W 4679  16.912   0.658  10.952
 3815W        W 4680  18.046   2.990  12.672
 3816W        W 4681  18.085   0.184  13.422
 3817W        W 4682  16.530   1.396  13.976
 3818W        W 4683  16.623   2.735  11.679
 3819W        W 4684  17.023   2.029  14.419
 3820W        W 4685  16.697   0.006  12.728
 3821W        W 4686  15.309   0.909  12.791
 3822W        W 4687  14.863   2.109  13.565
 3823W        W 4688  16.722   3.302  12.271
 3824W        W 4689  17.916   0.899  13.143
 3825W        W 4690  16.553   3.246  13.910
 3826W        W 4691  17.896   2.305  11.115
 3827W        W 4692  16.331   1.788  12.176
 3828W        W 4693  18.183   0.299  13.917
 3829W        W 4694  16.332   2.134  13.511
 3830W        W 4695  16.549   1.020  12.956
 3831W        W 4696  17.401   1.318  11.794
 3832W        W 4697  17.688   1.051  11.436
 3833W        W 4698  17.497   3.091  11.825
 3834W        W 4699  17.331   2.694  12.621
 3835W        W 4700  17.227   1.773  11.599
 3836W        W 4701  16.660   1.983  12.585
 3837W        W 4702  17.541   1.771  12.652
 3838W        W 4703  14.916   0.786  13.076
 3839W        W 4704  17.694   1.838  13.903
 3840W        W 4705  18.045   3.456  13.049
 3841W        W 4706  15.975   2.900  12.451
 3842W        W 4707  16.982   3.433  13.775
 3843W        W 4708  16.976   0.763  13.539
 3844W        W 4709  16.183   3.471  13.600
 3845W        W 4710  17.880   0.425  12.066
 3846W        W 4711  17.671   1.744  13.367
 3847W        W 4712  14.654   1.065  13.405
 3848W        W 4713  17.514   0.860  12.423
 3849W        W 4714  17.925   1.011  14.200
 3850W        W 4715  16.810   2.710  12.418
 3851W        W 4716  16.066   3.301  12.031
 3852W        W 4717  15.181   0.481  11.289
 3853W        W 4718  16.285   0.135  13.099
 3854W        W 4719  15.313   3.255  10.947
 3855W        W 4720  15.687   1.721  11.698
 3856W        W 4721  16.341   2.350  14.011
 3857W        W 4722  16.171   0.708  12.001
 3858W        W 4723  17.527   0.305  12.429
 3859W        W 4724  17.247   3.587  12.757
 3860W        W 4725  16.659   3.235  13.097
 3861W        W 4726  16.055   2.272  13.058
 3862W        W 4727  17.825   2.995  13.184
 3863W        W 4728  15.519   0.498  11.953
 3864W        W 4729  16.041   2.795  12.913
 3865W        W 4730  15.524   0.726  10.978
 3866W        W 4731  16.325   1.335  13.372
 3867W        W 4732  17.173   0.201  13.242
 3868W        W 4733  14.593   2.044  13.127
 3869W        W 4734  16.297   1.862  11.285
 3870W        W 4735  15.565   0.177  11.055
 3871W        W 4736  16.303   1.258  12.106
 3872W        W 4737  17.273   0.234  13.805
 3873W        W 4738  15.861   2.246  13.914
 3874W        W 4739  16.665   2.028  14.131
 3875W        W 4740  17.282   2.058  14.024
 3876W        W 4741  16.566   0.198  14.529
 3877W        W 4742  15.788   0.814  12.922
 3878W        W 4743  15.214   0.770  12.320
 3879W        W 4744  15.000   3.482  11.996
 3880W        W 4745  16.332   2.812  14.121
 3881W        W 4746  15.367   2.297  11.480
 3882W        W 4747  17.047   1.682  12.701
 3883W        W 4748  17.327   1.481  13.100
 3884W        W 4749  16.532   2.155  13.034
 3885W        W 4750  17.002   2.529  11.166
 3886W        W 4751  16.674   0.550  12.494
 3887W        W 4752  18.153   0.828  11.762
 3888W        W 4753  14.647   3.417  13.793
 3889W        W 4754  15.064   2.643  13.325
 3890W        W 4755  14.631   3.489  11.557
 3891W        W 4756  16.530   0.759  13.363
 3892W        W 4757  15.893   2.782  11.212
 3893W        W 4758  17.798   3.164  11.398
 3894W        W 4759  16.773   1.817  11.412
 3895W        W 4760  15.616   1.008  11.929
 3896W        W 4761  16.448   0.918  10.981
 3897W        W 4762  17.032   2.483  14.159
 3898W        W 4763  17.385   0.389  11.776
 3899W        W 4764  14.715   0.237  11.224
 3900W        W 4765  16.001   2.556  13.514
 3901W        W 4766  15.800   2.472  12.606
 3902W        W 4767  15.542   2.424  11.004
 3903W        W 4768  14.783   2.665  11.772
 3904W        W 4769  15.287   1.735  14.214
 3905W        W 4770  15.991   0.295  14.400
 3906W        W 4771  16.700   0.437  13.756
 3907W        W 4772  15.895   0.205  12.037
 3908W        W 4773  16.954   0.282  11.542
 3909W        W 4774  14.899   0.214  13.119
 3910W        W 4775  14.947   1.177  12.489
 3911W        W 4776  17.636   0.285  12.895
 3912W        W 4777  15.058   0.783  11.709
 3913W        W 4778  17.629   0.471  13.325
 3914W        W 4779  18.025   1.674  11.010
 3915W        W 4780  15.317   0.432  12.829
 3916W        W 4781  16.431   1.004  13.769
 3917W        W 4782  14.579   0.694  11.247
 3918W        W 4783  15.365   2.083  13.808
 3919W        W 4784  16.723   1.481  12.987
 3920W        W 4785  16.590   3.560  11.283
 3921W        W 4786  14.736   2.067  10.980
 3922W        W 4787  15.471   2.478  14.106
 3923W        W 4788  14.992   1.645  13.737
 3924W        W 4789  15.983   1.750  13.531
 3925W        W 4790  17.751   0.109  13.793
 3926W        W 4791  18.149   1.719  13.784
 3927W        W 4792  18.137   1.919  11.470
 3928W        W 4793  17.000   2.251  11.569
 3929W        W 4794  17.474   3.551  11.264
 3930W        W 4795  16.651   1.541  14.406
 3931W        W 4796  14.981   2.508  14.446
 3932W        W 4797  18.187   0.430  14.398
 3933W        W 4798  17.905   1.358  13.019
 3934W        W 4799  16.213   3.488  14.496
 3935W        W 4800  16.068   0.117  11.223
 3936W        W 4801  17.607   2.716  11.166
 3937W        W 4802  15.376   0.809  14.052
 3938W        W 4803  15.810   2.803  13.914
 3939W        W 4804  17.936   0.794  13.712
 3940W        W 4805  17.147   3.453  11.680
 3941W        W 4806  17.386   2.072  13.047
 3942W        W 4807  15.636   0.488  13.714
 3943W        W 4808  16.105   1.557  14.471
 3944W        W 4809  15.608   2.736  11.665
 3945W        W 4810  17.363   2.234  11.929
 3946W        W 4811  15.131   0.860  13.653
 3947W        W 4812  16.460   2.922  12.117
 3948W        W 4813  18.210   1.482  12.298
 3949W        W 4814  16.432   0.115  14.017
 3950W        W 4815  17.212   2.820  13.096
 3951W        W 4816  17.515   3.164  12.804
 3952W        W 4817  16.734   2.966  11.232
 3953W        W 4818  14.744   2.858  14.074
 3954W        W 4819  15.487   0.850  13.312
 3955W        W 4820  15.457   0.198  12.422
 3956W        W 4821  17.078   1.040  13.114
 3957W        W 4822  15.876   2.211  11.314
 3958W        W 4823  17.874   2.153  12.813
 3959W        W 4824  15.201   2.911  14.236
 3960W        W 4825  17.588   3.593  12.033
 3961W        W 4826  15.687   0.613  12.478
 3962W        W 4827  15.456   2.106  12.568
 3963W        W 4828  15.769   3.517  13.318
 3964W        W 4829  17.836   3.613  14.350
 3965W        W 4830  16.995   1.801  13.283
 3966W        W 4831  14.844   1.599  11.198
 3967W        W 4832  17.978   3.257  11.895
 3968W        W 4833  17.815   0.581  11.514
 3969W        W 4834  15.954   0.100  13.917
 3970W        W 4835  17.660   2.902  12.375
 3971W        W 4836  17.689   1.458  12.280
 3972W        W 4837  15.806   1.131  12.496
 3973W        W 4838  16.051   1.393  13.820
 3974W        W 4839  17.162   2.546  13.683
 3975W        W 4840  15.812   1.000  13.795
 3976W        W 4841  15.791   3.466  12.411
 3977W        W 4842  15.108   3.425  14.045
 3978W        W 4843  15.220   2.786  11.175
 3979W        W 4844  17.737   2.544  11.985
 3980W        W 4845  15.341   1.336  13.871
 3981W        W 4846  18.114   1.266  11.352
 3982W        W 4847  15.859   2.323  11.823
 3983W        W 4848  16.958   1.705  13.904
 3984W        W 4849  16.849   1.333  13.448
 3985W        W 4850  15.409   1.705  13.477
 3986W        W 4851  17.619   3.593  13.306
 3987W        W 4852  17.410   0.227  14.300
 3988W        W 4853  15.074   0.377  13.887
 3989W        W 4854  15.413   1.400  12.940
 3990W        W 4855  15.782   1.214  11.062
 3991W        W 4856  14.585   2.973  13.607
 3992W        W 4857  16.170   1.682  13.050
 3993W        W 4858  15.993   0.707  11.155
 3994W        W 4859  15.128   1.523  11.936
 3995W        W 4860  14.899   3.375  13.373
 3996W        W 4861  17.694   1.601  11.481
 3997W        W 4862  17.789   0.517  14.167
 3998W        W 4863  17.225   2.726  12.130
 3999W        W 4864  14.823   1.650  14.307
 4000W        W 4865  17.789   0.114  11.603
 4001W        W 4866  17.309   2.589  11.614
 4002W        W 4867  16.211   1.647  11.699
 4003W        W 4868  17.398   0.451  11.222
 4004W        W 4869  17.463   1.058  13.408
 4005W        W 4870  15.172   1.651  12.615
 4006W        W 4871  15.466   2.590  12.264
 4007W        W 4872  17.229   1.210  12.229
 4008W        W 4873  16.252   0.589  12.925
 4009W        W 4874  18.214   2.500  13.436
 4010W        W 4875  18.132   0.487  12.997
 4011W        W 4876  14.671   3.317  12.373
 4012W        W 4877  15.180   2.504  11.909
 4013W        W 4878  15.095   0.121  14.462
 4014W        W 4879  16.214   2.974  14.564
 4015W        W 4880  17.969   1.942  12.354
 4016W        W 4881  17.323   2.119  11.234
 4017W        W 4882  16.618   3.640  13.446
 4018W        W 4883  17.475   2.362  14.483
 4019W        W 4884  16.290   0.072  11.763
 4020W        W 4885  17.003   0.941  12.622
 4021W        W 4886  14.689   2.528  12.954
 4022W        W 4887  15.942   0.490  11.595
 4023W        W 4888  15.746   1.974  14.444
 4024W        W 4889  16.740   0.955  12.158
 4025W        W 4890  16.945   2.365  13.280
 4026W        W 4891  15.099   2.970  13.715
 4027W        W 4892  15.690   2.953  14.438
 4028W        W 4893  15.541   0.750  11.452
 4029W        W 4894  17.058   0.892  11.777
 4030W        W 4895  17.016   3.000  14.014
 4031W        W 4896  15.701   1.592  12.613
 4032W        W 4897  15.356   3.290  13.478
 4033W        W 4898  18.101   3.407  11.079
 4034W        W 4899  14.964   2.079  14.075
 4035W        W 4900  16.959   2.341  12.763
 4036W        W 4901  15.395   1.990  12.005
 4037W        W 4902  15.766   2.997  13.400
 4038W        W 4903  16.144   0.416  12.441
 4039W        W 4904  14.755   2.400  11.371
 4040W        W 4905  16.274   1.351  11.241
 4041W        W 4906  14.920   1.900  12.260
 4042W        W 4907  16.210   0.542  13.724
 4043W        W 4908  17.882   0.251  11.151
 4044W        W 4909  17.975   1.997  14.250
 4045W        W 4910  16.629   3.254  14.402
 4046W        W 4911  18.187   2.348  13.924
 4047W        W 4912  17.595   3.146  14.535
 4048W        W 4913  15.334   3.602  13.013
 4049W        W 4914  18.193   2.224  11.887
 4050W        W 4915  16.723   1.491  12.400
 4051W        W 4916  16.490   0.103  12.290
 4052W        W 4917  15.549   3.087  12.127
 4053W        W 4918  16.048   0.828  13.352
 4054W        W 4919  15.748   0.197  12.821
 4055W        W 4920  14.811   3.019  11.369
 4056W        W 4921  16.627   2.383  12.087
 4057W        W 4922  15.502   3.178  13.966
 4058W        W 4923  14.979   2.001  11.662
 4059W        W 4924  14.864   0.544  12.661
 4060W        W 4925  16.412   2.509  12.718
 4061W        W 4926  14.664   0.363  11.738
 4062W        W 4927  17.328   1.569  13.665
 4063W        W 4928  17.205   0.955  11.237
 4064W        W 4929  17.722   2.627  12.885
 4065W        W 4930  16.383   3.111  12.716
 4066W        W 4931  15.795   3.215  11.627
 4067W        W 4932  17.077   0.118  11.057
 4068W        W 4933  14.877   3.378  12.798
 4069W        W 4934  17.074   1.136  14.433
 4070W        W 4935  15.057   0.666  14.432
 4071W        W 4936  14.788   1.266  11.765
 4072W        W 4937  15.479   1.255  11.490
 4073W        W 4938  17.242   1.582  14.307
 4074W        W 4939  15.585   1.863  13.016
 4075W        W 4940  17.059   0.149  12.136
 4076W        W 4941  16.190   3.580  12.639
 4077W        W 4942  17.404   3.042  13.576
 4078W        W 4943  16.988   3.191  12.687
 4079W        W 4944  17.007   2.171  12.281
 4080W        W 4945  16.469   0.396  11.352
 4081W        W 4946  18.150   0.024  12.074
 4082W        W 4947  15.838   1.659  11.237
 4083W        W 4948  18.004   0.996  12.227
 4084W        W 4949  16.696   2.166  11.104
 4085W        W 4950  17.632   2.366  13.852
 4086W        W 4951  17.286   3.067  11.319
 4087W        W 4952  15.901   0.742  14.225
 4088W        W 4953  15.721   1.326  13.466
 4089W        W 4954  17.813   2.821  13.743
 4090W        W 4955  16.913   0.771  14.120
 4091W        W 4956  14.757   1.242  13.897
 4092W        W 4957  16.517   1.719  13.623
 4093W        W 4958  14.874   2.477  12.280
 4094W        W 4959  15.021   1.774  13.170
 4095W        W 4960  17.338   2.060  13.520
 4096W        W 4961  17.110   3.440  14.331
 4097W        W 4962  17.006   1.179  13.884
 4098W        W 4963  17.283   3.233  12.289
 4099W        W 4964  16.285   2.953  13.612
 4100W        W 4965  15.770   3.308  12.881
 4101W        W 4966  17.575   2.479  13.300
 4102W        W 4967  16.625   2.551  14.437
 4103W        W 4968  15.230   2.504  12.776
 4104W        W 4969  17.576   2.263  12.421
 4105W        W 4970  17.217   3.329  13.172
 4106W        W 4971  15.195   3.058  13.042
 4107W        W 4972  16.216   1.110  14.252
 4108W        W 4973  16.667   3.276  11.763
 4109W        W 4974  15.975   2.531  14.401
 4110W        W 4975  16.101   2.769  11.778
 4111W        W 4976  15.322   1.509  11.037
 4112W        W 4977  14.661   3.595  17.936
 4113W        W 4978  15.037   2.488  17.459
 4114W        W 4979  17.742   2.218  15.229
 4115W        W 4980  17.872   3.303  17.256
 4116W        W 4981  15.790   3.294  14.782
 4117W        W 4982  15.873   1.446  15.765
 4118W        W 4983  15.388   1.294  15.929
 4119W        W 4984  16.379   2.109  15.363
 4120W        W 4985  16.054   3.201  17.718
 4121W        W 4986  14.703   0.762  17.681
 4122W        W 4987  15.465   0.042  17.483
 4123W        W 4988  17.159   0.430  16.370
 4124W        W 4989  16.808   1.301  14.940
 4125W        W 4990  17.378   0.735  18.031
 4126W        W 4991  14.744   0.527  17.156
 4127W        W 4992  14.843   3.146  18.177
 4128W        W 4993  16.365   2.536  14.909
 4129W        W 4994  14.797   1.319  16.602
 4130W        W 4995  15.690   1.210  17.839
 4131W        W 4996  18.149   1.069  16.338
 4132W        W 4997  17.913   2.112  17.197
 4133W        W 4998  16.221   1.445  16.224
 4134W        W 4999  16.767   2.784  16.593
 4135W        W 5000  15.267   2.218  16.825
 4136W        W 5001  14.626   1.746  16.396
 4137W        W 5002  15.662   1.718  17.588
 4138W        W 5003  17.933   1.501  17.842
 4139W        W 5004  15.549   2.945  16.287
 4140W        W 5005  16.670   2.634  17.421
 4141W        W 5006  15.890   1.274  16.646
 4142W        W 5007  16.182   2.058  16.289
 4143W        W 5008  17.179   2.831  18.137
 4144W        W 5009  16.258   2.151  18.147
 4145W        W 5010  16.239   1.867  17.625
 4146W        W 5011  14.648   1.258  18.147
 4147W        W 5012  17.480   2.793  17.746
 4148W        W 5013  15.061   0.375  15.744
 4149W        W 5014  15.588   2.633  16.743
 4150W        W 5015  18.051   2.416  16.033
 4151W        W 5016  17.464   0.816  16.600
 4152W        W 5017  17.749   0.769  14.695
 4153W        W 5018  18.214   1.570  17.001
 4154W        W 5019  16.181   3.277  16.754
 4155W        W 5020  17.955   2.743  15.192
 4156W        W 5021  15.084   3.529  14.946
 4157W        W 5022  15.477   3.575  15.622
 4158W        W 5023  15.274   0.329  17.048
 4159W        W 5024  17.897   1.347  17.323
 4160W        W 5025  17.302   1.769  15.782
 4161W        W 5026  17.268   1.457  14.809
 4162W        W 5027  16.476   2.601  16.949
 4163W        W 5028  16.282   0.931  16.148
 4164W        W 5029  16.882   3.018  17.142
 4165W        W 5030  17.753   1.809  15.564
 4166W        W 5031  16.655   0.467  15.580
 4167W        W 5032  15.312   3.161  15.263
 4168W        W 5033  14.683   0.660  15.862
 4169W        W 5034  17.469   1.267  16.336
 4170W        W 5035  14.927   2.884  16.251
 4171W        W 5036  16.268   3.234  15.121
 4172W        W 5037  17.660   1.260  14.585
 4173W        W 5038  14.683   3.018  16.749
 4174W        W 5039  15.474   2.590  17.229
 4175W        W 5040  15.847   1.950  15.848
 4176W        W 5041  15.869   0.355  16.941
 4177W        W 5042  18.098   0.117  16.238
 4178W        W 5043  15.317   1.989  14.706
 4179W        W 5044  14.972   1.022  14.885
 4180W        W 5045  15.034   2.978  15.679
 4181W        W 5046  16.165   2.461  15.927
 4182W        W 5047  17.497   3.320  17.641
 4183W        W 5048  16.423   0.962  15.325
 4184W        W 5049  17.806   3.360  16.097
 4185W        W 5050  17.483   1.213  17.695
 4186W        W 5051  18.196   2.869  15.829
 4187W        W 5052  16.823   2.161  17.313
 4188W        W 5053  14.589   1.712  15.519
 4189W        W 5054  15.700   2.127  17.092
 4190W        W 5055  16.904   1.391  15.470
 4191W        W 5056  16.781   1.881  15.574
 4192W        W 5057  15.124   1.301  17.048
 4193W        W 5058  15.109   1.177  17.970
 4194W        W 5059  14.999   0.094  16.129
 4195W        W 5060  16.767   0.441  16.690
 4196W        W 5061  16.415   0.626  17.853
 4197W        W 5062  16.770   0.775  15.031
 4198W        W 5063  17.953   3.168  17.785
 4199W        W 5064  16.920   0.249  17.824
 4200W        W 5065  17.939   2.550  17.946
 4201W        W 5066  17.369   0.717  17.542
 4202W        W 5067  17.169   0.655  15.812
 4203W        W 5068  17.562   1.789  18.216
 4204W        W 5069  15.302   3.365  16.202
 4205W        W 5070  15.960   1.082  15.188
 4206W        W 5071  15.529   0.366  17.852
 4207W        W 5072  17.581   0.850  15.533
 4208W        W 5073  17.948   1.332  15.478
 4209W        W 5074  15.691   3.549  17.949
 4210W        W 5075  15.617   0.085  15.184
 4211W        W 5076  17.938   0.619  16.219
 4212W        W 5077  18.088   2.868  14.664
 4213W        W 5078  14.995   2.071  16.366
 4214W        W 5079  16.912   0.658  14.596
 4215W        W 5080  18.046   2.990  16.316
 4216W        W 5081  18.085   0.184  17.066
 4217W        W 5082  16.530   1.396  17.620
 4218W        W 5083  16.623   2.735  15.323
 4219W        W 5084  17.023   2.029  18.063
 4220W        W 5085  16.697   0.006  16.372
 4221W        W 5086  15.309   0.909  16.435
 4222W        W 5087  14.863   2.109  17.209
 4223W        W 5088  16.722   3.302  15.915
 4224W        W 5089  17.916   0.899  16.787
 4225W        W 5090  16.553   3.246  17.554
 4226W        W 5091  17.896   2.305  14.759
 4227W        W 5092  16.331   1.788  15.820
 4228W        W 5093  18.183   0.299  17.561
 4229W        W 5094  16.332   2.134  17.155
 4230W        W 5095  16.549   1.020  16.600
 4231W        W 5096  17.401   1.318  15.438
 4232W        W 5097  17.688   1.051  15.080
 4233W        W 5098  17.497   3.091  15.469
 4234W        W 5099  17.331   2.694  16.265
 4235W        W 5100  17.227   1.773  15.243
 4236W        W 5101  16.660   1.983  16.229
 4237W        W 5102  17.541   1.771  16.296
 4238W        W 5103  14.916   0.786  16.720
 4239W        W 5104  17.694   1.838  17.547
 4240W        W 5105  18.045   3.456  16.693
 4241W        W 5106  15.975   2.900  16.095
 4242W        W 5107  16.982   3.433  17.419
 4243W        W 5108  16.976   0.763  17.183
 4244W        W 5109  16.183   3.471  17.244
 4245W        W 5110  17.880   0.425  15.710
 4246W        W 5111  17.671   1.744  17.011
 4247W        W 5112  14.654   1.065  17.049
 4248W        W 5113  17.514   0.860  16.067
 4249W        W 5114  17.925   1.011  17.844
 4250W        W 5115  16.810   2.710  16.062
 4251W        W 5116  16.066   3.301  15.675
 4252W        W 5117  15.181   0.481  14.933
 4253W        W 5118  16.285   0.135  16.743
 4254W        W 5119  15.313   3.255  14.591
 4255W        W 5120  15.687   1.721  15.342
 4256W        W 5121  16.341   2.350  17.655
 4257W        W 5122  16.171   0.708  15.645
 4258W        W 5123  17.527   0.305  16.073
 4259W        W 5124  17.247   3.587  16.401
 4260W        W 5125  16.659   3.235  16.741
 4261W        W 5126  16.055   2.272  16.702
 4262W        W 5127  17.825   2.995  16.828
 4263W        W 5128  15.519   0.498  15.597
 4264W        W 5129  16.041   2.795  16.557
 4265W        W 5130  15.524   0.726  14.622
 4266W        W 5131  16.325   1.335  17.016
 4267W        W 5132  17.173   0.201  16.886
 4268W        W 5133  14.593   2.044  16.771
 4269W        W 5134  16.297   1.862  14.929
 4270W        W 5135  15.565   0.177  14.699
 4271W        W 5136  16.303   1.258  15.750
 4272W        W 5137  17.273   0.234  17.449
 4273W        W 5138  15.861   2.246  17.558
 4274W        W 5139  16.665   2.028  17.775
 4275W        W 5140  17.282   2.058  17.668
 4276W        W 5141  16.566   0.198  18.173
 4277W        W 5142  15.788   0.814  16.566
 4278W        W 5143  15.214   0.770  15.964
 4279W        W 5144  15.000   3.482  15.640
 4280W        W 5145  16.332   2.812  17.765
 4281W        W 5146  15.367   2.297  15.124
 4282W        W 5147  17.047   1.682  16.345
 4283W        W 5148  17.327   1.481  16.744
 4284W        W 5149  16.532   2.155  16.678
 4285W        W 5150  17.002   2.529  14.810
 4286W        W 5151  16.674   0.550  16.138
 4287W        W 5152  18.153   0.828  15.406
 4288W        W 5153  14.647   3.417  17.437
 4289W        W 5154  15.064   2.643  16.969
 4290W        W 5155  14.631   3.489  15.201
 4291W        W 5156  16.530   0.759  17.007
 4292W        W 5157  15.893   2.782  14.856
 4293W        W 5158  17.798   3.164  15.042
 4294W        W 5159  16.773   1.817  15.056
 4295W        W 5160  15.616   1.008  15.573
 4296W        W 5161  16.448   0.918  14.625
 4297W        W 5162  17.032   2.483  17.803
 4298W        W 5163  17.385   0.389  15.420
 4299W        W 5164  14.715   0.237  14.868
 4300W        W 5165  16.001   2.556  17.158
 4301W        W 5166  15.800   2.472  16.250
 4302W        W 5167  15.542   2.424  14.648
 4303W        W 5168  14.783   2.665  15.416
 4304W        W 5169  15.287   1.735  17.858
 4305W        W 5170  15.991   0.295  18.044
 4306W        W 5171  16.700   0.437  17.400
 4307W        W 5172  15.895   0.205  15.681
 4308W        W 5173  16.954   0.282  15.186
 4309W        W 5174  14.899   0.214  16.763
 4310W        W 5175  14.947   1.177  16.133
 4311W        W 5176  17.636   0.285  16.539
 4312W        W 5177  15.058   0.783  15.353
 4313W        W 5178  17.629   0.471  16.969
 4314W        W 5179  18.025   1.674  14.654
 4315W        W 5180  15.317   0.432  16.473
 4316W        W 5181  16.431   1.004  17.413
 4317W        W 5182  14.579   0.694  14.891
 4318W        W 5183  15.365   2.083  17.452
 4319W        W 5184  16.723   1.481  16.631
 4320W        W 5185  16.590   3.560  14.927
 4321W        W 5186  14.736   2.067  14.624
 4322W        W 5187  15.471   2.478  17.750
 4323W        W 5188  14.992   1.645  17.381
 4324W        W 5189  15.983   1.750  17.175
 4325W        W 5190  17.751   0.109  17.437
 4326W        W 5191  18.149   1.719  17.428
 4327W        W 5192  18.137   1.919  15.114
 4328W        W 5193  17.000   2.251  15.213
 4329W        W 5194  17.474   3.551  14.908
 4330W        W 5195  16.651   1.541  18.050
 4331W        W 5196  14.981   2.508  18.090
 4332W        W 5197  18.187   0.430  18.042
 4333W        W 5198  17.905   1.358  16.663
 4334W        W 5199  16.213   3.488  18.140
 4335W        W 5200  16.068   0.117  14.867
 4336W        W 5201  17.607   2.716  14.810
 4337W        W 5202  15.376   0.809  17.696
 4338W        W 5203  15.810   2.803  17.558
 4339W        W 5204  17.936   0.794  17.356
 4340W        W 5205  17.147   3.453  15.324
 4341W        W 5206  17.386   2.072  16.691
 4342W        W 5207  15.636   0.488  17.358
 4343W        W 5208  16.105   1.557  18.115
 4344W        W 5209  15.608   2.736  15.309
 4345W        W 5210  17.363   2.234  15.573
 4346W        W 5211  15.131   0.860  17.297
 4347W        W 5212  16.460   2.922  15.761
 4348W        W 5213  18.210   1.482  15.942
 4349W        W 5214  16.432   0.115  17.661
 4350W        W 5215  17.212   2.820  16.740
 4351W        W 5216  17.515   3.164  16.448
 4352W        W 5217  16.734   2.966  14.876
 4353W        W 5218  14.744   2.858  17.718
 4354W        W 5219  15.487   0.850  16.956
 4355W        W 5220  15.457   0.198  16.066
 4356W        W 5221  17.078   1.040  16.758
 4357W        W 5222  15.876   2.211  14.958
 4358W        W 5223  17.874   2.153  16.457
 4359W        W 5224  15.201   2.911  17.880
 4360W        W 5225  17.588   3.593  15.677
 4361W        W 5226  15.687   0.613  16.122
 4362W        W 5227  15.456   2.106  16.212
 4363W        W 5228  15.769   3.517  16.962
 4364W        W 5229  17.836   3.613  17.994
 4365W        W 5230  16.995   1.801  16.927
 4366W        W 5231  14.844   1.599  14.842
 4367W        W 5232  17.978   3.257  15.539
 4368W        W 5233  17.815   0.581  15.158
 4369W        W 5234  15.954   0.100  17.561
 4370W        W 5235  17.660   2.902  16.019
 4371W        W 5236  17.689   1.458  15.924
 4372W        W 5237  15.806   1.131  16.140
 4373W        W 5238  16.051   1.393  17.464
 4374W        W 5239  17.162   2.546  17.327
 4375W        W 5240  15.812   1.000  17.439
 4376W        W 5241  15.791   3.466  16.055
 4377W        W 5242  15.108   3.425  17.689
 4378W        W 5243  15.220   2.786  14.819
 4379W        W 5244  17.737   2.544  15.629
 4380W        W 5245  15.341   1.336  17.515
 4381W        W 5246  18.114   1.266  14.996
 4382W        W 5247  15.859   2.323  15.467
 4383W        W 5248  16.958   1.705  17.548
 4384W        W 5249  16.849   1.333  17.092
 4385W        W 5250  15.409   1.705  17.121
 4386W        W 5251  17.619   3.593  16.950
 4387W        W 5252  17.410   0.227  17.944
 4388W        W 5253  15.074   0.377  17.531
 4389W        W 5254  15.413   1.400  16.584
 4390W        W 5255  15.782   1.214  14.706
 4391W        W 5256  14.585   2.973  17.251
 4392W        W 5257  16.170   1.682  16.694
 4393W        W 5258  15.993   0.707  14.799
 4394W        W 5259  15.128   1.523  15.580
 4395W        W 5260  14.899   3.375  17.017
 4396W        W 5261  17.694   1.601  15.125
 4397W        W 5262  17.789   0.517  17.811
 4398W        W 5263  17.225   2.726  15.774
 4399W        W 5264  14.823   1.650  17.951
 4400W        W 5265  17.789   0.114  15.247
 4401W        W 5266  17.309   2.589  15.258
 4402W        W 5267  16.211   1.647  15.343
 4403W        W 5268  17.398   0.451  14.866
 4404W        W 5269  17.463   1.058  17.052
 4405W        W 5270  15.172   1.651  16.259
 4406W        W 5271  15.466   2.590  15.908
 4407W        W 5272  17.229   1.210  15.873
 4408W        W 5273  16.252   0.589  16.569
 4409W        W 5274  18.214   2.500  17.080
 4410W        W 5275  18.132   0.487  16.641
 4411W        W 5276  14.671   3.317  16.017
 4412W        W 5277  15.180   2.504  15.553
 4413W        W 5278  15.095   0.121  18.106
 4414W        W 5279  16.214   2.974  18.208
 4415W        W 5280  17.969   1.942  15.998
 4416W        W 5281  17.323   2.119  14.878
 4417W        W 5282  16.618   3.640  17.090
 4418W        W 5283  17.475   2.362  18.127
 4419W        W 5284  16.290   0.072  15.407
 4420W        W 5285  17.003   0.941  16.266
 4421W        W 5286  14.689   2.528  16.598
 4422W        W 5287  15.942   0.490  15.239
 4423W        W 5288  15.746   1.974  18.088
 4424W        W 5289  16.740   0.955  15.802
 4425W        W 5290  16.945   2.365  16.924
 4426W        W 5291  15.099   2.970  17.359
 4427W        W 5292  15.690   2.953  18.082
 4428W        W 5293  15.541   0.750  15.096
 4429W        W 5294  17.058   0.892  15.421
 4430W        W 5295  17.016   3.000  17.658
 4431W        W 5296  15.701   1.592  16.257
 4432W        W 5297  15.356   3.290  17.122
 4433W        W 5298  18.101   3.407  14.723
 4434W        W 5299  14.964   2.079  17.719
 4435W        W 5300  16.959   2.341  16.407
 4436W        W 5301  15.395   1.990  15.649
 4437W        W 5302  15.766   2.997  17.044
 4438W        W 5303  16.144   0.416  16.085
 4439W        W 5304  14.755   2.400  15.015
 4440W        W 5305  16.274   1.351  14.885
 4441W        W 5306  14.920   1.900  15.904
 4442W        W 5307  16.210   0.542  17.368
 4443W        W 5308  17.882   0.251  14.795
 4444W        W 5309  17.975   1.997  17.894
 4445W        W 5310  16.629   3.254  18.046
 4446W        W 5311  18.187   2.348  17.568
 4447W        W 5312  17.595   3.146  18.179
 4448W        W 5313  15.334   3.602  16.657
 4449W        W 5314  18.193   2.224  15.531
 4450W        W 5315  16.723   1.491  16.044
 4451W        W 5316  16.490   0.103  15.934
 4452W        W 5317  15.549   3.087  15.771
 4453W        W 5318  16.048   0.828  16.996
 4454W        W 5319  15.748   0.197  16.465
 4455W        W 5320  14.811   3.019  15.013
 4456W        W 5321  16.627   2.383  15.731
 4457W        W 5322  15.502   3.178  17.610
 4458W        W 5323  14.979   2.001  15.306
 4459W        W 5324  14.864   0.544  16.305
 4460W        W 5325  16.412   2.509  16.362
 4461W        W 5326  14.664   0.363  15.382
 4462W        W 5327  17.328   1.569  17.309
 4463W        W 5328  17.205   0.955  14.881
 4464W        W 5329  17.722   2.627  16.529
 4465W        W 5330  16.383   3.111  16.360
 4466W        W 5331  15.795   3.215  15.271
 4467W        W 5332  17.077   0.118  14.701
 4468W        W 5333  14.877   3.378  16.442
 4469W        W 5334  17.074   1.136  18.077
 4470W        W 5335  15.057   0.666  18.076
 4471W        W 5336  14.788   1.266  15.409
 4472W        W 5337  15.479   1.255  15.134
 4473W        W 5338  17.242   1.582  17.951
 4474W        W 5339  15.585   1.863  16.660
 4475W        W 5340  17.059   0.149  15.780
 4476W        W 5341  16.190   3.580  16.283
 4477W        W 5342  17.404   3.042  17.220
 4478W        W 5343  16.988   3.191  16.331
 4479W        W 5344  17.007   2.171  15.925
 4480W        W 5345  16.469   0.396  14.996
 4481W        W 5346  18.150   0.024  15.718
 4482W        W 5347  15.838   1.659  14.881
 4483W        W 5348  18.004   0.996  15.871
 4484W        W 5349  16.696   2.166  14.748
 4485W        W 5350  17.632   2.366  17.496
 4486W        W 5351  17.286   3.067  14.963
 4487W        W 5352  15.901   0.742  17.869
 4488W        W 5353  15.721   1.326  17.110
 4489W        W 5354  17.813   2.821  17.387
 4490W        W 5355  16.913   0.771  17.764
 4491W        W 5356  14.757   1.242  17.541
 4492W        W 5357  16.517   1.719  17.267
 4493W        W 5358  14.874   2.477  15.924
 4494W        W 5359  15.021   1.774  16.814
 4495W        W 5360  17.338   2.060  17.164
 4496W        W 5361  17.110   3.440  17.975
 4497W        W 5362  17.006   1.179  17.528
 4498W        W 5363  17.283   3.233  15.933
 4499W        W 5364  16.285   2.953  17.256
 4500W        W 5365  15.770   3.308  16.525
 4501W        W 5366  17.575   2.479  16.944
 4502W        W 5367  16.625   2.551  18.081
 4503W        W 5368  15.230   2.504  16.420
 4504W        W 5369  17.576   2.263  16.065
 4505W        W 5370  17.217   3.329  16.816
 4506W        W 5371  15.195   3.058  16.686
 4507W        W 5372  16.216   1.110  17.896
 4508W        W 5373  16.667   3.276  15.407
 4509W        W 5374  15.975   2.531  18.045
 4510W        W 5375  16.101   2.769  15.422
 4511W        W 5376  15.322   1.509  14.681
 4512W        W 5377  14.661   3.595  21.580
 4513W        W 5378  15.037   2.488  21.103
 4514W        W 5379  17.742   2.218  18.873
 4515W        W 5380  17.872   3.303  20.900
 4516W        W 5381  15.790   3.294  18.426
 4517W        W 5382  15.873   1.446  19.409
 4518W        W 5383  15.388   1.294  19.573
 4519W        W 5384  16.379   2.109  19.007
 4520W        W 5385  16.054   3.201  21.362
 4521W        W 5386  14.703   0.762  21.325
 4522W        W 5387  15.465   0.042  21.127
 4523W        W 5388  17.159   0.430  20.014
 4524W        W 5389  16.808   1.301  18.584
 4525W        W 5390  17.378   0.735  21.675
 4526W        W 5391  14.744   0.527  20.800
 4527W        W 5392  14.843   3.146  21.821
 4528W        W 5393  16.365   2.536  18.553
 4529W        W 5394  14.797   1.319  20.246
 4530W        W 5395  15.690   1.210  21.483
 4531W        W 5396  18.149   1.069  19.982
 4532W        W 5397  17.913   2.112  20.841
 4533W        W 5398  16.221   1.445  19.868
 4534W        W 5399  16.767   2.784  20.237
 4535W        W 5400  15.267   2.218  20.469
 4536W        W 5401  14.626   1.746  20.040
 4537W        W 5402  15.662   1.718  21.232
 4538W        W 5403  17.933   1.501  21.486
 4539W        W 5404  15.549   2.945  19.931
 4540W        W 5405  16.670   2.634  21.065
 4541W        W 5406  15.890   1.274  20.290
 4542W        W 5407  16.182   2.058  19.933
 4543W        W 5408  17.179   2.831  21.781
 4544W        W 5409  16.258   2.151  21.791
 4545W        W 5410  16.239   1.867  21.269
 4546W        W 5411  14.648   1.258  21.791
 4547W        W 5412  17.480   2.793  21.390
 4548W        W 5413  15.061   0.375  19.388
 4549W        W 5414  15.588   2.633  20.387
 4550W        W 5415  18.051   2.416  19.677
 4551W        W 5416  17.464   0.816  20.244
 4552W        W 5417  17.749   0.769  18.339
 4553W        W 5418  18.214   1.570  20.645
 4554W        W 5419  16.181   3.277  20.398
 4555W        W 5420  17.955   2.743  18.836
 4556W        W 5421  15.084   3.529  18.590
 4557W        W 5422  15.477   3.575  19.266
 4558W        W 5423  15.274   0.329  20.692
 4559W        W 5424  17.897   1.347  20.967
 4560W        W 5425  17.302   1.769  19.426
 4561W        W 5426  17.268   1.457  18.453
 4562W        W 5427  16.476   2.601  20.593
 4563W        W 5428  16.282   0.931  19.792
 4564W        W 5429  16.882   3.018  20.786
 4565W        W 5430  17.753   1.809  19.208
 4566W        W 5431  16.655   0.467  19.224
 4567W        W 5432  15.312   3.161  18.907
 4568W        W 5433  14.683   0.660  19.506
 4569W        W 5434  17.469   1.267  19.980
 4570W        W 5435  14.927   2.884  19.895
 4571W        W 5436  16.268   3.234  18.765
 4572W        W 5437  17.660   1.260  18.229
 4573W        W 5438  14.683   3.018  20.393
 4574W        W 5439  15.474   2.590  20.873
 4575W        W 5440  15.847   1.950  19.492
 4576W        W 5441  15.869   0.355  20.585
 4577W        W 5442  18.098   0.117  19.882
 4578W        W 5443  15.317   1.989  18.350
 4579W        W 5444  14.972   1.022  18.529
 4580W        W 5445  15.034   2.978  19.323
 4581W        W 5446  16.165   2.461  19.571
 4582W        W 5447  17.497   3.320  21.285
 4583W        W 5448  16.423   0.962  18.969
 4584W        W 5449  17.806   3.360  19.741
 4585W        W 5450  17.483   1.213  21.339
 4586W        W 5451  18.196   2.869  19.473
 4587W        W 5452  16.823   2.161  20.957
 4588W        W 5453  14.589   1.712  19.163
 4589W        W 5454  15.700   2.127  20.736
 4590W        W 5455  16.904   1.391  19.114
 4591W        W 5456  16.781   1.881  19.218
 4592W        W 5457  15.124   1.301  20.692
 4593W        W 5458  15.109   1.177  21.614
 4594W        W 5459  14.999   0.094  19.773
 4595W        W 5460  16.767   0.441  20.334
 4596W        W 5461  16.415   0.626  21.497
 4597W        W 5462  16.770   0.775  18.675
 4598W        W 5463  17.953   3.168  21.429
 4599W        W 5464  16.920   0.249  21.468
 4600W        W 5465  17.939   2.550  21.590
 4601W        W 5466  17.369   0.717  21.186
 4602W        W 5467  17.169   0.655  19.456
 4603W        W 5468  17.562   1.789  21.860
 4604W        W 5469  15.302   3.365  19.846
 4605W        W 5470  15.960   1.082  18.832
 4606W        W 5471  15.529   0.366  21.496
 4607W        W 5472  17.581   0.850  19.177
 4608W        W 5473  17.948   1.332  19.122
 4609W        W 5474  15.691   3.549  21.593
 4610W        W 5475  15.617   0.085  18.828
 4611W        W 5476  17.938   0.619  19.863
 4612W        W 5477  18.088   2.868  18.308
 4613W        W 5478  14.995   2.071  20.010
 4614W        W 5479  16.912   0.658  18.240
 4615W        W 5480  18.046   2.990  19.960
 4616W        W 5481  18.085   0.184  20.710
 4617W        W 5482  16.530   1.396  21.264
 4618W        W 5483  16.623   2.735  18.967
 4619W        W 5484  17.023   2.029  21.707
 4620W        W 5485  16.697   0.006  20.016
 4621W        W 5486  15.309   0.909  20.079
 4622W        W 5487  14.863   2.109  20.853
 4623W        W 5488  16.722   3.302  19.559
 4624W        W 5489  17.916   0.899  20.431
 4625W        W 5490  16.553   3.246  21.198
 4626W        W 5491  17.896   2.305  18.403
 4627W        W 5492  16.331   1.788  19.464
 4628W        W 5493  18.183   0.299  21.205
 4629W        W 5494  16.332   2.134  20.799
 4630W        W 5495  16.549   1.020  20.244
 4631W        W 5496  17.401   1.318  19.082
 4632W        W 5497  17.688   1.051  18.724
 4633W        W 5498  17.497   3.091  19.113
 4634W        W 5499  17.331   2.694  19.909
 4635W        W 5500  17.227   1.773  18.887
 4636W        W 5501  16.660   1.983  19.873
 4637W        W 5502  17.541   1.771  19.940
 4638W        W 5503  14.916   0.786  20.364
 4639W        W 5504  17.694   1.838  21.191
 4640W        W 5505  18.045   3.456  20.337
 4641W        W 5506  15.975   2.900  19.739
 4642W        W 5507  16.982   3.433  21.063
 4643W        W 5508  16.976   0.763  20.827
 4644W        W 5509  16.183   3.471  20.888
 4645W        W 5510  17.880   0.425  19.354
 4646W        W 5511  17.671   1.744  20.655
 4647W        W 5512  14.654   1.065  20.693
 4648W        W 5513  17.514   0.860  19.711
 4649W        W 5514  17.925   1.011  21.488
 4650W        W 5515  16.810   2.710  19.706
 4651W        W 5516  16.066   3.301  19.319
 4652W        W 5517  15.181   0.481  18.577
 4653W        W 5518  16.285   0.135  20.387
 4654W        W 5519  15.313   3.255  18.235
 4655W        W 5520  15.687   1.721  18.986
 4656W        W 5521  16.341   2.350  21.299
 4657W        W 5522  16.171   0.708  19.289
 4658W        W 5523  17.527   0.305  19.717
 4659W        W 5524  17.247   3.587  20.045
 4660W        W 5525  16.659   3.235  20.385
 4661W        W 5526  16.055   2.272  20.346
 4662W        W 5527  17.825   2.995  20.472
 4663W        W 5528  15.519   0.498  19.241
 4664W        W 5529  16.041   2.795  20.201
 4665W        W 5530  15.524   0.726  18.266
 4666W        W 5531  16.325   1.335  20.660
 4667W        W 5532  17.173   0.201  20.530
 4668W        W 5533  14.593   2.044  20.415
 4669W        W 5534  16.297   1.862  18.573
 4670W        W 5535  15.565   0.177  18.343
 4671W        W 5536  16.303   1.258  19.394
 4672W        W 5537  17.273   0.234  21.093
 4673W        W 5538  15.861   2.246  21.202
 4674W        W 5539  16.665   2.028  21.419
 4675W        W 5540  17.282   2.058  21.312
 4676W        W 5541  16.566   0.198  21.817
 4677W        W 5542  15.788   0.814  20.210
 4678W        W 5543  15.214   0.770  19.608
 4679W        W 5544  15.000   3.482  19.284
 4680W        W 5545  16.332   2.812  21.409
 4681W        W 5546  15.367   2.297  18.768
 4682W        W 5547  17.047   1.682  19.989
 4683W        W 5548  17.327   1.481  20.388
 4684W        W 5549  16.532   2.155  20.322
 4685W        W 5550  17.002   2.529  18.454
 4686W        W 5551  16.674   0.550  19.782
 4687W        W 5552  18.153   0.828  19.050
 4688W        W 5553  14.647   3.417  21.081
 4689W        W 5554  15.064   2.643  20.613
 4690W        W 5555  14.631   3.489  18.845
 4691W        W 5556  16.530   0.759  20.651
 4692W        W 5557  15.893   2.782  18.500
 4693W        W 5558  17.798   3.164  18.686
 4694W        W 5559  16.773   1.817  18.700
 4695W        W 5560  15.616   1.008  19.217
 4696W        W 5561  16.448   0.918  18.269
 4697W        W 5562  17.032   2.483  21.447
 4698W        W 5563  17.385   0.389  19.064
 4699W        W 5564  14.715   0.237  18.512
 4700W        W 5565  16.001   2.556  20.802
 4701W        W 5566  15.800   2.472  19.894
 4702W        W 5567  15.542   2.424  18.292
 4703W        W 5568  14.783   2.665  19.060
 4704W        W 5569  15.287   1.735  21.502
 4705W        W 5570  15.991   0.295  21.688
 4706W        W 5571  15.895   0.205  19.325
 4707W        W 5572  16.954   0.282  18.830
 4708W        W 5573  14.899   0.214  20.407
 4709W        W 5574  14.947   1.177  19.777
 4710W        W 5575  17.636   0.285  20.183
 4711W        W 5576  15.058   0.783  18.997
 4712W        W 5577  17.629   0.471  20.613
 4713W        W 5578  18.025   1.674  18.298
 4714W        W 5579  15.317   0.432  20.117
 4715W        W 5580  16.431   1.004  21.057
 4716W        W 5581  14.579   0.694  18.535
 4717W        W 5582  15.365   2.083  21.096
 4718W        W 5583  16.723   1.481  20.275
 4719W        W 5584  16.590   3.560  18.571
 4720W        W 5585  14.736   2.067  18.268
 4721W        W 5586  15.471   2.478  21.394
 4722W        W 5587  14.992   1.645  21.025
 4723W        W 5588  15.983   1.750  20.819
 4724W        W 5589  17.751   0.109  21.081
 4725W        W 5590  18.149   1.719  21.072
 4726W        W 5591  18.137   1.919  18.758
 4727W        W 5592  17.000   2.251  18.857
 4728W        W 5593  17.474   3.551  18.552
 4729W        W 5594  16.651   1.541  21.694
 4730W        W 5595  14.981   2.508  21.734
 4731W        W 5596  18.187   0.430  21.686
 4732W        W 5597  17.905   1.358  20.307
 4733W        W 5598  16.068   0.117  18.511
 4734W        W 5599  17.607   2.716  18.454
 4735W        W 5600  15.376   0.809  21.340
 4736W        W 5601  15.810   2.803  21.202
 4737W        W 5602  17.936   0.794  21.000
 4738W        W 5603  17.147   3.453  18.968
 4739W        W 5604  17.386   2.072  20.335
 4740W        W 5605  15.636   0.488  21.002
 4741W        W 5606  15.608   2.736  18.953
 4742W        W 5607  17.363   2.234  19.217
 4743W        W 5608  15.131   0.860  20.941
 4744W        W 5609  16.460   2.922  19.405
 4745W        W 5610  18.210   1.482  19.586
 4746W        W 5611  16.432   0.115  21.305
 4747W        W 5612  17.212   2.820  20.384
 4748W        W 5613  17.515   3.164  20.092
 4749W        W 5614  16.734   2.966  18.520
 4750W        W 5615  14.744   2.858  21.362
 4751W        W 5616  15.487   0.850  20.600
 4752W        W 5617  15.457   0.198  19.710
 4753W        W 5618  17.078   1.040  20.402
 4754W        W 5619  15.876   2.211  18.602
 4755W        W 5620  17.874   2.153  20.101
 4756W        W 5621  15.201   2.911  21.524
 4757W        W 5622  17.588   3.593  19.321
 4758W        W 5623  15.687   0.613  19.766
 4759W        W 5624  15.456   2.106  19.856
 4760W        W 5625  15.769   3.517  20.606
 4761W        W 5626  17.836   3.613  21.638
 4762W        W 5627  16.995   1.801  20.571
 4763W        W 5628  14.844   1.599  18.486
 4764W        W 5629  17.978   3.257  19.183
 4765W        W 5630  17.815   0.581  18.802
 4766W        W 5631  15.954   0.100  21.205
 4767W        W 5632  17.660   2.902  19.663
 4768W        W 5633  17.689   1.458  19.568
 4769W        W 5634  15.806   1.131  19.784
 4770W        W 5635  16.051   1.393  21.108
 4771W        W 5636  17.162   2.546  20.971
 4772W        W 5637  15.812   1.000  21.083
 4773W        W 5638  15.791   3.466  19.699
 4774W        W 5639  15.108   3.425  21.333
 4775W        W 5640  15.220   2.786  18.463
 4776W        W 5641  17.737   2.544  19.273
 4777W        W 5642  15.341   1.336  21.159
 4778W        W 5643  18.114   1.266  18.640
 4779W        W 5644  15.859   2.323  19.111
 4780W        W 5645  16.958   1.705  21.192
 4781W        W 5646  16.849   1.333  20.736
 4782W        W 5647  15.409   1.705  20.765
 4783W        W 5648  17.619   3.593  20.594
 4784W        W 5649  17.410   0.227  21.588
 4785W        W 5650  15.074   0.377  21.175
 4786W        W 5651  15.413   1.400  20.228
 4787W        W 5652  15.782   1.214  18.350
 4788W        W 5653  14.585   2.973  20.895
 4789W        W 5654  16.170   1.682  20.338
 4790W        W 5655  15.993   0.707  18.443
 4791W        W 5656  15.128   1.523  19.224
 4792W        W 5657  14.899   3.375  20.661
 4793W        W 5658  17.694   1.601  18.769
 4794W        W 5659  17.789   0.517  21.455
 4795W        W 5660  17.225   2.726  19.418
 4796W        W 5661  14.823   1.650  21.595
 4797W        W 5662  17.789   0.114  18.891
 4798W        W 5663  17.309   2.589  18.902
 4799W        W 5664  16.211   1.647  18.987
 4800W        W 5665  17.398   0.451  18.510
 4801W        W 5666  17.463   1.058  20.696
 4802W        W 5667  15.172   1.651  19.903
 4803W        W 5668  15.466   2.590  19.552
 4804W        W 5669  17.229   1.210  19.517
 4805W        W 5670  16.252   0.589  20.213
 4806W        W 5671  18.214   2.500  20.724
 4807W        W 5672  18.132   0.487  20.285
 4808W        W 5673  14.671   3.317  19.661
 4809W        W 5674  15.180   2.504  19.197
 4810W        W 5675  15.095   0.121  21.750
 4811W        W 5676  16.214   2.974  21.852
 4812W        W 5677  17.969   1.942  19.642
 4813W        W 5678  17.323   2.119  18.522
 4814W        W 5679  16.618   3.640  20.734
 4815W        W 5680  17.475   2.362  21.771
 4816W        W 5681  16.290   0.072  19.051
 4817W        W 5682  17.003   0.941  19.910
 4818W        W 5683  14.689   2.528  20.242
 4819W        W 5684  15.942   0.490  18.883
 4820W        W 5685  15.746   1.974  21.732
 4821W        W 5686  16.740   0.955  19.446
 4822W        W 5687  16.945   2.365  20.568
 4823W        W 5688  15.099   2.970  21.003
 4824W        W 5689  15.690   2.953  21.726
 4825W        W 5690  15.541   0.750  18.740
 4826W        W 5691  17.058   0.892  19.065
 4827W        W 5692  17.016   3.000  21.302
 4828W        W 5693  15.701   1.592  19.901
 4829W        W 5694  15.356   3.290  20.766
 4830W        W 5695  18.101   3.407  18.367
 4831W        W 5696  14.964   2.079  21.363
 4832W        W 5697  16.959   2.341  20.051
 4833W        W 5698  15.395   1.990  19.293
 4834W        W 5699  15.766   2.997  20.688
 4835W        W 5700  16.144   0.416  19.729
 4836W        W 5701  14.755   2.400  18.659
 4837W        W 5702  16.274   1.351  18.529
 4838W        W 5703  14.920   1.900  19.548
 4839W        W 5704  16.210   0.542  21.012
 4840W        W 5705  17.882   0.251  18.439
 4841W        W 5706  17.975   1.997  21.538
 4842W        W 5707  16.629   3.254  21.690
 4843W        W 5708  18.187   2.348  21.212
 4844W        W 5709  17.595   3.146  21.823
 4845W        W 5710  15.334   3.602  20.301
 4846W        W 5711  18.193   2.224  19.175
 4847W        W 5712  16.723   1.491  19.688
 4848W        W 5713  16.490   0.103  19.578
 4849W        W 5714  15.549   3.087  19.415
 4850W        W 5715  16.048   0.828  20.640
 4851W        W 5716  15.748   0.197  20.109
 4852W        W 5717  14.811   3.019  18.657
 4853W        W 5718  16.627   2.383  19.375
 4854W        W 5719  15.502   3.178  21.254
 4855W        W 5720  14.979   2.001  18.950
 4856W        W 5721  14.864   0.544  19.949
 4857W        W 5722  16.412   2.509  20.006
 4858W        W 5723  14.664   0.363  19.026
 4859W        W 5724  17.328   1.569  20.953
 4860W        W 5725  17.205   0.955  18.525
 4861W        W 5726  17.722   2.627  20.173
 4862W        W 5727  16.383   3.111  20.004
 4863W        W 5728  15.795   3.215  18.915
 4864W        W 5729  17.077   0.118  18.345
 4865W        W 5730  14.877   3.378  20.086
 4866W        W 5731  17.074   1.136  21.721
 4867W        W 5732  15.057   0.666  21.720
 4868W        W 5733  14.788   1.266  19.053
 4869W        W 5734  15.479   1.255  18.778
 4870W        W 5735  17.242   1.582  21.595
 4871W        W 5736  15.585   1.863  20.304
 4872W        W 5737  17.059   0.149  19.424
 4873W        W 5738  16.190   3.580  19.927
 4874W        W 5739  17.404   3.042  20.864
 4875W        W 5740  16.988   3.191  19.975
 4876W        W 5741  17.007   2.171  19.569
 4877W        W 5742  16.469   0.396  18.640
 4878W        W 5743  18.150   0.024  19.362
 4879W        W 5744  15.838   1.659  18.525
 4880W        W 5745  18.004   0.996  19.515
 4881W        W 5746  16.696   2.166  18.392
 4882W        W 5747  17.632   2.366  21.140
 4883W        W 5748  17.286   3.067  18.607
 4884W        W 5749  15.901   0.742  21.513
 4885W        W 5750  15.721   1.326  20.754
 4886W        W 5751  17.813   2.821  21.031
 4887W        W 5752  16.913   0.771  21.408
 4888W        W 5753  14.757   1.242  21.185
 4889W        W 5754  16.517   1.719  20.911
 4890W        W 5755  14.874   2.477  19.568
 4891W        W 5756  15.021   1.774  20.458
 4892W        W 5757  17.338   2.060  20.808
 4893W        W 5758  17.110   3.440  21.619
 4894W        W 5759  17.006   1.179  21.172
 4895W        W 5760  17.283   3.233  19.577
 4896W        W 5761  16.285   2.953  20.900
 4897W        W 5762  15.770   3.308  20.169
 4898W        W 5763  17.575   2.479  20.588
 4899W        W 5764  16.625   2.551  21.725
 4900W        W 5765  15.230   2.504  20.064
 4901W        W 5766  17.576   2.263  19.709
 4902W        W 5767  17.217   3.329  20.460
 4903W        W 5768  15.195   3.058  20.330
 4904W        W 5769  16.216   1.110  21.540
 4905W        W 5770  16.667   3.276  19.051
 4906W        W 5771  15.975   2.531  21.689
 4907W        W 5772  16.101   2.769  19.066
 4908W        W 5773  15.322   1.509  18.325
 4909W        W 5774  14.661   3.595  25.225
 4910W        W 5775  15.037   2.488  24.748
 4911W        W 5776  17.742   2.218  22.518
 4912W        W 5777  17.872   3.303  24.545
 4913W        W 5778  15.790   3.294  22.071
 4914W        W 5779  15.873   1.446  23.054
 4915W        W 5780  15.388   1.294  23.218
 4916W        W 5781  16.379   2.109  22.652
 4917W        W 5782  16.054   3.201  25.007
 4918W        W 5783  14.703   0.762  24.970
 4919W        W 5784  15.465   0.042  24.772
 4920W        W 5785  17.159   0.430  23.659
 4921W        W 5786  16.808   1.301  22.229
 4922W        W 5787  17.378   0.735  25.320
 4923W        W 5788  14.744   0.527  24.445
 4924W        W 5789  14.843   3.146  25.466
 4925W        W 5790  16.365   2.536  22.198
 4926W        W 5791  14.797   1.319  23.891
 4927W        W 5792  15.690   1.210  25.128
 4928W        W 5793  18.149   1.069  23.627
 4929W        W 5794  17.913   2.112  24.486
 4930W        W 5795  16.221   1.445  23.513
 4931W        W 5796  16.767   2.784  23.882
 4932W        W 5797  15.267   2.218  24.114
 4933W        W 5798  14.626   1.746  23.685
 4934W        W 5799  15.662   1.718  24.877
 4935W        W 5800  17.933   1.501  25.131
 4936W        W 5801  15.549   2.945  23.576
 4937W        W 5802  16.670   2.634  24.710
 4938W        W 5803  15.890   1.274  23.935
 4939W        W 5804  16.182   2.058  23.578
 4940W        W 5805  17.179   2.831  25.426
 4941W        W 5806  16.258   2.151  25.436
 4942W        W 5807  16.239   1.867  24.914
 4943W        W 5808  14.648   1.258  25.436
 4944W        W 5809  17.480   2.793  25.035
 4945W        W 5810  15.061   0.375  23.033
 4946W        W 5811  15.588   2.633  24.032
 4947W        W 5812  18.051   2.416  23.322
 4948W        W 5813  17.464   0.816  23.889
 4949W        W 5814  17.749   0.769  21.984
 4950W        W 5815  18.214   1.570  24.290
 4951W        W 5816  16.181   3.277  24.043
 4952W        W 5817  17.955   2.743  22.481
 4953W        W 5818  15.084   3.529  22.235
 4954W        W 5819  15.477   3.575  22.911
 4955W        W 5820  15.274   0.329  24.337
 4956W        W 5821  17.897   1.347  24.612
 4957W        W 5822  17.302   1.769  23.071
 4958W        W 5823  17.268   1.457  22.098
 4959W        W 5824  16.476   2.601  24.238
 4960W        W 5825  16.282   0.931  23.437
 4961W        W 5826  16.882   3.018  24.431
 4962W        W 5827  17.753   1.809  22.853
 4963W        W 5828  16.655   0.467  22.869
 4964W        W 5829  15.312   3.161  22.552
 4965W        W 5830  14.683   0.660  23.151
 4966W        W 5831  17.469   1.267  23.625
 4967W        W 5832  14.927   2.884  23.540
 4968W        W 5833  16.268   3.234  22.410
 4969W        W 5834  17.660   1.260  21.874
 4970W        W 5835  14.683   3.018  24.038
 4971W        W 5836  15.474   2.590  24.518
 4972W        W 5837  15.847   1.950  23.137
 4973W        W 5838  15.869   0.355  24.230
 4974W        W 5839  18.098   0.117  23.527
 4975W        W 5840  15.317   1.989  21.995
 4976W        W 5841  14.972   1.022  22.174
 4977W        W 5842  15.034   2.978  22.968
 4978W        W 5843  16.165   2.461  23.216
 4979W        W 5844  17.497   3.320  24.930
 4980W        W 5845  16.423   0.962  22.614
 4981W        W 5846  17.806   3.360  23.386
 4982W        W 5847  17.483   1.213  24.984
 4983W        W 5848  18.196   2.869  23.118
 4984W        W 5849  16.823   2.161  24.602
 4985W        W 5850  14.589   1.712  22.808
 4986W        W 5851  15.700   2.127  24.381
 4987W        W 5852  16.904   1.391  22.759
 4988W        W 5853  16.781   1.881  22.863
 4989W        W 5854  15.124   1.301  24.337
 4990W        W 5855  15.109   1.177  25.259
 4991W        W 5856  14.999   0.094  23.418
 4992W        W 5857  16.767   0.441  23.979
 4993W        W 5858  16.415   0.626  25.142
 4994W        W 5859  16.770   0.775  22.320
 4995W        W 5860  17.953   3.168  25.074
 4996W        W 5861  16.920   0.249  25.113
 4997W        W 5862  17.939   2.550  25.235
 4998W        W 5863  17.369   0.717  24.831
 4999W        W 5864  17.169   0.655  23.101
 5000W        W 5865  17.562   1.789  25.505
 5001W        W 5866  15.302   3.365  23.491
 5002W        W 5867  15.960   1.082  22.477
 5003W        W 5868  15.529   0.366  25.141
 5004W        W 5869  17.581   0.850  22.822
 5005W        W 5870  15.691   3.549  25.238
 5006W        W 5871  15.617   0.085  22.473
 5007W        W 5872  17.938   0.619  23.508
 5008W        W 5873  18.088   2.868  21.953
 5009W        W 5874  14.995   2.071  23.655
 5010W        W 5875  16.912   0.658  21.885
 5011W        W 5876  18.046   2.990  23.605
 5012W        W 5877  18.085   0.184  24.355
 5013W        W 5878  16.530   1.396  24.909
 5014W        W 5879  16.623   2.735  22.612
 5015W        W 5880  17.023   2.029  25.352
 5016W        W 5881  16.697   0.006  23.661
 5017W        W 5882  15.309   0.909  23.724
 5018W        W 5883  14.863   2.109  24.498
 5019W        W 5884  16.722   3.302  23.204
 5020W        W 5885  17.916   0.899  24.076
 5021W        W 5886  16.553   3.246  24.843
 5022W        W 5887  17.896   2.305  22.048
 5023W        W 5888  16.331   1.788  23.109
 5024W        W 5889  18.183   0.299  24.850
 5025W        W 5890  16.332   2.134  24.444
 5026W        W 5891  16.549   1.020  23.889
 5027W        W 5892  17.401   1.318  22.727
 5028W        W 5893  17.688   1.051  22.369
 5029W        W 5894  17.497   3.091  22.758
 5030W        W 5895  17.331   2.694  23.554
 5031W        W 5896  17.227   1.773  22.532
 5032W        W 5897  16.660   1.983  23.518
 5033W        W 5898  17.541   1.771  23.585
 5034W        W 5899  14.916   0.786  24.009
 5035W        W 5900  17.694   1.838  24.836
 5036W        W 5901  18.045   3.456  23.982
 5037W        W 5902  15.975   2.900  23.384
 5038W        W 5903  16.982   3.433  24.708
 5039W        W 5904  16.976   0.763  24.472
 5040W        W 5905  16.183   3.471  24.533
 5041W        W 5906  17.880   0.425  22.999
 5042W        W 5907  17.671   1.744  24.300
 5043W        W 5908  14.654   1.065  24.338
 5044W        W 5909  17.514   0.860  23.356
 5045W        W 5910  17.925   1.011  25.133
 5046W        W 5911  16.810   2.710  23.351
 5047W        W 5912  16.066   3.301  22.964
 5048W        W 5913  15.181   0.481  22.222
 5049W        W 5914  16.285   0.135  24.032
 5050W        W 5915  15.313   3.255  21.880
 5051W        W 5916  15.687   1.721  22.631
 5052W        W 5917  16.341   2.350  24.944
 5053W        W 5918  16.171   0.708  22.934
 5054W        W 5919  17.527   0.305  23.362
 5055W        W 5920  17.247   3.587  23.690
 5056W        W 5921  16.659   3.235  24.030
 5057W        W 5922  16.055   2.272  23.991
 5058W        W 5923  17.825   2.995  24.117
 5059W        W 5924  15.519   0.498  22.886
 5060W        W 5925  16.041   2.795  23.846
 5061W        W 5926  15.524   0.726  21.911
 5062W        W 5927  16.325   1.335  24.305
 5063W        W 5928  17.173   0.201  24.175
 5064W        W 5929  14.593   2.044  24.060
 5065W        W 5930  16.297   1.862  22.218
 5066W        W 5931  15.565   0.177  21.988
 5067W        W 5932  16.303   1.258  23.039
 5068W        W 5933  17.273   0.234  24.738
 5069W        W 5934  15.861   2.246  24.847
 5070W        W 5935  16.665   2.028  25.064
 5071W        W 5936  17.282   2.058  24.957
 5072W        W 5937  16.566   0.198  25.462
 5073W        W 5938  15.788   0.814  23.855
 5074W        W 5939  15.214   0.770  23.253
 5075W        W 5940  15.000   3.482  22.929
 5076W        W 5941  16.332   2.812  25.054
 5077W        W 5942  15.367   2.297  22.413
 5078W        W 5943  17.047   1.682  23.634
 5079W        W 5944  17.327   1.481  24.033
 5080W        W 5945  16.532   2.155  23.967
 5081W        W 5946  17.002   2.529  22.099
 5082W        W 5947  16.674   0.550  23.427
 5083W        W 5948  18.153   0.828  22.695
 5084W        W 5949  14.647   3.417  24.726
 5085W        W 5950  15.064   2.643  24.258
 5086W        W 5951  14.631   3.489  22.490
 5087W        W 5952  16.530   0.759  24.296
 5088W        W 5953  15.893   2.782  22.145
 5089W        W 5954  17.798   3.164  22.331
 5090W        W 5955  16.773   1.817  22.345
 5091W        W 5956  15.616   1.008  22.862
 5092W        W 5957  16.448   0.918  21.914
 5093W        W 5958  17.032   2.483  25.092
 5094W        W 5959  17.385   0.389  22.709
 5095W        W 5960  14.715   0.237  22.157
 5096W        W 5961  16.001   2.556  24.447
 5097W        W 5962  15.800   2.472  23.539
 5098W        W 5963  15.542   2.424  21.937
 5099W        W 5964  14.783   2.665  22.705
 5100W        W 5965  15.287   1.735  25.147
 5101W        W 5966  15.991   0.295  25.333
 5102W        W 5967  16.700   0.437  24.689
 5103W        W 5968  15.895   0.205  22.970
 5104W        W 5969  16.954   0.282  22.475
 5105W        W 5970  14.899   0.214  24.052
 5106W        W 5971  14.947   1.177  23.422
 5107W        W 5972  17.636   0.285  23.828
 5108W        W 5973  15.058   0.783  22.642
 5109W        W 5974  17.629   0.471  24.258
 5110W        W 5975  18.025   1.674  21.943
 5111W        W 5976  15.317   0.432  23.762
 5112W        W 5977  16.431   1.004  24.702
 5113W        W 5978  14.579   0.694  22.180
 5114W        W 5979  15.365   2.083  24.741
 5115W        W 5980  16.723   1.481  23.920
 5116W        W 5981  16.590   3.560  22.216
 5117W        W 5982  14.736   2.067  21.913
 5118W        W 5983  15.471   2.478  25.039
 5119W        W 5984  14.992   1.645  24.670
 5120W        W 5985  15.983   1.750  24.464
 5121W        W 5986  17.751   0.109  24.726
 5122W        W 5987  18.149   1.719  24.717
 5123W        W 5988  18.137   1.919  22.403
 5124W        W 5989  17.000   2.251  22.502
 5125W        W 5990  17.474   3.551  22.197
 5126W        W 5991  16.651   1.541  25.339
 5127W        W 5992  14.981   2.508  25.379
 5128W        W 5993  18.187   0.430  25.331
 5129W        W 5994  17.905   1.358  23.952
 5130W        W 5995  16.213   3.488  25.429
 5131W        W 5996  16.068   0.117  22.156
 5132W        W 5997  17.607   2.716  22.099
 5133W        W 5998  15.376   0.809  24.985
 5134W        W 5999  15.810   2.803  24.847
 5135W        W 6000  17.936   0.794  24.645
 5136W        W 6001  17.147   3.453  22.613
 5137W        W 6002  17.386   2.072  23.980
 5138W        W 6003  15.636   0.488  24.647
 5139W        W 6004  16.105   1.557  25.404
 5140W        W 6005  15.608   2.736  22.598
 5141W        W 6006  17.363   2.234  22.862
 5142W        W 6007  15.131   0.860  24.586
 5143W        W 6008  16.460   2.922  23.050
 5144W        W 6009  18.210   1.482  23.231
 5145W        W 6010  16.432   0.115  24.950
 5146W        W 6011  17.212   2.820  24.029
 5147W        W 6012  17.515   3.164  23.737
 5148W        W 6013  16.734   2.966  22.165
 5149W        W 6014  14.744   2.858  25.007
 5150W        W 6015  15.487   0.850  24.245
 5151W        W 6016  15.457   0.198  23.355
 5152W        W 6017  17.078   1.040  24.047
 5153W        W 6018  15.876   2.211  22.247
 5154W        W 6019  17.874   2.153  23.746
 5155W        W 6020  15.201   2.911  25.169
 5156W        W 6021  17.588   3.593  22.966
 5157W        W 6022  15.687   0.613  23.411
 5158W        W 6023  15.456   2.106  23.501
 5159W        W 6024  15.769   3.517  24.251
 5160W        W 6025  17.836   3.613  25.283
 5161W        W 6026  16.995   1.801  24.216
 5162W        W 6027  14.844   1.599  22.131
 5163W        W 6028  17.978   3.257  22.828
 5164W        W 6029  17.815   0.581  22.447
 5165W        W 6030  15.954   0.100  24.850
 5166W        W 6031  17.660   2.902  23.308
 5167W        W 6032  17.689   1.458  23.213
 5168W        W 6033  15.806   1.131  23.429
 5169W        W 6034  17.162   2.546  24.616
 5170W        W 6035  15.791   3.466  23.344
 5171W        W 6036  15.108   3.425  24.978
 5172W        W 6037  15.220   2.786  22.108
 5173W        W 6038  17.737   2.544  22.918
 5174W        W 6039  15.341   1.336  24.804
 5175W        W 6040  18.114   1.266  22.285
 5176W        W 6041  15.859   2.323  22.756
 5177W        W 6042  16.958   1.705  24.837
 5178W        W 6043  16.849   1.333  24.381
 5179W        W 6044  15.409   1.705  24.410
 5180W        W 6045  17.619   3.593  24.239
 5181W        W 6046  17.410   0.227  25.233
 5182W        W 6047  15.074   0.377  24.820
 5183W        W 6048  15.413   1.400  23.873
 5184W        W 6049  15.782   1.214  21.995
 5185W        W 6050  14.585   2.973  24.540
 5186W        W 6051  16.170   1.682  23.983
 5187W        W 6052  15.993   0.707  22.088
 5188W        W 6053  15.128   1.523  22.869
 5189W        W 6054  14.899   3.375  24.306
 5190W        W 6055  17.694   1.601  22.414
 5191W        W 6056  17.789   0.517  25.100
 5192W        W 6057  17.225   2.726  23.063
 5193W        W 6058  14.823   1.650  25.240
 5194W        W 6059  17.789   0.114  22.536
 5195W        W 6060  17.309   2.589  22.547
 5196W        W 6061  16.211   1.647  22.632
 5197W        W 6062  17.398   0.451  22.155
 5198W        W 6063  17.463   1.058  24.341
 5199W        W 6064  15.172   1.651  23.548
 5200W        W 6065  15.466   2.590  23.197
 5201W        W 6066  17.229   1.210  23.162
 5202W        W 6067  16.252   0.589  23.858
 5203W        W 6068  18.214   2.500  24.369
 5204W        W 6069  18.132   0.487  23.930
 5205W        W 6070  14.671   3.317  23.306
 5206W        W 6071  15.180   2.504  22.842
 5207W        W 6072  15.095   0.121  25.395
 5208W        W 6073  16.214   2.974  25.497
 5209W        W 6074  17.969   1.942  23.287
 5210W        W 6075  17.323   2.119  22.167
 5211W        W 6076  16.618   3.640  24.379
 5212W        W 6077  17.475   2.362  25.416
 5213W        W 6078  16.290   0.072  22.696
 5214W        W 6079  17.003   0.941  23.555
 5215W        W 6080  14.689   2.528  23.887
 5216W        W 6081  15.942   0.490  22.528
 5217W        W 6082  15.746   1.974  25.377
 5218W        W 6083  16.740   0.955  23.091
 5219W        W 6084  16.945   2.365  24.213
 5220W        W 6085  15.099   2.970  24.648
 5221W        W 6086  15.690   2.953  25.371
 5222W        W 6087  15.541   0.750  22.385
 5223W        W 6088  17.058   0.892  22.710
 5224W        W 6089  17.016   3.000  24.947
 5225W        W 6090  15.701   1.592  23.546
 5226W        W 6091  15.356   3.290  24.411
 5227W        W 6092  18.101   3.407  22.012
 5228W        W 6093  14.964   2.079  25.008
 5229W        W 6094  16.959   2.341  23.696
 5230W        W 6095  15.395   1.990  22.938
 5231W        W 6096  15.766   2.997  24.333
 5232W        W 6097  16.144   0.416  23.374
 5233W        W 6098  14.755   2.400  22.304
 5234W        W 6099  16.274   1.351  22.174
 5235W        W 6100  14.920   1.900  23.193
 5236W        W 6101  16.210   0.542  24.657
 5237W        W 6102  17.882   0.251  22.084
 5238W        W 6103  17.975   1.997  25.183
 5239W        W 6104  16.629   3.254  25.335
 5240W        W 6105  18.187   2.348  24.857
 5241W        W 6106  17.595   3.146  25.468
 5242W        W 6107  15.334   3.602  23.946
 5243W        W 6108  18.193   2.224  22.820
 5244W        W 6109  16.723   1.491  23.333
 5245W        W 6110  16.490   0.103  23.223
 5246W        W 6111  15.549   3.087  23.060
 5247W        W 6112  16.048   0.828  24.285
 5248W        W 6113  15.748   0.197  23.754
 5249W        W 6114  14.811   3.019  22.302
 5250W        W 6115  16.627   2.383  23.020
 5251W        W 6116  15.502   3.178  24.899
 5252W        W 6117  14.979   2.001  22.595
 5253W        W 6118  14.864   0.544  23.594
 5254W        W 6119  16.412   2.509  23.651
 5255W        W 6120  14.664   0.363  22.671
 5256W        W 6121  17.328   1.569  24.598
 5257W        W 6122  17.205   0.955  22.170
 5258W        W 6123  17.722   2.627  23.818
 5259W        W 6124  16.383   3.111  23.649
 5260W        W 6125  15.795   3.215  22.560
 5261W        W 6126  17.077   0.118  21.990
 5262W        W 6127  14.877   3.378  23.731
 5263W        W 6128  17.074   1.136  25.366
 5264W        W 6129  15.057   0.666  25.365
 5265W        W 6130  14.788   1.266  22.698
 5266W        W 6131  15.479   1.255  22.423
 5267W        W 6132  17.242   1.582  25.240
 5268W        W 6133  15.585   1.863  23.949
 5269W        W 6134  17.059   0.149  23.069
 5270W        W 6135  16.190   3.580  23.572
 5271W        W 6136  17.404   3.042  24.509
 5272W        W 6137  16.988   3.191  23.620
 5273W        W 6138  17.007   2.171  23.214
 5274W        W 6139  16.469   0.396  22.285
 5275W        W 6140  18.150   0.024  23.007
 5276W        W 6141  15.838   1.659  22.170
 5277W        W 6142  18.004   0.996  23.160
 5278W        W 6143  16.696   2.166  22.037
 5279W        W 6144  17.632   2.366  24.785
 5280W        W 6145  17.286   3.067  22.252
 5281W        W 6146  15.901   0.742  25.158
 5282W        W 6147  15.721   1.326  24.399
 5283W        W 6148  17.813   2.821  24.676
 5284W        W 6149  16.913   0.771  25.053
 5285W        W 6150  14.757   1.242  24.830
 5286W        W 6151  16.517   1.719  24.556
 5287W        W 6152  14.874   2.477  23.213
 5288W        W 6153  15.021   1.774  24.103
 5289W        W 6154  17.338   2.060  24.453
 5290W        W 6155  17.110   3.440  25.264
 5291W        W 6156  17.006   1.179  24.817
 5292W        W 6157  17.283   3.233  23.222
 5293W        W 6158  16.285   2.953  24.545
 5294W        W 6159  15.770   3.308  23.814
 5295W        W 6160  17.575   2.479  24.233
 5296W        W 6161  16.625   2.551  25.370
 5297W        W 6162  15.230   2.504  23.709
 5298W        W 6163  17.576   2.263  23.354
 5299W        W 6164  17.217   3.329  24.105
 5300W        W 6165  15.195   3.058  23.975
 5301W        W 6166  16.216   1.110  25.185
 5302W        W 6167  16.667   3.276  22.696
 5303W        W 6168  15.975   2.531  25.334
 5304W        W 6169  16.101   2.769  22.711
 5305W        W 6170  15.322   1.509  21.970
 5306W        W 6171  14.661   3.595  28.869
 5307W        W 6172  15.037   2.488  28.392
 5308W        W 6173  17.742   2.218  26.162
 5309W        W 6174  17.872   3.303  28.189
 5310W        W 6175  15.790   3.294  25.715
 5311W        W 6176  15.873   1.446  26.698
 5312W        W 6177  15.388   1.294  26.862
 5313W        W 6178  16.379   2.109  26.296
 5314W        W 6179  16.054   3.201  28.651
 5315W        W 6180  14.703   0.762  28.614
 5316W        W 6181  15.465   0.042  28.416
 5317W        W 6182  17.159   0.430  27.303
 5318W        W 6183  16.808   1.301  25.873
 5319W        W 6184  17.378   0.735  28.964
 5320W        W 6185  14.744   0.527  28.089
 5321W        W 6186  14.843   3.146  29.110
 5322W        W 6187  16.365   2.536  25.842
 5323W        W 6188  14.797   1.319  27.535
 5324W        W 6189  15.690   1.210  28.772
 5325W        W 6190  18.149   1.069  27.271
 5326W        W 6191  17.913   2.112  28.130
 5327W        W 6192  16.221   1.445  27.157
 5328W        W 6193  16.767   2.784  27.526
 5329W        W 6194  15.267   2.218  27.758
 5330W        W 6195  14.626   1.746  27.329
 5331W        W 6196  15.662   1.718  28.521
 5332W        W 6197  17.933   1.501  28.775
 5333W        W 6198  15.549   2.945  27.220
 5334W        W 6199  16.670   2.634  28.354
 5335W        W 6200  15.890   1.274  27.579
 5336W        W 6201  16.182   2.058  27.222
 5337W        W 6202  17.179   2.831  29.070
 5338W        W 6203  16.258   2.151  29.080
 5339W        W 6204  16.239   1.867  28.558
 5340W        W 6205  14.648   1.258  29.080
 5341W        W 6206  17.480   2.793  28.679
 5342W        W 6207  15.061   0.375  26.677
 5343W        W 6208  15.588   2.633  27.676
 5344W        W 6209  18.051   2.416  26.966
 5345W        W 6210  17.464   0.816  27.533
 5346W        W 6211  17.749   0.769  25.628
 5347W        W 6212  18.214   1.570  27.934
 5348W        W 6213  16.181   3.277  27.687
 5349W        W 6214  17.955   2.743  26.125
 5350W        W 6215  15.084   3.529  25.879
 5351W        W 6216  15.477   3.575  26.555
 5352W        W 6217  15.274   0.329  27.981
 5353W        W 6218  17.897   1.347  28.256
 5354W        W 6219  17.302   1.769  26.715
 5355W        W 6220  17.268   1.457  25.742
 5356W        W 6221  16.476   2.601  27.882
 5357W        W 6222  16.282   0.931  27.081
 5358W        W 6223  16.882   3.018  28.075
 5359W        W 6224  17.753   1.809  26.497
 5360W        W 6225  16.655   0.467  26.513
 5361W        W 6226  15.312   3.161  26.196
 5362W        W 6227  14.683   0.660  26.795
 5363W        W 6228  17.469   1.267  27.269
 5364W        W 6229  14.927   2.884  27.184
 5365W        W 6230  16.268   3.234  26.054
 5366W        W 6231  17.660   1.260  25.518
 5367W        W 6232  14.683   3.018  27.682
 5368W        W 6233  15.474   2.590  28.162
 5369W        W 6234  15.847   1.950  26.781
 5370W        W 6235  15.869   0.355  27.874
 5371W        W 6236  18.098   0.117  27.171
 5372W        W 6237  15.317   1.989  25.639
 5373W        W 6238  14.972   1.022  25.818
 5374W        W 6239  15.034   2.978  26.612
 5375W        W 6240  16.165   2.461  26.860
 5376W        W 6241  17.497   3.320  28.574
 5377W        W 6242  16.423   0.962  26.258
 5378W        W 6243  17.806   3.360  27.030
 5379W        W 6244  17.483   1.213  28.628
 5380W        W 6245  18.196   2.869  26.762
 5381W        W 6246  16.823   2.161  28.246
 5382W        W 6247  14.589   1.712  26.452
 5383W        W 6248  15.700   2.127  28.025
 5384W        W 6249  16.904   1.391  26.403
 5385W        W 6250  16.781   1.881  26.507
 5386W        W 6251  15.124   1.301  27.981
 5387W        W 6252  15.109   1.177  28.903
 5388W        W 6253  14.999   0.094  27.062
 5389W        W 6254  16.767   0.441  27.623
 5390W        W 6255  16.415   0.626  28.786
 5391W        W 6256  16.770   0.775  25.964
 5392W        W 6257  17.953   3.168  28.718
 5393W        W 6258  16.920   0.249  28.757
 5394W        W 6259  17.939   2.550  28.879
 5395W        W 6260  17.369   0.717  28.475
 5396W        W 6261  17.169   0.655  26.745
 5397W        W 6262  17.562   1.789  29.149
 5398W        W 6263  15.302   3.365  27.135
 5399W        W 6264  15.960   1.082  26.121
 5400W        W 6265  15.529   0.366  28.785
 5401W        W 6266  17.581   0.850  26.466
 5402W        W 6267  17.948   1.332  26.411
 5403W        W 6268  15.691   3.549  28.882
 5404W        W 6269  15.617   0.085  26.117
 5405W        W 6270  17.938   0.619  27.152
 5406W        W 6271  18.088   2.868  25.597
 5407W        W 6272  14.995   2.071  27.299
 5408W        W 6273  16.912   0.658  25.529
 5409W        W 6274  18.046   2.990  27.249
 5410W        W 6275  18.085   0.184  27.999
 5411W        W 6276  16.530   1.396  28.553
 5412W        W 6277  16.623   2.735  26.256
 5413W        W 6278  17.023   2.029  28.996
 5414W        W 6279  16.697   0.006  27.305
 5415W        W 6280  15.309   0.909  27.368
 5416W        W 6281  14.863   2.109  28.142
 5417W        W 6282  16.722   3.302  26.848
 5418W        W 6283  17.916   0.899  27.720
 5419W        W 6284  16.553   3.246  28.487
 5420W        W 6285  17.896   2.305  25.692
 5421W        W 6286  16.331   1.788  26.753
 5422W        W 6287  18.183   0.299  28.494
 5423W        W 6288  16.332   2.134  28.088
 5424W        W 6289  16.549   1.020  27.533
 5425W        W 6290  17.401   1.318  26.371
 5426W        W 6291  17.688   1.051  26.013
 5427W        W 6292  17.497   3.091  26.402
 5428W        W 6293  17.331   2.694  27.198
 5429W        W 6294  17.227   1.773  26.176
 5430W        W 6295  16.660   1.983  27.162
 5431W        W 6296  17.541   1.771  27.229
 5432W        W 6297  14.916   0.786  27.653
 5433W        W 6298  17.694   1.838  28.480
 5434W        W 6299  18.045   3.456  27.626
 5435W        W 6300  15.975   2.900  27.028
 5436W        W 6301  16.982   3.433  28.352
 5437W        W 6302  16.976   0.763  28.116
 5438W        W 6303  16.183   3.471  28.177
 5439W        W 6304  17.880   0.425  26.643
 5440W        W 6305  17.671   1.744  27.944
 5441W        W 6306  14.654   1.065  27.982
 5442W        W 6307  17.514   0.860  27.000
 5443W        W 6308  17.925   1.011  28.777
 5444W        W 6309  16.810   2.710  26.995
 5445W        W 6310  16.066   3.301  26.608
 5446W        W 6311  15.181   0.481  25.866
 5447W        W 6312  16.285   0.135  27.676
 5448W        W 6313  15.313   3.255  25.524
 5449W        W 6314  15.687   1.721  26.275
 5450W        W 6315  16.341   2.350  28.588
 5451W        W 6316  16.171   0.708  26.578
 5452W        W 6317  17.527   0.305  27.006
 5453W        W 6318  17.247   3.587  27.334
 5454W        W 6319  16.659   3.235  27.674
 5455W        W 6320  16.055   2.272  27.635
 5456W        W 6321  17.825   2.995  27.761
 5457W        W 6322  15.519   0.498  26.530
 5458W        W 6323  16.041   2.795  27.490
 5459W        W 6324  15.524   0.726  25.555
 5460W        W 6325  16.325   1.335  27.949
 5461W        W 6326  17.173   0.201  27.819
 5462W        W 6327  14.593   2.044  27.704
 5463W        W 6328  16.297   1.862  25.862
 5464W        W 6329  15.565   0.177  25.632
 5465W        W 6330  16.303   1.258  26.683
 5466W        W 6331  17.273   0.234  28.382
 5467W        W 6332  15.861   2.246  28.491
 5468W        W 6333  16.665   2.028  28.708
 5469W        W 6334  17.282   2.058  28.601
 5470W        W 6335  16.566   0.198  29.106
 5471W        W 6336  15.788   0.814  27.499
 5472W        W 6337  15.214   0.770  26.897
 5473W        W 6338  15.000   3.482  26.573
 5474W        W 6339  16.332   2.812  28.698
 5475W        W 6340  15.367   2.297  26.057
 5476W        W 6341  17.047   1.682  27.278
 5477W        W 6342  17.327   1.481  27.677
 5478W        W 6343  16.532   2.155  27.611
 5479W        W 6344  17.002   2.529  25.743
 5480W        W 6345  16.674   0.550  27.071
 5481W        W 6346  18.153   0.828  26.339
 5482W        W 6347  14.647   3.417  28.370
 5483W        W 6348  15.064   2.643  27.902
 5484W        W 6349  14.631   3.489  26.134
 5485W        W 6350  16.530   0.759  27.940
 5486W        W 6351  15.893   2.782  25.789
 5487W        W 6352  17.798   3.164  25.975
 5488W        W 6353  16.773   1.817  25.989
 5489W        W 6354  15.616   1.008  26.506
 5490W        W 6355  16.448   0.918  25.558
 5491W        W 6356  17.032   2.483  28.736
 5492W        W 6357  17.385   0.389  26.353
 5493W        W 6358  14.715   0.237  25.801
 5494W        W 6359  16.001   2.556  28.091
 5495W        W 6360  15.800   2.472  27.183
 5496W        W 6361  15.542   2.424  25.581
 5497W        W 6362  14.783   2.665  26.349
 5498W        W 6363  15.287   1.735  28.791
 5499W        W 6364  15.991   0.295  28.977
 5500W        W 6365  16.700   0.437  28.333
 5501W        W 6366  15.895   0.205  26.614
 5502W        W 6367  16.954   0.282  26.119
 5503W        W 6368  14.899   0.214  27.696
 5504W        W 6369  14.947   1.177  27.066
 5505W        W 6370  17.636   0.285  27.472
 5506W        W 6371  15.058   0.783  26.286
 5507W        W 6372  17.629   0.471  27.902
 5508W        W 6373  18.025   1.674  25.587
 5509W        W 6374  15.317   0.432  27.406
 5510W        W 6375  16.431   1.004  28.346
 5511W        W 6376  14.579   0.694  25.824
 5512W        W 6377  15.365   2.083  28.385
 5513W        W 6378  16.723   1.481  27.564
 5514W        W 6379  16.590   3.560  25.860
 5515W        W 6380  14.736   2.067  25.557
 5516W        W 6381  15.471   2.478  28.683
 5517W        W 6382  14.992   1.645  28.314
 5518W        W 6383  15.983   1.750  28.108
 5519W        W 6384  17.751   0.109  28.370
 5520W        W 6385  18.149   1.719  28.361
 5521W        W 6386  18.137   1.919  26.047
 5522W        W 6387  17.000   2.251  26.146
 5523W        W 6388  17.474   3.551  25.841
 5524W        W 6389  16.651   1.541  28.983
 5525W        W 6390  14.981   2.508  29.023
 5526W        W 6391  18.187   0.430  28.975
 5527W        W 6392  17.905   1.358  27.596
 5528W        W 6393  16.213   3.488  29.073
 5529W        W 6394  16.068   0.117  25.800
 5530W        W 6395  17.607   2.716  25.743
 5531W        W 6396  15.376   0.809  28.629
 5532W        W 6397  15.810   2.803  28.491
 5533W        W 6398  17.936   0.794  28.289
 5534W        W 6399  17.147   3.453  26.257
 5535W        W 6400  17.386   2.072  27.624
 5536W        W 6401  15.636   0.488  28.291
 5537W        W 6402  16.105   1.557  29.048
 5538W        W 6403  15.608   2.736  26.242
 5539W        W 6404  17.363   2.234  26.506
 5540W        W 6405  15.131   0.860  28.230
 5541W        W 6406  16.460   2.922  26.694
 5542W        W 6407  18.210   1.482  26.875
 5543W        W 6408  16.432   0.115  28.594
 5544W        W 6409  17.212   2.820  27.673
 5545W        W 6410  17.515   3.164  27.381
 5546W        W 6411  16.734   2.966  25.809
 5547W        W 6412  14.744   2.858  28.651
 5548W        W 6413  15.487   0.850  27.889
 5549W        W 6414  15.457   0.198  26.999
 5550W        W 6415  17.078   1.040  27.691
 5551W        W 6416  15.876   2.211  25.891
 5552W        W 6417  17.874   2.153  27.390
 5553W        W 6418  15.201   2.911  28.813
 5554W        W 6419  17.588   3.593  26.610
 5555W        W 6420  15.687   0.613  27.055
 5556W        W 6421  15.456   2.106  27.145
 5557W        W 6422  15.769   3.517  27.895
 5558W        W 6423  17.836   3.613  28.927
 5559W        W 6424  16.995   1.801  27.860
 5560W        W 6425  14.844   1.599  25.775
 5561W        W 6426  17.978   3.257  26.472
 5562W        W 6427  17.815   0.581  26.091
 5563W        W 6428  15.954   0.100  28.494
 5564W        W 6429  17.660   2.902  26.952
 5565W        W 6430  17.689   1.458  26.857
 5566W        W 6431  15.806   1.131  27.073
 5567W        W 6432  16.051   1.393  28.397
 5568W        W 6433  17.162   2.546  28.260
 5569W        W 6434  15.812   1.000  28.372
 5570W        W 6435  15.791   3.466  26.988
 5571W        W 6436  15.108   3.425  28.622
 5572W        W 6437  15.220   2.786  25.752
 5573W        W 6438  17.737   2.544  26.562
 5574W        W 6439  15.341   1.336  28.448
 5575W        W 6440  18.114   1.266  25.929
 5576W        W 6441  15.859   2.323  26.400
 5577W        W 6442  16.958   1.705  28.481
 5578W        W 6443  16.849   1.333  28.025
 5579W        W 6444  15.409   1.705  28.054
 5580W        W 6445  17.619   3.593  27.883
 5581W        W 6446  17.410   0.227  28.877
 5582W        W 6447  15.074   0.377  28.464
 5583W        W 6448  15.413   1.400  27.517
 5584W        W 6449  15.782   1.214  25.639
 5585W        W 6450  14.585   2.973  28.184
 5586W        W 6451  16.170   1.682  27.627
 5587W        W 6452  15.993   0.707  25.732
 5588W        W 6453  15.128   1.523  26.513
 5589W        W 6454  14.899   3.375  27.950
 5590W        W 6455  17.694   1.601  26.058
 5591W        W 6456  17.789   0.517  28.744
 5592W        W 6457  17.225   2.726  26.707
 5593W        W 6458  14.823   1.650  28.884
 5594W        W 6459  17.789   0.114  26.180
 5595W        W 6460  17.309   2.589  26.191
 5596W        W 6461  16.211   1.647  26.276
 5597W        W 6462  17.398   0.451  25.799
 5598W        W 6463  17.463   1.058  27.985
 5599W        W 6464  15.172   1.651  27.192
 5600W        W 6465  15.466   2.590  26.841
 5601W        W 6466  17.229   1.210  26.806
 5602W        W 6467  16.252   0.589  27.502
 5603W        W 6468  18.214   2.500  28.013
 5604W        W 6469  18.132   0.487  27.574
 5605W        W 6470  14.671   3.317  26.950
 5606W        W 6471  15.180   2.504  26.486
 5607W        W 6472  15.095   0.121  29.039
 5608W        W 6473  16.214   2.974  29.141
 5609W        W 6474  17.969   1.942  26.931
 5610W        W 6475  17.323   2.119  25.811
 5611W        W 6476  16.618   3.640  28.023
 5612W        W 6477  17.475   2.362  29.060
 5613W        W 6478  16.290   0.072  26.340
 5614W        W 6479  17.003   0.941  27.199
 5615W        W 6480  14.689   2.528  27.531
 5616W        W 6481  15.942   0.490  26.172
 5617W        W 6482  15.746   1.974  29.021
 5618W        W 6483  16.740   0.955  26.735
 5619W        W 6484  16.945   2.365  27.857
 5620W        W 6485  15.690   2.953  29.015
 5621W        W 6486  15.541   0.750  26.029
 5622W        W 6487  17.058   0.892  26.354
 5623W        W 6488  17.016   3.000  28.591
 5624W        W 6489  15.701   1.592  27.190
 5625W        W 6490  15.356   3.290  28.055
 5626W        W 6491  18.101   3.407  25.656
 5627W        W 6492  14.964   2.079  28.652
 5628W        W 6493  16.959   2.341  27.340
 5629W        W 6494  15.395   1.990  26.582
 5630W        W 6495  15.766   2.997  27.977
 5631W        W 6496  16.144   0.416  27.018
 5632W        W 6497  14.755   2.400  25.948
 5633W        W 6498  16.274   1.351  25.818
 5634W        W 6499  14.920   1.900  26.837
 5635W        W 6500  16.210   0.542  28.301
 5636W        W 6501  17.882   0.251  25.728
 5637W        W 6502  17.975   1.997  28.827
 5638W        W 6503  16.629   3.254  28.979
 5639W        W 6504  18.187   2.348  28.501
 5640W        W 6505  17.595   3.146  29.112
 5641W        W 6506  15.334   3.602  27.590
 5642W        W 6507  18.193   2.224  26.464
 5643W        W 6508  16.723   1.491  26.977
 5644W        W 6509  16.490   0.103  26.867
 5645W        W 6510  15.549   3.087  26.704
 5646W        W 6511  16.048   0.828  27.929
 5647W        W 6512  15.748   0.197  27.398
 5648W        W 6513  14.811   3.019  25.946
 5649W        W 6514  16.627   2.383  26.664
 5650W        W 6515  14.979   2.001  26.239
 5651W        W 6516  14.864   0.544  27.238
 5652W        W 6517  16.412   2.509  27.295
 5653W        W 6518  14.664   0.363  26.315
 5654W        W 6519  17.328   1.569  28.242
 5655W        W 6520  17.205   0.955  25.814
 5656W        W 6521  17.722   2.627  27.462
 5657W        W 6522  16.383   3.111  27.293
 5658W        W 6523  15.795   3.215  26.204
 5659W        W 6524  17.077   0.118  25.634
 5660W        W 6525  14.877   3.378  27.375
 5661W        W 6526  17.074   1.136  29.010
 5662W        W 6527  15.057   0.666  29.009
 5663W        W 6528  14.788   1.266  26.342
 5664W        W 6529  15.479   1.255  26.067
 5665W        W 6530  17.242   1.582  28.884
 5666W        W 6531  15.585   1.863  27.593
 5667W        W 6532  17.059   0.149  26.713
 5668W        W 6533  16.190   3.580  27.216
 5669W        W 6534  17.404   3.042  28.153
 5670W        W 6535  16.988   3.191  27.264
 5671W        W 6536  17.007   2.171  26.858
 5672W        W 6537  16.469   0.396  25.929
 5673W        W 6538  18.150   0.024  26.651
 5674W        W 6539  15.838   1.659  25.814
 5675W        W 6540  18.004   0.996  26.804
 5676W        W 6541  16.696   2.166  25.681
 5677W        W 6542  17.632   2.366  28.429
 5678W        W 6543  17.286   3.067  25.896
 5679W        W 6544  15.901   0.742  28.802
 5680W        W 6545  15.721   1.326  28.043
 5681W        W 6546  17.813   2.821  28.320
 5682W        W 6547  16.913   0.771  28.697
 5683W        W 6548  14.757   1.242  28.474
 5684W        W 6549  16.517   1.719  28.200
 5685W        W 6550  14.874   2.477  26.857
 5686W        W 6551  15.021   1.774  27.747
 5687W        W 6552  17.338   2.060  28.097
 5688W        W 6553  17.110   3.440  28.908
 5689W        W 6554  17.006   1.179  28.461
 5690W        W 6555  17.283   3.233  26.866
 5691W        W 6556  16.285   2.953  28.189
 5692W        W 6557  15.770   3.308  27.458
 5693W        W 6558  17.575   2.479  27.877
 5694W        W 6559  16.625   2.551  29.014
 5695W        W 6560  15.230   2.504  27.353
 5696W        W 6561  17.576   2.263  26.998
 5697W        W 6562  17.217   3.329  27.749
 5698W        W 6563  15.195   3.058  27.619
 5699W        W 6564  16.216   1.110  28.829
 5700W        W 6565  16.667   3.276  26.340
 5701W        W 6566  15.975   2.531  28.978
 5702W        W 6567  16.101   2.769  26.355
 5703W        W 6568  15.322   1.509  25.614
 5704W        W 6569  14.661   7.239   3.359
 5705W        W 6570  15.037   6.132   2.882
 5706W        W 6571  17.742   5.862   0.652
 5707W        W 6572  17.872   6.947   2.679
 5708W        W 6573  15.790   6.938   0.205
 5709W        W 6574  15.873   5.090   1.188
 5710W        W 6575  15.388   4.938   1.352
 5711W        W 6576  16.379   5.753   0.786
 5712W        W 6577  16.054   6.845   3.141
 5713W        W 6578  14.703   4.406   3.104
 5714W        W 6579  15.465   3.686   2.906
 5715W        W 6580  17.159   4.074   1.793
 5716W        W 6581  16.808   4.945   0.363
 5717W        W 6582  17.378   4.379   3.454
 5718W        W 6583  14.744   4.171   2.579
 5719W        W 6584  14.843   6.790   3.600
 5720W        W 6585  16.365   6.180   0.332
 5721W        W 6586  14.797   4.963   2.025
 5722W        W 6587  15.690   4.854   3.262
 5723W        W 6588  18.149   4.713   1.761
 5724W        W 6589  17.913   5.756   2.620
 5725W        W 6590  16.221   5.089   1.647
 5726W        W 6591  16.767   6.428   2.016
 5727W        W 6592  15.267   5.862   2.248
 5728W        W 6593  14.626   5.390   1.819
 5729W        W 6594  15.662   5.362   3.011
 5730W        W 6595  17.933   5.145   3.265
 5731W        W 6596  15.549   6.589   1.710
 5732W        W 6597  16.670   6.278   2.844
 5733W        W 6598  15.890   4.918   2.069
 5734W        W 6599  16.182   5.702   1.712
 5735W        W 6600  17.179   6.475   3.560
 5736W        W 6601  16.258   5.795   3.570
 5737W        W 6602  16.239   5.511   3.048
 5738W        W 6603  14.648   4.902   3.570
 5739W        W 6604  17.480   6.437   3.169
 5740W        W 6605  15.061   4.019   1.167
 5741W        W 6606  15.588   6.277   2.166
 5742W        W 6607  18.051   6.060   1.456
 5743W        W 6608  17.464   4.460   2.023
 5744W        W 6609  17.749   4.413   0.118
 5745W        W 6610  18.214   5.214   2.424
 5746W        W 6611  16.181   6.921   2.177
 5747W        W 6612  17.955   6.387   0.615
 5748W        W 6613  15.084   7.173   0.369
 5749W        W 6614  15.477   7.219   1.045
 5750W        W 6615  15.274   3.973   2.471
 5751W        W 6616  17.897   4.991   2.746
 5752W        W 6617  17.302   5.413   1.205
 5753W        W 6618  17.268   5.101   0.232
 5754W        W 6619  16.476   6.245   2.372
 5755W        W 6620  16.282   4.575   1.571
 5756W        W 6621  16.882   6.662   2.565
 5757W        W 6622  17.753   5.453   0.987
 5758W        W 6623  16.655   4.111   1.003
 5759W        W 6624  15.312   6.805   0.686
 5760W        W 6625  14.683   4.304   1.285
 5761W        W 6626  17.469   4.911   1.759
 5762W        W 6627  14.927   6.528   1.674
 5763W        W 6628  17.660   4.904   0.008
 5764W        W 6629  14.683   6.662   2.172
 5765W        W 6630  15.474   6.234   2.652
 5766W        W 6631  15.847   5.594   1.271
 5767W        W 6632  15.869   3.999   2.364
 5768W        W 6633  18.098   3.761   1.661
 5769W        W 6634  15.317   5.633   0.129
 5770W        W 6635  14.972   4.666   0.308
 5771W        W 6636  15.034   6.622   1.102
 5772W        W 6637  16.165   6.105   1.350
 5773W        W 6638  17.497   6.964   3.064
 5774W        W 6639  16.423   4.606   0.748
 5775W        W 6640  17.806   7.004   1.520
 5776W        W 6641  17.483   4.857   3.118
 5777W        W 6642  18.196   6.513   1.252
 5778W        W 6643  16.823   5.805   2.736
 5779W        W 6644  14.589   5.356   0.942
 5780W        W 6645  15.700   5.771   2.515
 5781W        W 6646  16.904   5.035   0.893
 5782W        W 6647  16.781   5.525   0.997
 5783W        W 6648  15.124   4.945   2.471
 5784W        W 6649  15.109   4.821   3.393
 5785W        W 6650  14.999   3.738   1.552
 5786W        W 6651  16.767   4.085   2.113
 5787W        W 6652  16.415   4.270   3.276
 5788W        W 6653  16.770   4.419   0.454
 5789W        W 6654  17.953   6.812   3.208
 5790W        W 6655  16.920   3.893   3.247
 5791W        W 6656  17.939   6.194   3.369
 5792W        W 6657  17.369   4.361   2.965
 5793W        W 6658  17.169   4.299   1.235
 5794W        W 6659  17.562   5.433   3.639
 5795W        W 6660  15.302   7.009   1.625
 5796W        W 6661  15.960   4.726   0.611
 5797W        W 6662  15.529   4.010   3.275
 5798W        W 6663  17.581   4.494   0.956
 5799W        W 6664  17.948   4.976   0.901
 5800W        W 6665  15.691   7.193   3.372
 5801W        W 6666  15.617   3.729   0.607
 5802W        W 6667  17.938   4.263   1.642
 5803W        W 6668  18.088   6.512   0.087
 5804W        W 6669  14.995   5.715   1.789
 5805W        W 6670  16.912   4.302   0.019
 5806W        W 6671  18.046   6.634   1.739
 5807W        W 6672  18.085   3.828   2.489
 5808W        W 6673  16.530   5.040   3.043
 5809W        W 6674  16.623   6.379   0.746
 5810W        W 6675  17.023   5.673   3.486
 5811W        W 6676  16.697   3.650   1.795
 5812W        W 6677  15.309   4.553   1.858
 5813W        W 6678  14.863   5.753   2.632
 5814W        W 6679  16.722   6.946   1.338
 5815W        W 6680  17.916   4.543   2.210
 5816W        W 6681  16.553   6.890   2.977
 5817W        W 6682  17.896   5.949   0.182
 5818W        W 6683  16.331   5.432   1.243
 5819W        W 6684  18.183   3.943   2.984
 5820W        W 6685  16.332   5.778   2.578
 5821W        W 6686  16.549   4.664   2.023
 5822W        W 6687  17.401   4.962   0.861
 5823W        W 6688  17.688   4.695   0.503
 5824W        W 6689  17.497   6.735   0.892
 5825W        W 6690  17.331   6.338   1.688
 5826W        W 6691  17.227   5.417   0.666
 5827W        W 6692  16.660   5.627   1.652
 5828W        W 6693  17.541   5.415   1.719
 5829W        W 6694  14.916   4.430   2.143
 5830W        W 6695  17.694   5.482   2.970
 5831W        W 6696  18.045   7.100   2.116
 5832W        W 6697  15.975   6.544   1.518
 5833W        W 6698  16.982   7.077   2.842
 5834W        W 6699  16.976   4.407   2.606
 5835W        W 6700  16.183   7.115   2.667
 5836W        W 6701  17.880   4.069   1.133
 5837W        W 6702  17.671   5.388   2.434
 5838W        W 6703  14.654   4.709   2.472
 5839W        W 6704  17.514   4.504   1.490
 5840W        W 6705  17.925   4.655   3.267
 5841W        W 6706  16.810   6.354   1.485
 5842W        W 6707  16.066   6.945   1.098
 5843W        W 6708  15.181   4.125   0.356
 5844W        W 6709  16.285   3.779   2.166
 5845W        W 6710  15.313   6.899   0.014
 5846W        W 6711  15.687   5.365   0.765
 5847W        W 6712  16.341   5.994   3.078
 5848W        W 6713  16.171   4.352   1.068
 5849W        W 6714  17.527   3.949   1.496
 5850W        W 6715  17.247   7.231   1.824
 5851W        W 6716  16.659   6.879   2.164
 5852W        W 6717  16.055   5.916   2.125
 5853W        W 6718  17.825   6.639   2.251
 5854W        W 6719  15.519   4.142   1.020
 5855W        W 6720  16.041   6.439   1.980
 5856W        W 6721  15.524   4.370   0.045
 5857W        W 6722  16.325   4.979   2.439
 5858W        W 6723  17.173   3.845   2.309
 5859W        W 6724  14.593   5.688   2.194
 5860W        W 6725  16.297   5.506   0.352
 5861W        W 6726  15.565   3.821   0.122
 5862W        W 6727  16.303   4.902   1.173
 5863W        W 6728  17.273   3.878   2.872
 5864W        W 6729  15.861   5.890   2.981
 5865W        W 6730  16.665   5.672   3.198
 5866W        W 6731  17.282   5.702   3.091
 5867W        W 6732  16.566   3.842   3.596
 5868W        W 6733  15.788   4.458   1.989
 5869W        W 6734  15.214   4.414   1.387
 5870W        W 6735  15.000   7.126   1.063
 5871W        W 6736  16.332   6.456   3.188
 5872W        W 6737  15.367   5.941   0.547
 5873W        W 6738  17.047   5.326   1.768
 5874W        W 6739  17.327   5.125   2.167
 5875W        W 6740  16.532   5.799   2.101
 5876W        W 6741  17.002   6.173   0.233
 5877W        W 6742  16.674   4.194   1.561
 5878W        W 6743  18.153   4.472   0.829
 5879W        W 6744  14.647   7.061   2.860
 5880W        W 6745  15.064   6.287   2.392
 5881W        W 6746  14.631   7.133   0.624
 5882W        W 6747  16.530   4.403   2.430
 5883W        W 6748  15.893   6.426   0.279
 5884W        W 6749  17.798   6.808   0.465
 5885W        W 6750  16.773   5.461   0.479
 5886W        W 6751  15.616   4.652   0.996
 5887W        W 6752  16.448   4.562   0.048
 5888W        W 6753  17.032   6.127   3.226
 5889W        W 6754  17.385   4.033   0.843
 5890W        W 6755  14.715   3.881   0.291
 5891W        W 6756  16.001   6.200   2.581
 5892W        W 6757  15.800   6.116   1.673
 5893W        W 6758  15.542   6.068   0.071
 5894W        W 6759  14.783   6.309   0.839
 5895W        W 6760  15.287   5.379   3.281
 5896W        W 6761  15.991   3.939   3.467
 5897W        W 6762  16.700   4.081   2.823
 5898W        W 6763  15.895   3.849   1.104
 5899W        W 6764  16.954   3.926   0.609
 5900W        W 6765  14.899   3.858   2.186
 5901W        W 6766  14.947   4.821   1.556
 5902W        W 6767  17.636   3.929   1.962
 5903W        W 6768  15.058   4.427   0.776
 5904W        W 6769  17.629   4.115   2.392
 5905W        W 6770  18.025   5.318   0.077
 5906W        W 6771  15.317   4.076   1.896
 5907W        W 6772  16.431   4.648   2.836
 5908W        W 6773  14.579   4.338   0.314
 5909W        W 6774  15.365   5.727   2.875
 5910W        W 6775  16.723   5.125   2.054
 5911W        W 6776  16.590   7.204   0.350
 5912W        W 6777  14.736   5.711   0.047
 5913W        W 6778  15.471   6.122   3.173
 5914W        W 6779  14.992   5.289   2.804
 5915W        W 6780  15.983   5.394   2.598
 5916W        W 6781  17.751   3.753   2.860
 5917W        W 6782  18.149   5.363   2.851
 5918W        W 6783  18.137   5.563   0.537
 5919W        W 6784  17.000   5.895   0.636
 5920W        W 6785  17.474   7.195   0.331
 5921W        W 6786  16.651   5.185   3.473
 5922W        W 6787  14.981   6.152   3.513
 5923W        W 6788  18.187   4.074   3.465
 5924W        W 6789  17.905   5.002   2.086
 5925W        W 6790  16.213   7.132   3.563
 5926W        W 6791  16.068   3.761   0.290
 5927W        W 6792  17.607   6.360   0.233
 5928W        W 6793  15.376   4.453   3.119
 5929W        W 6794  15.810   6.447   2.981
 5930W        W 6795  17.936   4.438   2.779
 5931W        W 6796  17.147   7.097   0.747
 5932W        W 6797  17.386   5.716   2.114
 5933W        W 6798  15.636   4.132   2.781
 5934W        W 6799  16.105   5.201   3.538
 5935W        W 6800  15.608   6.380   0.732
 5936W        W 6801  17.363   5.878   0.996
 5937W        W 6802  15.131   4.504   2.720
 5938W        W 6803  16.460   6.566   1.184
 5939W        W 6804  18.210   5.126   1.365
 5940W        W 6805  16.432   3.759   3.084
 5941W        W 6806  17.212   6.464   2.163
 5942W        W 6807  17.515   6.808   1.871
 5943W        W 6808  16.734   6.610   0.299
 5944W        W 6809  14.744   6.502   3.141
 5945W        W 6810  15.487   4.494   2.379
 5946W        W 6811  15.457   3.842   1.489
 5947W        W 6812  17.078   4.684   2.181
 5948W        W 6813  15.876   5.855   0.381
 5949W        W 6814  17.874   5.797   1.880
 5950W        W 6815  15.201   6.555   3.303
 5951W        W 6816  17.588   7.237   1.100
 5952W        W 6817  15.687   4.257   1.545
 5953W        W 6818  15.456   5.750   1.635
 5954W        W 6819  15.769   7.161   2.385
 5955W        W 6820  17.836   7.257   3.417
 5956W        W 6821  16.995   5.445   2.350
 5957W        W 6822  14.844   5.243   0.265
 5958W        W 6823  17.978   6.901   0.962
 5959W        W 6824  17.815   4.225   0.581
 5960W        W 6825  15.954   3.744   2.984
 5961W        W 6826  17.660   6.546   1.442
 5962W        W 6827  17.689   5.102   1.347
 5963W        W 6828  15.806   4.775   1.563
 5964W        W 6829  16.051   5.037   2.887
 5965W        W 6830  17.162   6.190   2.750
 5966W        W 6831  15.812   4.644   2.862
 5967W        W 6832  15.791   7.110   1.478
 5968W        W 6833  15.108   7.069   3.112
 5969W        W 6834  15.220   6.430   0.242
 5970W        W 6835  17.737   6.188   1.052
 5971W        W 6836  15.341   4.980   2.938
 5972W        W 6837  18.114   4.910   0.419
 5973W        W 6838  15.859   5.967   0.890
 5974W        W 6839  16.958   5.349   2.971
 5975W        W 6840  16.849   4.977   2.515
 5976W        W 6841  15.409   5.349   2.544
 5977W        W 6842  17.619   7.237   2.373
 5978W        W 6843  17.410   3.871   3.367
 5979W        W 6844  15.074   4.021   2.954
 5980W        W 6845  15.413   5.044   2.007
 5981W        W 6846  15.782   4.858   0.129
 5982W        W 6847  14.585   6.617   2.674
 5983W        W 6848  16.170   5.326   2.117
 5984W        W 6849  15.993   4.351   0.222
 5985W        W 6850  15.128   5.167   1.003
 5986W        W 6851  14.899   7.019   2.440
 5987W        W 6852  17.694   5.245   0.548
 5988W        W 6853  17.789   4.161   3.234
 5989W        W 6854  17.225   6.370   1.197
 5990W        W 6855  14.823   5.294   3.374
 5991W        W 6856  17.789   3.758   0.670
 5992W        W 6857  17.309   6.233   0.681
 5993W        W 6858  16.211   5.291   0.766
 5994W        W 6859  17.398   4.095   0.289
 5995W        W 6860  17.463   4.702   2.475
 5996W        W 6861  15.172   5.295   1.682
 5997W        W 6862  15.466   6.234   1.331
 5998W        W 6863  17.229   4.854   1.296
 5999W        W 6864  16.252   4.233   1.992
 6000W        W 6865  18.214   6.144   2.503
 6001W        W 6866  18.132   4.131   2.064
 6002W        W 6867  14.671   6.961   1.440
 6003W        W 6868  15.180   6.148   0.976
 6004W        W 6869  15.095   3.765   3.529
 6005W        W 6870  16.214   6.618   3.631
 6006W        W 6871  17.969   5.586   1.421
 6007W        W 6872  17.323   5.763   0.301
 6008W        W 6873  16.618   7.284   2.513
 6009W        W 6874  17.475   6.006   3.550
 6010W        W 6875  16.290   3.716   0.830
 6011W        W 6876  17.003   4.585   1.689
 6012W        W 6877  14.689   6.172   2.021
 6013W        W 6878  15.942   4.134   0.662
 6014W        W 6879  15.746   5.618   3.511
 6015W        W 6880  16.740   4.599   1.225
 6016W        W 6881  16.945   6.009   2.347
 6017W        W 6882  15.099   6.614   2.782
 6018W        W 6883  15.690   6.597   3.505
 6019W        W 6884  15.541   4.394   0.519
 6020W        W 6885  17.058   4.536   0.844
 6021W        W 6886  17.016   6.644   3.081
 6022W        W 6887  15.701   5.236   1.680
 6023W        W 6888  15.356   6.934   2.545
 6024W        W 6889  18.101   7.051   0.146
 6025W        W 6890  14.964   5.723   3.142
 6026W        W 6891  16.959   5.985   1.830
 6027W        W 6892  15.395   5.634   1.072
 6028W        W 6893  15.766   6.641   2.467
 6029W        W 6894  16.144   4.060   1.508
 6030W        W 6895  14.755   6.044   0.438
 6031W        W 6896  16.274   4.995   0.308
 6032W        W 6897  14.920   5.544   1.327
 6033W        W 6898  16.210   4.186   2.791
 6034W        W 6899  17.882   3.895   0.218
 6035W        W 6900  17.975   5.641   3.317
 6036W        W 6901  16.629   6.898   3.469
 6037W        W 6902  18.187   5.992   2.991
 6038W        W 6903  17.595   6.790   3.602
 6039W        W 6904  15.334   7.246   2.080
 6040W        W 6905  18.193   5.868   0.954
 6041W        W 6906  16.723   5.135   1.467
 6042W        W 6907  16.490   3.747   1.357
 6043W        W 6908  15.549   6.731   1.194
 6044W        W 6909  16.048   4.472   2.419
 6045W        W 6910  15.748   3.841   1.888
 6046W        W 6911  14.811   6.663   0.436
 6047W        W 6912  16.627   6.027   1.154
 6048W        W 6913  15.502   6.822   3.033
 6049W        W 6914  14.979   5.645   0.729
 6050W        W 6915  14.864   4.188   1.728
 6051W        W 6916  16.412   6.153   1.785
 6052W        W 6917  14.664   4.007   0.805
 6053W        W 6918  17.328   5.213   2.732
 6054W        W 6919  17.205   4.599   0.304
 6055W        W 6920  17.722   6.271   1.952
 6056W        W 6921  16.383   6.755   1.783
 6057W        W 6922  15.795   6.859   0.694
 6058W        W 6923  17.077   3.762   0.124
 6059W        W 6924  14.877   7.022   1.865
 6060W        W 6925  17.074   4.780   3.500
 6061W        W 6926  15.057   4.310   3.499
 6062W        W 6927  14.788   4.910   0.832
 6063W        W 6928  15.479   4.899   0.557
 6064W        W 6929  17.242   5.226   3.374
 6065W        W 6930  15.585   5.507   2.083
 6066W        W 6931  17.059   3.793   1.203
 6067W        W 6932  16.190   7.224   1.706
 6068W        W 6933  17.404   6.686   2.643
 6069W        W 6934  16.988   6.835   1.754
 6070W        W 6935  17.007   5.815   1.348
 6071W        W 6936  16.469   4.040   0.419
 6072W        W 6937  18.150   3.668   1.141
 6073W        W 6938  15.838   5.303   0.304
 6074W        W 6939  18.004   4.640   1.294
 6075W        W 6940  16.696   5.810   0.171
 6076W        W 6941  17.632   6.010   2.919
 6077W        W 6942  17.286   6.711   0.386
 6078W        W 6943  15.901   4.386   3.292
 6079W        W 6944  15.721   4.970   2.533
 6080W        W 6945  17.813   6.465   2.810
 6081W        W 6946  16.913   4.415   3.187
 6082W        W 6947  14.757   4.886   2.964
 6083W        W 6948  16.517   5.363   2.690
 6084W        W 6949  14.874   6.121   1.347
 6085W        W 6950  15.021   5.418   2.237
 6086W        W 6951  17.338   5.704   2.587
 6087W        W 6952  17.110   7.084   3.398
 6088W        W 6953  17.006   4.823   2.951
 6089W        W 6954  17.283   6.877   1.356
 6090W        W 6955  16.285   6.597   2.679
 6091W        W 6956  15.770   6.952   1.948
 6092W        W 6957  17.575   6.123   2.367
 6093W        W 6958  16.625   6.195   3.504
 6094W        W 6959  15.230   6.148   1.843
 6095W        W 6960  17.576   5.907   1.488
 6096W        W 6961  17.217   6.973   2.239
 6097W        W 6962  15.195   6.702   2.109
 6098W        W 6963  16.216   4.754   3.319
 6099W        W 6964  16.667   6.920   0.830
 6100W        W 6965  15.975   6.175   3.468
 6101W        W 6966  16.101   6.413   0.845
 6102W        W 6967  15.322   5.153   0.104
 6103W        W 6968  14.661   7.239   7.003
 6104W        W 6969  15.037   6.132   6.526
 6105W        W 6970  17.742   5.862   4.296
 6106W        W 6971  17.872   6.947   6.323
 6107W        W 6972  15.790   6.938   3.849
 6108W        W 6973  15.873   5.090   4.832
 6109W        W 6974  15.388   4.938   4.996
 6110W        W 6975  16.379   5.753   4.430
 6111W        W 6976  16.054   6.845   6.785
 6112W        W 6977  14.703   4.406   6.748
 6113W        W 6978  15.465   3.686   6.550
 6114W        W 6979  17.159   4.074   5.437
 6115W        W 6980  16.808   4.945   4.007
 6116W        W 6981  17.378   4.379   7.098
 6117W        W 6982  14.744   4.171   6.223
 6118W        W 6983  14.843   6.790   7.244
 6119W        W 6984  16.365   6.180   3.976
 6120W        W 6985  14.797   4.963   5.669
 6121W        W 6986  15.690   4.854   6.906
 6122W        W 6987  18.149   4.713   5.405
 6123W        W 6988  17.913   5.756   6.264
 6124W        W 6989  16.221   5.089   5.291
 6125W        W 6990  16.767   6.428   5.660
 6126W        W 6991  15.267   5.862   5.892
 6127W        W 6992  14.626   5.390   5.463
 6128W        W 6993  15.662   5.362   6.655
 6129W        W 6994  17.933   5.145   6.909
 6130W        W 6995  15.549   6.589   5.354
 6131W        W 6996  16.670   6.278   6.488
 6132W        W 6997  15.890   4.918   5.713
 6133W        W 6998  16.182   5.702   5.356
 6134W        W 6999  17.179   6.475   7.204
 6135W        W 7000  16.258   5.795   7.214
 6136W        W 7001  16.239   5.511   6.692
 6137W        W 7002  14.648   4.902   7.214
 6138W        W 7003  17.480   6.437   6.813
 6139W        W 7004  15.061   4.019   4.811
 6140W        W 7005  15.588   6.277   5.810
 6141W        W 7006  18.051   6.060   5.100
 6142W        W 7007  17.464   4.460   5.667
 6143W        W 7008  17.749   4.413   3.762
 6144W        W 7009  18.214   5.214   6.068
 6145W        W 7010  16.181   6.921   5.821
 6146W        W 7011  17.955   6.387   4.259
 6147W        W 7012  15.084   7.173   4.013
 6148W        W 7013  15.477   7.219   4.689
 6149W        W 7014  15.274   3.973   6.115
 6150W        W 7015  17.897   4.991   6.390
 6151W        W 7016  17.302   5.413   4.849
 6152W        W 7017  17.268   5.101   3.876
 6153W        W 7018  16.476   6.245   6.016
 6154W        W 7019  16.282   4.575   5.215
 6155W        W 7020  16.882   6.662   6.209
 6156W        W 7021  17.753   5.453   4.631
 6157W        W 7022  16.655   4.111   4.647
 6158W        W 7023  15.312   6.805   4.330
 6159W        W 7024  14.683   4.304   4.929
 6160W        W 7025  17.469   4.911   5.403
 6161W        W 7026  14.927   6.528   5.318
 6162W        W 7027  16.268   6.878   4.188
 6163W        W 7028  17.660   4.904   3.652
 6164W        W 7029  14.683   6.662   5.816
 6165W        W 7030  15.474   6.234   6.296
 6166W        W 7031  15.847   5.594   4.915
 6167W        W 7032  15.869   3.999   6.008
 6168W        W 7033  18.098   3.761   5.305
 6169W        W 7034  15.317   5.633   3.773
 6170W        W 7035  14.972   4.666   3.952
 6171W        W 7036  15.034   6.622   4.746
 6172W        W 7037  16.165   6.105   4.994
 6173W        W 7038  17.497   6.964   6.708
 6174W        W 7039  16.423   4.606   4.392
 6175W        W 7040  17.806   7.004   5.164
 6176W        W 7041  17.483   4.857   6.762
 6177W        W 7042  18.196   6.513   4.896
 6178W        W 7043  16.823   5.805   6.380
 6179W        W 7044  14.589   5.356   4.586
 6180W        W 7045  15.700   5.771   6.159
 6181W        W 7046  16.904   5.035   4.537
 6182W        W 7047  16.781   5.525   4.641
 6183W        W 7048  15.124   4.945   6.115
 6184W        W 7049  15.109   4.821   7.037
 6185W        W 7050  14.999   3.738   5.196
 6186W        W 7051  16.767   4.085   5.757
 6187W        W 7052  16.415   4.270   6.920
 6188W        W 7053  16.770   4.419   4.098
 6189W        W 7054  17.953   6.812   6.852
 6190W        W 7055  16.920   3.893   6.891
 6191W        W 7056  17.939   6.194   7.013
 6192W        W 7057  17.369   4.361   6.609
 6193W        W 7058  17.169   4.299   4.879
 6194W        W 7059  17.562   5.433   7.283
 6195W        W 7060  15.302   7.009   5.269
 6196W        W 7061  15.960   4.726   4.255
 6197W        W 7062  15.529   4.010   6.919
 6198W        W 7063  17.581   4.494   4.600
 6199W        W 7064  17.948   4.976   4.545
 6200W        W 7065  15.691   7.193   7.016
 6201W        W 7066  15.617   3.729   4.251
 6202W        W 7067  17.938   4.263   5.286
 6203W        W 7068  18.088   6.512   3.731
 6204W        W 7069  14.995   5.715   5.433
 6205W        W 7070  16.912   4.302   3.663
 6206W        W 7071  18.046   6.634   5.383
 6207W        W 7072  18.085   3.828   6.133
 6208W        W 7073  16.530   5.040   6.687
 6209W        W 7074  16.623   6.379   4.390
 6210W        W 7075  17.023   5.673   7.130
 6211W        W 7076  16.697   3.650   5.439
 6212W        W 7077  15.309   4.553   5.502
 6213W        W 7078  14.863   5.753   6.276
 6214W        W 7079  16.722   6.946   4.982
 6215W        W 7080  17.916   4.543   5.854
 6216W        W 7081  16.553   6.890   6.621
 6217W        W 7082  17.896   5.949   3.826
 6218W        W 7083  16.331   5.432   4.887
 6219W        W 7084  18.183   3.943   6.628
 6220W        W 7085  16.332   5.778   6.222
 6221W        W 7086  16.549   4.664   5.667
 6222W        W 7087  17.401   4.962   4.505
 6223W        W 7088  17.688   4.695   4.147
 6224W        W 7089  17.497   6.735   4.536
 6225W        W 7090  17.331   6.338   5.332
 6226W        W 7091  17.227   5.417   4.310
 6227W        W 7092  16.660   5.627   5.296
 6228W        W 7093  17.541   5.415   5.363
 6229W        W 7094  14.916   4.430   5.787
 6230W        W 7095  17.694   5.482   6.614
 6231W        W 7096  18.045   7.100   5.760
 6232W        W 7097  15.975   6.544   5.162
 6233W        W 7098  16.982   7.077   6.486
 6234W        W 7099  16.976   4.407   6.250
 6235W        W 7100  16.183   7.115   6.311
 6236W        W 7101  17.880   4.069   4.777
 6237W        W 7102  17.671   5.388   6.078
 6238W        W 7103  14.654   4.709   6.116
 6239W        W 7104  17.514   4.504   5.134
 6240W        W 7105  17.925   4.655   6.911
 6241W        W 7106  16.810   6.354   5.129
 6242W        W 7107  16.066   6.945   4.742
 6243W        W 7108  15.181   4.125   4.000
 6244W        W 7109  16.285   3.779   5.810
 6245W        W 7110  15.313   6.899   3.658
 6246W        W 7111  15.687   5.365   4.409
 6247W        W 7112  16.341   5.994   6.722
 6248W        W 7113  16.171   4.352   4.712
 6249W        W 7114  17.527   3.949   5.140
 6250W        W 7115  17.247   7.231   5.468
 6251W        W 7116  16.659   6.879   5.808
 6252W        W 7117  16.055   5.916   5.769
 6253W        W 7118  17.825   6.639   5.895
 6254W        W 7119  15.519   4.142   4.664
 6255W        W 7120  16.041   6.439   5.624
 6256W        W 7121  15.524   4.370   3.689
 6257W        W 7122  16.325   4.979   6.083
 6258W        W 7123  17.173   3.845   5.953
 6259W        W 7124  14.593   5.688   5.838
 6260W        W 7125  16.297   5.506   3.996
 6261W        W 7126  15.565   3.821   3.766
 6262W        W 7127  16.303   4.902   4.817
 6263W        W 7128  17.273   3.878   6.516
 6264W        W 7129  15.861   5.890   6.625
 6265W        W 7130  16.665   5.672   6.842
 6266W        W 7131  17.282   5.702   6.735
 6267W        W 7132  16.566   3.842   7.240
 6268W        W 7133  15.788   4.458   5.633
 6269W        W 7134  15.214   4.414   5.031
 6270W        W 7135  15.000   7.126   4.707
 6271W        W 7136  16.332   6.456   6.832
 6272W        W 7137  15.367   5.941   4.191
 6273W        W 7138  17.047   5.326   5.412
 6274W        W 7139  17.327   5.125   5.811
 6275W        W 7140  16.532   5.799   5.745
 6276W        W 7141  17.002   6.173   3.877
 6277W        W 7142  16.674   4.194   5.205
 6278W        W 7143  18.153   4.472   4.473
 6279W        W 7144  14.647   7.061   6.504
 6280W        W 7145  15.064   6.287   6.036
 6281W        W 7146  14.631   7.133   4.268
 6282W        W 7147  16.530   4.403   6.074
 6283W        W 7148  15.893   6.426   3.923
 6284W        W 7149  17.798   6.808   4.109
 6285W        W 7150  16.773   5.461   4.123
 6286W        W 7151  15.616   4.652   4.640
 6287W        W 7152  16.448   4.562   3.692
 6288W        W 7153  17.032   6.127   6.870
 6289W        W 7154  17.385   4.033   4.487
 6290W        W 7155  14.715   3.881   3.935
 6291W        W 7156  16.001   6.200   6.225
 6292W        W 7157  15.800   6.116   5.317
 6293W        W 7158  15.542   6.068   3.715
 6294W        W 7159  14.783   6.309   4.483
 6295W        W 7160  15.287   5.379   6.925
 6296W        W 7161  15.991   3.939   7.111
 6297W        W 7162  16.700   4.081   6.467
 6298W        W 7163  15.895   3.849   4.748
 6299W        W 7164  16.954   3.926   4.253
 6300W        W 7165  14.899   3.858   5.830
 6301W        W 7166  14.947   4.821   5.200
 6302W        W 7167  17.636   3.929   5.606
 6303W        W 7168  15.058   4.427   4.420
 6304W        W 7169  17.629   4.115   6.036
 6305W        W 7170  18.025   5.318   3.721
 6306W        W 7171  15.317   4.076   5.540
 6307W        W 7172  16.431   4.648   6.480
 6308W        W 7173  14.579   4.338   3.958
 6309W        W 7174  15.365   5.727   6.519
 6310W        W 7175  16.723   5.125   5.698
 6311W        W 7176  16.590   7.204   3.994
 6312W        W 7177  14.736   5.711   3.691
 6313W        W 7178  15.471   6.122   6.817
 6314W        W 7179  14.992   5.289   6.448
 6315W        W 7180  15.983   5.394   6.242
 6316W        W 7181  17.751   3.753   6.504
 6317W        W 7182  18.149   5.363   6.495
 6318W        W 7183  18.137   5.563   4.181
 6319W        W 7184  17.000   5.895   4.280
 6320W        W 7185  17.474   7.195   3.975
 6321W        W 7186  16.651   5.185   7.117
 6322W        W 7187  14.981   6.152   7.157
 6323W        W 7188  18.187   4.074   7.109
 6324W        W 7189  17.905   5.002   5.730
 6325W        W 7190  16.213   7.132   7.207
 6326W        W 7191  16.068   3.761   3.934
 6327W        W 7192  17.607   6.360   3.877
 6328W        W 7193  15.376   4.453   6.763
 6329W        W 7194  15.810   6.447   6.625
 6330W        W 7195  17.936   4.438   6.423
 6331W        W 7196  17.147   7.097   4.391
 6332W        W 7197  17.386   5.716   5.758
 6333W        W 7198  15.636   4.132   6.425
 6334W        W 7199  16.105   5.201   7.182
 6335W        W 7200  15.608   6.380   4.376
 6336W        W 7201  17.363   5.878   4.640
 6337W        W 7202  15.131   4.504   6.364
 6338W        W 7203  16.460   6.566   4.828
 6339W        W 7204  18.210   5.126   5.009
 6340W        W 7205  16.432   3.759   6.728
 6341W        W 7206  17.212   6.464   5.807
 6342W        W 7207  17.515   6.808   5.515
 6343W        W 7208  16.734   6.610   3.943
 6344W        W 7209  14.744   6.502   6.785
 6345W        W 7210  15.487   4.494   6.023
 6346W        W 7211  15.457   3.842   5.133
 6347W        W 7212  17.078   4.684   5.825
 6348W        W 7213  15.876   5.855   4.025
 6349W        W 7214  17.874   5.797   5.524
 6350W        W 7215  15.201   6.555   6.947
 6351W        W 7216  17.588   7.237   4.744
 6352W        W 7217  15.687   4.257   5.189
 6353W        W 7218  15.456   5.750   5.279
 6354W        W 7219  15.769   7.161   6.029
 6355W        W 7220  17.836   7.257   7.061
 6356W        W 7221  16.995   5.445   5.994
 6357W        W 7222  14.844   5.243   3.909
 6358W        W 7223  17.978   6.901   4.606
 6359W        W 7224  17.815   4.225   4.225
 6360W        W 7225  15.954   3.744   6.628
 6361W        W 7226  17.660   6.546   5.086
 6362W        W 7227  17.689   5.102   4.991
 6363W        W 7228  15.806   4.775   5.207
 6364W        W 7229  16.051   5.037   6.531
 6365W        W 7230  17.162   6.190   6.394
 6366W        W 7231  15.812   4.644   6.506
 6367W        W 7232  15.791   7.110   5.122
 6368W        W 7233  15.108   7.069   6.756
 6369W        W 7234  15.220   6.430   3.886
 6370W        W 7235  17.737   6.188   4.696
 6371W        W 7236  15.341   4.980   6.582
 6372W        W 7237  18.114   4.910   4.063
 6373W        W 7238  15.859   5.967   4.534
 6374W        W 7239  16.958   5.349   6.615
 6375W        W 7240  16.849   4.977   6.159
 6376W        W 7241  15.409   5.349   6.188
 6377W        W 7242  17.619   7.237   6.017
 6378W        W 7243  17.410   3.871   7.011
 6379W        W 7244  15.074   4.021   6.598
 6380W        W 7245  15.413   5.044   5.651
 6381W        W 7246  15.782   4.858   3.773
 6382W        W 7247  14.585   6.617   6.318
 6383W        W 7248  16.170   5.326   5.761
 6384W        W 7249  15.993   4.351   3.866
 6385W        W 7250  15.128   5.167   4.647
 6386W        W 7251  14.899   7.019   6.084
 6387W        W 7252  17.694   5.245   4.192
 6388W        W 7253  17.789   4.161   6.878
 6389W        W 7254  17.225   6.370   4.841
 6390W        W 7255  14.823   5.294   7.018
 6391W        W 7256  17.789   3.758   4.314
 6392W        W 7257  17.309   6.233   4.325
 6393W        W 7258  16.211   5.291   4.410
 6394W        W 7259  17.398   4.095   3.933
 6395W        W 7260  17.463   4.702   6.119
 6396W        W 7261  15.172   5.295   5.326
 6397W        W 7262  15.466   6.234   4.975
 6398W        W 7263  17.229   4.854   4.940
 6399W        W 7264  16.252   4.233   5.636
 6400W        W 7265  18.214   6.144   6.147
 6401W        W 7266  18.132   4.131   5.708
 6402W        W 7267  14.671   6.961   5.084
 6403W        W 7268  15.180   6.148   4.620
 6404W        W 7269  15.095   3.765   7.173
 6405W        W 7270  16.214   6.618   7.275
 6406W        W 7271  17.969   5.586   5.065
 6407W        W 7272  17.323   5.763   3.945
 6408W        W 7273  16.618   7.284   6.157
 6409W        W 7274  17.475   6.006   7.194
 6410W        W 7275  16.290   3.716   4.474
 6411W        W 7276  17.003   4.585   5.333
 6412W        W 7277  14.689   6.172   5.665
 6413W        W 7278  15.942   4.134   4.306
 6414W        W 7279  15.746   5.618   7.155
 6415W        W 7280  16.740   4.599   4.869
 6416W        W 7281  16.945   6.009   5.991
 6417W        W 7282  15.099   6.614   6.426
 6418W        W 7283  15.690   6.597   7.149
 6419W        W 7284  15.541   4.394   4.163
 6420W        W 7285  17.058   4.536   4.488
 6421W        W 7286  17.016   6.644   6.725
 6422W        W 7287  15.701   5.236   5.324
 6423W        W 7288  15.356   6.934   6.189
 6424W        W 7289  18.101   7.051   3.790
 6425W        W 7290  14.964   5.723   6.786
 6426W        W 7291  16.959   5.985   5.474
 6427W        W 7292  15.395   5.634   4.716
 6428W        W 7293  15.766   6.641   6.111
 6429W        W 7294  16.144   4.060   5.152
 6430W        W 7295  14.755   6.044   4.082
 6431W        W 7296  16.274   4.995   3.952
 6432W        W 7297  14.920   5.544   4.971
 6433W        W 7298  16.210   4.186   6.435
 6434W        W 7299  17.882   3.895   3.862
 6435W        W 7300  17.975   5.641   6.961
 6436W        W 7301  16.629   6.898   7.113
 6437W        W 7302  18.187   5.992   6.635
 6438W        W 7303  17.595   6.790   7.246
 6439W        W 7304  15.334   7.246   5.724
 6440W        W 7305  18.193   5.868   4.598
 6441W        W 7306  16.723   5.135   5.111
 6442W        W 7307  16.490   3.747   5.001
 6443W        W 7308  15.549   6.731   4.838
 6444W        W 7309  16.048   4.472   6.063
 6445W        W 7310  15.748   3.841   5.532
 6446W        W 7311  14.811   6.663   4.080
 6447W        W 7312  16.627   6.027   4.798
 6448W        W 7313  15.502   6.822   6.677
 6449W        W 7314  14.979   5.645   4.373
 6450W        W 7315  14.864   4.188   5.372
 6451W        W 7316  16.412   6.153   5.429
 6452W        W 7317  14.664   4.007   4.449
 6453W        W 7318  17.328   5.213   6.376
 6454W        W 7319  17.205   4.599   3.948
 6455W        W 7320  17.722   6.271   5.596
 6456W        W 7321  16.383   6.755   5.427
 6457W        W 7322  15.795   6.859   4.338
 6458W        W 7323  17.077   3.762   3.768
 6459W        W 7324  14.877   7.022   5.509
 6460W        W 7325  17.074   4.780   7.144
 6461W        W 7326  15.057   4.310   7.143
 6462W        W 7327  14.788   4.910   4.476
 6463W        W 7328  15.479   4.899   4.201
 6464W        W 7329  17.242   5.226   7.018
 6465W        W 7330  15.585   5.507   5.727
 6466W        W 7331  17.059   3.793   4.847
 6467W        W 7332  16.190   7.224   5.350
 6468W        W 7333  17.404   6.686   6.287
 6469W        W 7334  16.988   6.835   5.398
 6470W        W 7335  17.007   5.815   4.992
 6471W        W 7336  16.469   4.040   4.063
 6472W        W 7337  18.150   3.668   4.785
 6473W        W 7338  15.838   5.303   3.948
 6474W        W 7339  18.004   4.640   4.938
 6475W        W 7340  16.696   5.810   3.815
 6476W        W 7341  17.632   6.010   6.563
 6477W        W 7342  17.286   6.711   4.030
 6478W        W 7343  15.901   4.386   6.936
 6479W        W 7344  15.721   4.970   6.177
 6480W        W 7345  17.813   6.465   6.454
 6481W        W 7346  16.913   4.415   6.831
 6482W        W 7347  14.757   4.886   6.608
 6483W        W 7348  16.517   5.363   6.334
 6484W        W 7349  14.874   6.121   4.991
 6485W        W 7350  15.021   5.418   5.881
 6486W        W 7351  17.338   5.704   6.231
 6487W        W 7352  17.110   7.084   7.042
 6488W        W 7353  17.006   4.823   6.595
 6489W        W 7354  17.283   6.877   5.000
 6490W        W 7355  16.285   6.597   6.323
 6491W        W 7356  15.770   6.952   5.592
 6492W        W 7357  17.575   6.123   6.011
 6493W        W 7358  16.625   6.195   7.148
 6494W        W 7359  15.230   6.148   5.487
 6495W        W 7360  17.576   5.907   5.132
 6496W        W 7361  17.217   6.973   5.883
 6497W        W 7362  15.195   6.702   5.753
 6498W        W 7363  16.216   4.754   6.963
 6499W        W 7364  16.667   6.920   4.474
 6500W        W 7365  15.975   6.175   7.112
 6501W        W 7366  16.101   6.413   4.489
 6502W        W 7367  15.322   5.153   3.748
 6503W        W 7368  14.661   7.239  10.648
 6504W        W 7369  15.037   6.132  10.171
 6505W        W 7370  17.742   5.862   7.941
 6506W        W 7371  17.872   6.947   9.968
 6507W        W 7372  15.790   6.938   7.494
 6508W        W 7373  15.873   5.090   8.477
 6509W        W 7374  15.388   4.938   8.641
 6510W        W 7375  16.379   5.753   8.075
 6511W        W 7376  16.054   6.845  10.430
 6512W        W 7377  14.703   4.406  10.393
 6513W        W 7378  15.465   3.686  10.195
 6514W        W 7379  17.159   4.074   9.082
 6515W        W 7380  16.808   4.945   7.652
 6516W        W 7381  17.378   4.379  10.743
 6517W        W 7382  14.744   4.171   9.868
 6518W        W 7383  14.843   6.790  10.889
 6519W        W 7384  16.365   6.180   7.621
 6520W        W 7385  14.797   4.963   9.314
 6521W        W 7386  15.690   4.854  10.551
 6522W        W 7387  18.149   4.713   9.050
 6523W        W 7388  17.913   5.756   9.909
 6524W        W 7389  16.221   5.089   8.936
 6525W        W 7390  16.767   6.428   9.305
 6526W        W 7391  15.267   5.862   9.537
 6527W        W 7392  14.626   5.390   9.108
 6528W        W 7393  15.662   5.362  10.300
 6529W        W 7394  17.933   5.145  10.554
 6530W        W 7395  15.549   6.589   8.999
 6531W        W 7396  16.670   6.278  10.133
 6532W        W 7397  15.890   4.918   9.358
 6533W        W 7398  16.182   5.702   9.001
 6534W        W 7399  17.179   6.475  10.849
 6535W        W 7400  16.258   5.795  10.859
 6536W        W 7401  16.239   5.511  10.337
 6537W        W 7402  14.648   4.902  10.859
 6538W        W 7403  17.480   6.437  10.458
 6539W        W 7404  15.061   4.019   8.456
 6540W        W 7405  15.588   6.277   9.455
 6541W        W 7406  18.051   6.060   8.745
 6542W        W 7407  17.464   4.460   9.312
 6543W        W 7408  17.749   4.413   7.407
 6544W        W 7409  18.214   5.214   9.713
 6545W        W 7410  16.181   6.921   9.466
 6546W        W 7411  17.955   6.387   7.904
 6547W        W 7412  15.084   7.173   7.658
 6548W        W 7413  15.477   7.219   8.334
 6549W        W 7414  15.274   3.973   9.760
 6550W        W 7415  17.897   4.991  10.035
 6551W        W 7416  17.302   5.413   8.494
 6552W        W 7417  17.268   5.101   7.521
 6553W        W 7418  16.476   6.245   9.661
 6554W        W 7419  16.282   4.575   8.860
 6555W        W 7420  16.882   6.662   9.854
 6556W        W 7421  17.753   5.453   8.276
 6557W        W 7422  16.655   4.111   8.292
 6558W        W 7423  15.312   6.805   7.975
 6559W        W 7424  14.683   4.304   8.574
 6560W        W 7425  17.469   4.911   9.048
 6561W        W 7426  14.927   6.528   8.963
 6562W        W 7427  16.268   6.878   7.833
 6563W        W 7428  17.660   4.904   7.297
 6564W        W 7429  14.683   6.662   9.461
 6565W        W 7430  15.474   6.234   9.941
 6566W        W 7431  15.847   5.594   8.560
 6567W        W 7432  15.869   3.999   9.653
 6568W        W 7433  18.098   3.761   8.950
 6569W        W 7434  15.317   5.633   7.418
 6570W        W 7435  14.972   4.666   7.597
 6571W        W 7436  15.034   6.622   8.391
 6572W        W 7437  16.165   6.105   8.639
 6573W        W 7438  17.497   6.964  10.353
 6574W        W 7439  16.423   4.606   8.037
 6575W        W 7440  17.806   7.004   8.809
 6576W        W 7441  17.483   4.857  10.407
 6577W        W 7442  18.196   6.513   8.541
 6578W        W 7443  16.823   5.805  10.025
 6579W        W 7444  14.589   5.356   8.231
 6580W        W 7445  15.700   5.771   9.804
 6581W        W 7446  16.904   5.035   8.182
 6582W        W 7447  16.781   5.525   8.286
 6583W        W 7448  15.124   4.945   9.760
 6584W        W 7449  15.109   4.821  10.682
 6585W        W 7450  14.999   3.738   8.841
 6586W        W 7451  16.767   4.085   9.402
 6587W        W 7452  16.415   4.270  10.565
 6588W        W 7453  16.770   4.419   7.743
 6589W        W 7454  17.953   6.812  10.497
 6590W        W 7455  16.920   3.893  10.536
 6591W        W 7456  17.939   6.194  10.658
 6592W        W 7457  17.369   4.361  10.254
 6593W        W 7458  17.169   4.299   8.524
 6594W        W 7459  17.562   5.433  10.928
 6595W        W 7460  15.302   7.009   8.914
 6596W        W 7461  15.960   4.726   7.900
 6597W        W 7462  15.529   4.010  10.564
 6598W        W 7463  17.581   4.494   8.245
 6599W        W 7464  17.948   4.976   8.190
 6600W        W 7465  15.691   7.193  10.661
 6601W        W 7466  15.617   3.729   7.896
 6602W        W 7467  17.938   4.263   8.931
 6603W        W 7468  18.088   6.512   7.376
 6604W        W 7469  14.995   5.715   9.078
 6605W        W 7470  16.912   4.302   7.308
 6606W        W 7471  18.046   6.634   9.028
 6607W        W 7472  18.085   3.828   9.778
 6608W        W 7473  16.530   5.040  10.332
 6609W        W 7474  16.623   6.379   8.035
 6610W        W 7475  17.023   5.673  10.775
 6611W        W 7476  16.697   3.650   9.084
 6612W        W 7477  15.309   4.553   9.147
 6613W        W 7478  14.863   5.753   9.921
 6614W        W 7479  16.722   6.946   8.627
 6615W        W 7480  17.916   4.543   9.499
 6616W        W 7481  16.553   6.890  10.266
 6617W        W 7482  17.896   5.949   7.471
 6618W        W 7483  16.331   5.432   8.532
 6619W        W 7484  18.183   3.943  10.273
 6620W        W 7485  16.332   5.778   9.867
 6621W        W 7486  16.549   4.664   9.312
 6622W        W 7487  17.401   4.962   8.150
 6623W        W 7488  17.688   4.695   7.792
 6624W        W 7489  17.497   6.735   8.181
 6625W        W 7490  17.331   6.338   8.977
 6626W        W 7491  17.227   5.417   7.955
 6627W        W 7492  16.660   5.627   8.941
 6628W        W 7493  17.541   5.415   9.008
 6629W        W 7494  14.916   4.430   9.432
 6630W        W 7495  17.694   5.482  10.259
 6631W        W 7496  18.045   7.100   9.405
 6632W        W 7497  15.975   6.544   8.807
 6633W        W 7498  16.982   7.077  10.131
 6634W        W 7499  16.976   4.407   9.895
 6635W        W 7500  16.183   7.115   9.956
 6636W        W 7501  17.880   4.069   8.422
 6637W        W 7502  17.671   5.388   9.723
 6638W        W 7503  14.654   4.709   9.761
 6639W        W 7504  17.514   4.504   8.779
 6640W        W 7505  17.925   4.655  10.556
 6641W        W 7506  16.810   6.354   8.774
 6642W        W 7507  16.066   6.945   8.387
 6643W        W 7508  15.181   4.125   7.645
 6644W        W 7509  16.285   3.779   9.455
 6645W        W 7510  15.313   6.899   7.303
 6646W        W 7511  15.687   5.365   8.054
 6647W        W 7512  16.341   5.994  10.367
 6648W        W 7513  16.171   4.352   8.357
 6649W        W 7514  17.527   3.949   8.785
 6650W        W 7515  17.247   7.231   9.113
 6651W        W 7516  16.659   6.879   9.453
 6652W        W 7517  16.055   5.916   9.414
 6653W        W 7518  17.825   6.639   9.540
 6654W        W 7519  15.519   4.142   8.309
 6655W        W 7520  16.041   6.439   9.269
 6656W        W 7521  15.524   4.370   7.334
 6657W        W 7522  16.325   4.979   9.728
 6658W        W 7523  17.173   3.845   9.598
 6659W        W 7524  14.593   5.688   9.483
 6660W        W 7525  16.297   5.506   7.641
 6661W        W 7526  15.565   3.821   7.411
 6662W        W 7527  16.303   4.902   8.462
 6663W        W 7528  17.273   3.878  10.161
 6664W        W 7529  15.861   5.890  10.270
 6665W        W 7530  16.665   5.672  10.487
 6666W        W 7531  17.282   5.702  10.380
 6667W        W 7532  16.566   3.842  10.885
 6668W        W 7533  15.788   4.458   9.278
 6669W        W 7534  15.214   4.414   8.676
 6670W        W 7535  15.000   7.126   8.352
 6671W        W 7536  16.332   6.456  10.477
 6672W        W 7537  15.367   5.941   7.836
 6673W        W 7538  17.047   5.326   9.057
 6674W        W 7539  17.327   5.125   9.456
 6675W        W 7540  16.532   5.799   9.390
 6676W        W 7541  17.002   6.173   7.522
 6677W        W 7542  16.674   4.194   8.850
 6678W        W 7543  18.153   4.472   8.118
 6679W        W 7544  14.647   7.061  10.149
 6680W        W 7545  15.064   6.287   9.681
 6681W        W 7546  14.631   7.133   7.913
 6682W        W 7547  16.530   4.403   9.719
 6683W        W 7548  15.893   6.426   7.568
 6684W        W 7549  17.798   6.808   7.754
 6685W        W 7550  16.773   5.461   7.768
 6686W        W 7551  15.616   4.652   8.285
 6687W        W 7552  16.448   4.562   7.337
 6688W        W 7553  17.032   6.127  10.515
 6689W        W 7554  17.385   4.033   8.132
 6690W        W 7555  14.715   3.881   7.580
 6691W        W 7556  16.001   6.200   9.870
 6692W        W 7557  15.800   6.116   8.962
 6693W        W 7558  15.542   6.068   7.360
 6694W        W 7559  14.783   6.309   8.128
 6695W        W 7560  15.287   5.379  10.570
 6696W        W 7561  15.991   3.939  10.756
 6697W        W 7562  16.700   4.081  10.112
 6698W        W 7563  15.895   3.849   8.393
 6699W        W 7564  16.954   3.926   7.898
 6700W        W 7565  14.899   3.858   9.475
 6701W        W 7566  14.947   4.821   8.845
 6702W        W 7567  17.636   3.929   9.251
 6703W        W 7568  15.058   4.427   8.065
 6704W        W 7569  17.629   4.115   9.681
 6705W        W 7570  18.025   5.318   7.366
 6706W        W 7571  15.317   4.076   9.185
 6707W        W 7572  16.431   4.648  10.125
 6708W        W 7573  14.579   4.338   7.603
 6709W        W 7574  15.365   5.727  10.164
 6710W        W 7575  16.723   5.125   9.343
 6711W        W 7576  16.590   7.204   7.639
 6712W        W 7577  14.736   5.711   7.336
 6713W        W 7578  15.471   6.122  10.462
 6714W        W 7579  14.992   5.289  10.093
 6715W        W 7580  15.983   5.394   9.887
 6716W        W 7581  17.751   3.753  10.149
 6717W        W 7582  18.149   5.363  10.140
 6718W        W 7583  18.137   5.563   7.826
 6719W        W 7584  17.000   5.895   7.925
 6720W        W 7585  17.474   7.195   7.620
 6721W        W 7586  16.651   5.185  10.762
 6722W        W 7587  14.981   6.152  10.802
 6723W        W 7588  18.187   4.074  10.754
 6724W        W 7589  17.905   5.002   9.375
 6725W        W 7590  16.213   7.132  10.852
 6726W        W 7591  16.068   3.761   7.579
 6727W        W 7592  17.607   6.360   7.522
 6728W        W 7593  15.376   4.453  10.408
 6729W        W 7594  15.810   6.447  10.270
 6730W        W 7595  17.936   4.438  10.068
 6731W        W 7596  17.147   7.097   8.036
 6732W        W 7597  17.386   5.716   9.403
 6733W        W 7598  15.636   4.132  10.070
 6734W        W 7599  16.105   5.201  10.827
 6735W        W 7600  15.608   6.380   8.021
 6736W        W 7601  17.363   5.878   8.285
 6737W        W 7602  15.131   4.504  10.009
 6738W        W 7603  16.460   6.566   8.473
 6739W        W 7604  18.210   5.126   8.654
 6740W        W 7605  16.432   3.759  10.373
 6741W        W 7606  17.212   6.464   9.452
 6742W        W 7607  17.515   6.808   9.160
 6743W        W 7608  16.734   6.610   7.588
 6744W        W 7609  14.744   6.502  10.430
 6745W        W 7610  15.487   4.494   9.668
 6746W        W 7611  15.457   3.842   8.778
 6747W        W 7612  17.078   4.684   9.470
 6748W        W 7613  15.876   5.855   7.670
 6749W        W 7614  17.874   5.797   9.169
 6750W        W 7615  15.201   6.555  10.592
 6751W        W 7616  17.588   7.237   8.389
 6752W        W 7617  15.687   4.257   8.834
 6753W        W 7618  15.456   5.750   8.924
 6754W        W 7619  15.769   7.161   9.674
 6755W        W 7620  17.836   7.257  10.706
 6756W        W 7621  16.995   5.445   9.639
 6757W        W 7622  14.844   5.243   7.554
 6758W        W 7623  17.978   6.901   8.251
 6759W        W 7624  17.815   4.225   7.870
 6760W        W 7625  15.954   3.744  10.273
 6761W        W 7626  17.660   6.546   8.731
 6762W        W 7627  17.689   5.102   8.636
 6763W        W 7628  15.806   4.775   8.852
 6764W        W 7629  16.051   5.037  10.176
 6765W        W 7630  17.162   6.190  10.039
 6766W        W 7631  15.812   4.644  10.151
 6767W        W 7632  15.791   7.110   8.767
 6768W        W 7633  15.108   7.069  10.401
 6769W        W 7634  15.220   6.430   7.531
 6770W        W 7635  17.737   6.188   8.341
 6771W        W 7636  15.341   4.980  10.227
 6772W        W 7637  18.114   4.910   7.708
 6773W        W 7638  15.859   5.967   8.179
 6774W        W 7639  16.958   5.349  10.260
 6775W        W 7640  16.849   4.977   9.804
 6776W        W 7641  15.409   5.349   9.833
 6777W        W 7642  17.619   7.237   9.662
 6778W        W 7643  17.410   3.871  10.656
 6779W        W 7644  15.074   4.021  10.243
 6780W        W 7645  15.413   5.044   9.296
 6781W        W 7646  15.782   4.858   7.418
 6782W        W 7647  14.585   6.617   9.963
 6783W        W 7648  16.170   5.326   9.406
 6784W        W 7649  15.993   4.351   7.511
 6785W        W 7650  15.128   5.167   8.292
 6786W        W 7651  14.899   7.019   9.729
 6787W        W 7652  17.694   5.245   7.837
 6788W        W 7653  17.789   4.161  10.523
 6789W        W 7654  17.225   6.370   8.486
 6790W        W 7655  14.823   5.294  10.663
 6791W        W 7656  17.789   3.758   7.959
 6792W        W 7657  17.309   6.233   7.970
 6793W        W 7658  16.211   5.291   8.055
 6794W        W 7659  17.398   4.095   7.578
 6795W        W 7660  17.463   4.702   9.764
 6796W        W 7661  15.172   5.295   8.971
 6797W        W 7662  15.466   6.234   8.620
 6798W        W 7663  17.229   4.854   8.585
 6799W        W 7664  16.252   4.233   9.281
 6800W        W 7665  18.214   6.144   9.792
 6801W        W 7666  18.132   4.131   9.353
 6802W        W 7667  14.671   6.961   8.729
 6803W        W 7668  15.180   6.148   8.265
 6804W        W 7669  15.095   3.765  10.818
 6805W        W 7670  16.214   6.618  10.920
 6806W        W 7671  17.969   5.586   8.710
 6807W        W 7672  17.323   5.763   7.590
 6808W        W 7673  16.618   7.284   9.802
 6809W        W 7674  17.475   6.006  10.839
 6810W        W 7675  16.290   3.716   8.119
 6811W        W 7676  17.003   4.585   8.978
 6812W        W 7677  14.689   6.172   9.310
 6813W        W 7678  15.942   4.134   7.951
 6814W        W 7679  15.746   5.618  10.800
 6815W        W 7680  16.740   4.599   8.514
 6816W        W 7681  16.945   6.009   9.636
 6817W        W 7682  15.099   6.614  10.071
 6818W        W 7683  15.690   6.597  10.794
 6819W        W 7684  15.541   4.394   7.808
 6820W        W 7685  17.058   4.536   8.133
 6821W        W 7686  17.016   6.644  10.370
 6822W        W 7687  15.701   5.236   8.969
 6823W        W 7688  15.356   6.934   9.834
 6824W        W 7689  18.101   7.051   7.435
 6825W        W 7690  14.964   5.723  10.431
 6826W        W 7691  16.959   5.985   9.119
 6827W        W 7692  15.395   5.634   8.361
 6828W        W 7693  15.766   6.641   9.756
 6829W        W 7694  16.144   4.060   8.797
 6830W        W 7695  14.755   6.044   7.727
 6831W        W 7696  16.274   4.995   7.597
 6832W        W 7697  14.920   5.544   8.616
 6833W        W 7698  16.210   4.186  10.080
 6834W        W 7699  17.882   3.895   7.507
 6835W        W 7700  17.975   5.641  10.606
 6836W        W 7701  16.629   6.898  10.758
 6837W        W 7702  18.187   5.992  10.280
 6838W        W 7703  17.595   6.790  10.891
 6839W        W 7704  15.334   7.246   9.369
 6840W        W 7705  18.193   5.868   8.243
 6841W        W 7706  16.723   5.135   8.756
 6842W        W 7707  16.490   3.747   8.646
 6843W        W 7708  15.549   6.731   8.483
 6844W        W 7709  16.048   4.472   9.708
 6845W        W 7710  15.748   3.841   9.177
 6846W        W 7711  14.811   6.663   7.725
 6847W        W 7712  16.627   6.027   8.443
 6848W        W 7713  15.502   6.822  10.322
 6849W        W 7714  14.979   5.645   8.018
 6850W        W 7715  14.864   4.188   9.017
 6851W        W 7716  16.412   6.153   9.074
 6852W        W 7717  14.664   4.007   8.094
 6853W        W 7718  17.328   5.213  10.021
 6854W        W 7719  17.205   4.599   7.593
 6855W        W 7720  17.722   6.271   9.241
 6856W        W 7721  16.383   6.755   9.072
 6857W        W 7722  15.795   6.859   7.983
 6858W        W 7723  17.077   3.762   7.413
 6859W        W 7724  14.877   7.022   9.154
 6860W        W 7725  17.074   4.780  10.789
 6861W        W 7726  15.057   4.310  10.788
 6862W        W 7727  14.788   4.910   8.121
 6863W        W 7728  15.479   4.899   7.846
 6864W        W 7729  17.242   5.226  10.663
 6865W        W 7730  15.585   5.507   9.372
 6866W        W 7731  17.059   3.793   8.492
 6867W        W 7732  16.190   7.224   8.995
 6868W        W 7733  17.404   6.686   9.932
 6869W        W 7734  16.988   6.835   9.043
 6870W        W 7735  17.007   5.815   8.637
 6871W        W 7736  16.469   4.040   7.708
 6872W        W 7737  18.150   3.668   8.430
 6873W        W 7738  15.838   5.303   7.593
 6874W        W 7739  18.004   4.640   8.583
 6875W        W 7740  16.696   5.810   7.460
 6876W        W 7741  17.632   6.010  10.208
 6877W        W 7742  17.286   6.711   7.675
 6878W        W 7743  15.901   4.386  10.581
 6879W        W 7744  15.721   4.970   9.822
 6880W        W 7745  17.813   6.465  10.099
 6881W        W 7746  16.913   4.415  10.476
 6882W        W 7747  14.757   4.886  10.253
 6883W        W 7748  16.517   5.363   9.979
 6884W        W 7749  14.874   6.121   8.636
 6885W        W 7750  15.021   5.418   9.526
 6886W        W 7751  17.338   5.704   9.876
 6887W        W 7752  17.110   7.084  10.687
 6888W        W 7753  17.006   4.823  10.240
 6889W        W 7754  17.283   6.877   8.645
 6890W        W 7755  16.285   6.597   9.968
 6891W        W 7756  15.770   6.952   9.237
 6892W        W 7757  17.575   6.123   9.656
 6893W        W 7758  16.625   6.195  10.793
 6894W        W 7759  15.230   6.148   9.132
 6895W        W 7760  17.576   5.907   8.777
 6896W        W 7761  17.217   6.973   9.528
 6897W        W 7762  15.195   6.702   9.398
 6898W        W 7763  16.216   4.754  10.608
 6899W        W 7764  16.667   6.920   8.119
 6900W        W 7765  15.975   6.175  10.757
 6901W        W 7766  16.101   6.413   8.134
 6902W        W 7767  15.322   5.153   7.393
 6903W        W 7768  14.661   7.239  14.292
 6904W        W 7769  15.037   6.132  13.815
 6905W        W 7770  17.742   5.862  11.585
 6906W        W 7771  17.872   6.947  13.612
 6907W        W 7772  15.790   6.938  11.138
 6908W        W 7773  15.873   5.090  12.121
 6909W        W 7774  15.388   4.938  12.285
 6910W        W 7775  16.379   5.753  11.719
 6911W        W 7776  16.054   6.845  14.074
 6912W        W 7777  14.703   4.406  14.037
 6913W        W 7778  17.159   4.074  12.726
 6914W        W 7779  16.808   4.945  11.296
 6915W        W 7780  17.378   4.379  14.387
 6916W        W 7781  14.744   4.171  13.512
 6917W        W 7782  14.843   6.790  14.533
 6918W        W 7783  16.365   6.180  11.265
 6919W        W 7784  14.797   4.963  12.958
 6920W        W 7785  15.690   4.854  14.195
 6921W        W 7786  18.149   4.713  12.694
 6922W        W 7787  17.913   5.756  13.553
 6923W        W 7788  16.221   5.089  12.580
 6924W        W 7789  16.767   6.428  12.949
 6925W        W 7790  15.267   5.862  13.181
 6926W        W 7791  14.626   5.390  12.752
 6927W        W 7792  15.662   5.362  13.944
 6928W        W 7793  17.933   5.145  14.198
 6929W        W 7794  15.549   6.589  12.643
 6930W        W 7795  16.670   6.278  13.777
 6931W        W 7796  15.890   4.918  13.002
 6932W        W 7797  16.182   5.702  12.645
 6933W        W 7798  17.179   6.475  14.493
 6934W        W 7799  16.258   5.795  14.503
 6935W        W 7800  16.239   5.511  13.981
 6936W        W 7801  14.648   4.902  14.503
 6937W        W 7802  17.480   6.437  14.102
 6938W        W 7803  15.061   4.019  12.100
 6939W        W 7804  15.588   6.277  13.099
 6940W        W 7805  18.051   6.060  12.389
 6941W        W 7806  17.464   4.460  12.956
 6942W        W 7807  17.749   4.413  11.051
 6943W        W 7808  18.214   5.214  13.357
 6944W        W 7809  16.181   6.921  13.110
 6945W        W 7810  17.955   6.387  11.548
 6946W        W 7811  15.084   7.173  11.302
 6947W        W 7812  15.477   7.219  11.978
 6948W        W 7813  15.274   3.973  13.404
 6949W        W 7814  17.897   4.991  13.679
 6950W        W 7815  17.302   5.413  12.138
 6951W        W 7816  17.268   5.101  11.165
 6952W        W 7817  16.476   6.245  13.305
 6953W        W 7818  16.282   4.575  12.504
 6954W        W 7819  16.882   6.662  13.498
 6955W        W 7820  17.753   5.453  11.920
 6956W        W 7821  16.655   4.111  11.936
 6957W        W 7822  15.312   6.805  11.619
 6958W        W 7823  14.683   4.304  12.218
 6959W        W 7824  17.469   4.911  12.692
 6960W        W 7825  14.927   6.528  12.607
 6961W        W 7826  16.268   6.878  11.477
 6962W        W 7827  17.660   4.904  10.941
 6963W        W 7828  14.683   6.662  13.105
 6964W        W 7829  15.474   6.234  13.585
 6965W        W 7830  15.847   5.594  12.204
 6966W        W 7831  15.869   3.999  13.297
 6967W        W 7832  18.098   3.761  12.594
 6968W        W 7833  15.317   5.633  11.062
 6969W        W 7834  14.972   4.666  11.241
 6970W        W 7835  15.034   6.622  12.035
 6971W        W 7836  16.165   6.105  12.283
 6972W        W 7837  17.497   6.964  13.997
 6973W        W 7838  16.423   4.606  11.681
 6974W        W 7839  17.806   7.004  12.453
 6975W        W 7840  17.483   4.857  14.051
 6976W        W 7841  18.196   6.513  12.185
 6977W        W 7842  16.823   5.805  13.669
 6978W        W 7843  14.589   5.356  11.875
 6979W        W 7844  15.700   5.771  13.448
 6980W        W 7845  16.904   5.035  11.826
 6981W        W 7846  16.781   5.525  11.930
 6982W        W 7847  15.124   4.945  13.404
 6983W        W 7848  15.109   4.821  14.326
 6984W        W 7849  14.999   3.738  12.485
 6985W        W 7850  16.767   4.085  13.046
 6986W        W 7851  16.415   4.270  14.209
 6987W        W 7852  16.770   4.419  11.387
 6988W        W 7853  17.953   6.812  14.141
 6989W        W 7854  16.920   3.893  14.180
 6990W        W 7855  17.939   6.194  14.302
 6991W        W 7856  17.369   4.361  13.898
 6992W        W 7857  17.169   4.299  12.168
 6993W        W 7858  17.562   5.433  14.572
 6994W        W 7859  15.302   7.009  12.558
 6995W        W 7860  15.960   4.726  11.544
 6996W        W 7861  15.529   4.010  14.208
 6997W        W 7862  17.581   4.494  11.889
 6998W        W 7863  17.948   4.976  11.834
 6999W        W 7864  15.691   7.193  14.305
 7000W        W 7865  15.617   3.729  11.540
 7001W        W 7866  17.938   4.263  12.575
 7002W        W 7867  18.088   6.512  11.020
 7003W        W 7868  14.995   5.715  12.722
 7004W        W 7869  16.912   4.302  10.952
 7005W        W 7870  18.046   6.634  12.672
 7006W        W 7871  18.085   3.828  13.422
 7007W        W 7872  16.530   5.040  13.976
 7008W        W 7873  16.623   6.379  11.679
 7009W        W 7874  17.023   5.673  14.419
 7010W        W 7875  16.697   3.650  12.728
 7011W        W 7876  15.309   4.553  12.791
 7012W        W 7877  14.863   5.753  13.565
 7013W        W 7878  16.722   6.946  12.271
 7014W        W 7879  17.916   4.543  13.143
 7015W        W 7880  16.553   6.890  13.910
 7016W        W 7881  17.896   5.949  11.115
 7017W        W 7882  16.331   5.432  12.176
 7018W        W 7883  18.183   3.943  13.917
 7019W        W 7884  16.332   5.778  13.511
 7020W        W 7885  16.549   4.664  12.956
 7021W        W 7886  17.401   4.962  11.794
 7022W        W 7887  17.688   4.695  11.436
 7023W        W 7888  17.497   6.735  11.825
 7024W        W 7889  17.331   6.338  12.621
 7025W        W 7890  17.227   5.417  11.599
 7026W        W 7891  16.660   5.627  12.585
 7027W        W 7892  17.541   5.415  12.652
 7028W        W 7893  14.916   4.430  13.076
 7029W        W 7894  17.694   5.482  13.903
 7030W        W 7895  18.045   7.100  13.049
 7031W        W 7896  15.975   6.544  12.451
 7032W        W 7897  16.982   7.077  13.775
 7033W        W 7898  16.976   4.407  13.539
 7034W        W 7899  16.183   7.115  13.600
 7035W        W 7900  17.880   4.069  12.066
 7036W        W 7901  17.671   5.388  13.367
 7037W        W 7902  14.654   4.709  13.405
 7038W        W 7903  17.514   4.504  12.423
 7039W        W 7904  17.925   4.655  14.200
 7040W        W 7905  16.810   6.354  12.418
 7041W        W 7906  16.066   6.945  12.031
 7042W        W 7907  15.181   4.125  11.289
 7043W        W 7908  16.285   3.779  13.099
 7044W        W 7909  15.313   6.899  10.947
 7045W        W 7910  15.687   5.365  11.698
 7046W        W 7911  16.341   5.994  14.011
 7047W        W 7912  16.171   4.352  12.001
 7048W        W 7913  17.527   3.949  12.429
 7049W        W 7914  17.247   7.231  12.757
 7050W        W 7915  16.659   6.879  13.097
 7051W        W 7916  16.055   5.916  13.058
 7052W        W 7917  17.825   6.639  13.184
 7053W        W 7918  15.519   4.142  11.953
 7054W        W 7919  16.041   6.439  12.913
 7055W        W 7920  15.524   4.370  10.978
 7056W        W 7921  16.325   4.979  13.372
 7057W        W 7922  17.173   3.845  13.242
 7058W        W 7923  14.593   5.688  13.127
 7059W        W 7924  16.297   5.506  11.285
 7060W        W 7925  15.565   3.821  11.055
 7061W        W 7926  16.303   4.902  12.106
 7062W        W 7927  17.273   3.878  13.805
 7063W        W 7928  15.861   5.890  13.914
 7064W        W 7929  16.665   5.672  14.131
 7065W        W 7930  17.282   5.702  14.024
 7066W        W 7931  16.566   3.842  14.529
 7067W        W 7932  15.788   4.458  12.922
 7068W        W 7933  15.214   4.414  12.320
 7069W        W 7934  15.000   7.126  11.996
 7070W        W 7935  16.332   6.456  14.121
 7071W        W 7936  15.367   5.941  11.480
 7072W        W 7937  17.047   5.326  12.701
 7073W        W 7938  17.327   5.125  13.100
 7074W        W 7939  16.532   5.799  13.034
 7075W        W 7940  17.002   6.173  11.166
 7076W        W 7941  16.674   4.194  12.494
 7077W        W 7942  18.153   4.472  11.762
 7078W        W 7943  14.647   7.061  13.793
 7079W        W 7944  15.064   6.287  13.325
 7080W        W 7945  14.631   7.133  11.557
 7081W        W 7946  16.530   4.403  13.363
 7082W        W 7947  15.893   6.426  11.212
 7083W        W 7948  17.798   6.808  11.398
 7084W        W 7949  16.773   5.461  11.412
 7085W        W 7950  15.616   4.652  11.929
 7086W        W 7951  16.448   4.562  10.981
 7087W        W 7952  17.032   6.127  14.159
 7088W        W 7953  17.385   4.033  11.776
 7089W        W 7954  14.715   3.881  11.224
 7090W        W 7955  16.001   6.200  13.514
 7091W        W 7956  15.800   6.116  12.606
 7092W        W 7957  15.542   6.068  11.004
 7093W        W 7958  14.783   6.309  11.772
 7094W        W 7959  15.287   5.379  14.214
 7095W        W 7960  15.991   3.939  14.400
 7096W        W 7961  16.700   4.081  13.756
 7097W        W 7962  15.895   3.849  12.037
 7098W        W 7963  16.954   3.926  11.542
 7099W        W 7964  14.899   3.858  13.119
 7100W        W 7965  14.947   4.821  12.489
 7101W        W 7966  17.636   3.929  12.895
 7102W        W 7967  15.058   4.427  11.709
 7103W        W 7968  17.629   4.115  13.325
 7104W        W 7969  18.025   5.318  11.010
 7105W        W 7970  15.317   4.076  12.829
 7106W        W 7971  16.431   4.648  13.769
 7107W        W 7972  14.579   4.338  11.247
 7108W        W 7973  15.365   5.727  13.808
 7109W        W 7974  16.723   5.125  12.987
 7110W        W 7975  16.590   7.204  11.283
 7111W        W 7976  14.736   5.711  10.980
 7112W        W 7977  15.471   6.122  14.106
 7113W        W 7978  14.992   5.289  13.737
 7114W        W 7979  15.983   5.394  13.531
 7115W        W 7980  17.751   3.753  13.793
 7116W        W 7981  18.149   5.363  13.784
 7117W        W 7982  18.137   5.563  11.470
 7118W        W 7983  17.000   5.895  11.569
 7119W        W 7984  17.474   7.195  11.264
 7120W        W 7985  16.651   5.185  14.406
 7121W        W 7986  14.981   6.152  14.446
 7122W        W 7987  18.187   4.074  14.398
 7123W        W 7988  17.905   5.002  13.019
 7124W        W 7989  16.213   7.132  14.496
 7125W        W 7990  16.068   3.761  11.223
 7126W        W 7991  17.607   6.360  11.166
 7127W        W 7992  15.376   4.453  14.052
 7128W        W 7993  15.810   6.447  13.914
 7129W        W 7994  17.936   4.438  13.712
 7130W        W 7995  17.147   7.097  11.680
 7131W        W 7996  17.386   5.716  13.047
 7132W        W 7997  15.636   4.132  13.714
 7133W        W 7998  16.105   5.201  14.471
 7134W        W 7999  15.608   6.380  11.665
 7135W        W 8000  17.363   5.878  11.929
 7136W        W 8001  15.131   4.504  13.653
 7137W        W 8002  16.460   6.566  12.117
 7138W        W 8003  18.210   5.126  12.298
 7139W        W 8004  16.432   3.759  14.017
 7140W        W 8005  17.212   6.464  13.096
 7141W        W 8006  17.515   6.808  12.804
 7142W        W 8007  16.734   6.610  11.232
 7143W        W 8008  14.744   6.502  14.074
 7144W        W 8009  15.487   4.494  13.312
 7145W        W 8010  15.457   3.842  12.422
 7146W        W 8011  17.078   4.684  13.114
 7147W        W 8012  15.876   5.855  11.314
 7148W        W 8013  17.874   5.797  12.813
 7149W        W 8014  15.201   6.555  14.236
 7150W        W 8015  17.588   7.237  12.033
 7151W        W 8016  15.687   4.257  12.478
 7152W        W 8017  15.456   5.750  12.568
 7153W        W 8018  15.769   7.161  13.318
 7154W        W 8019  17.836   7.257  14.350
 7155W        W 8020  16.995   5.445  13.283
 7156W        W 8021  14.844   5.243  11.198
 7157W        W 8022  17.978   6.901  11.895
 7158W        W 8023  17.815   4.225  11.514
 7159W        W 8024  15.954   3.744  13.917
 7160W        W 8025  17.660   6.546  12.375
 7161W        W 8026  17.689   5.102  12.280
 7162W        W 8027  15.806   4.775  12.496
 7163W        W 8028  16.051   5.037  13.820
 7164W        W 8029  17.162   6.190  13.683
 7165W        W 8030  15.812   4.644  13.795
 7166W        W 8031  15.791   7.110  12.411
 7167W        W 8032  15.108   7.069  14.045
 7168W        W 8033  15.220   6.430  11.175
 7169W        W 8034  17.737   6.188  11.985
 7170W        W 8035  15.341   4.980  13.871
 7171W        W 8036  18.114   4.910  11.352
 7172W        W 8037  15.859   5.967  11.823
 7173W        W 8038  16.958   5.349  13.904
 7174W        W 8039  16.849   4.977  13.448
 7175W        W 8040  15.409   5.349  13.477
 7176W        W 8041  17.619   7.237  13.306
 7177W        W 8042  17.410   3.871  14.300
 7178W        W 8043  15.074   4.021  13.887
 7179W        W 8044  15.413   5.044  12.940
 7180W        W 8045  15.782   4.858  11.062
 7181W        W 8046  14.585   6.617  13.607
 7182W        W 8047  16.170   5.326  13.050
 7183W        W 8048  15.993   4.351  11.155
 7184W        W 8049  15.128   5.167  11.936
 7185W        W 8050  14.899   7.019  13.373
 7186W        W 8051  17.694   5.245  11.481
 7187W        W 8052  17.789   4.161  14.167
 7188W        W 8053  17.225   6.370  12.130
 7189W        W 8054  14.823   5.294  14.307
 7190W        W 8055  17.789   3.758  11.603
 7191W        W 8056  17.309   6.233  11.614
 7192W        W 8057  16.211   5.291  11.699
 7193W        W 8058  17.398   4.095  11.222
 7194W        W 8059  17.463   4.702  13.408
 7195W        W 8060  15.172   5.295  12.615
 7196W        W 8061  15.466   6.234  12.264
 7197W        W 8062  17.229   4.854  12.229
 7198W        W 8063  16.252   4.233  12.925
 7199W        W 8064  18.214   6.144  13.436
 7200W        W 8065  18.132   4.131  12.997
 7201W        W 8066  14.671   6.961  12.373
 7202W        W 8067  15.180   6.148  11.909
 7203W        W 8068  15.095   3.765  14.462
 7204W        W 8069  16.214   6.618  14.564
 7205W        W 8070  17.969   5.586  12.354
 7206W        W 8071  17.323   5.763  11.234
 7207W        W 8072  16.618   7.284  13.446
 7208W        W 8073  17.475   6.006  14.483
 7209W        W 8074  16.290   3.716  11.763
 7210W        W 8075  17.003   4.585  12.622
 7211W        W 8076  14.689   6.172  12.954
 7212W        W 8077  15.942   4.134  11.595
 7213W        W 8078  15.746   5.618  14.444
 7214W        W 8079  16.740   4.599  12.158
 7215W        W 8080  16.945   6.009  13.280
 7216W        W 8081  15.099   6.614  13.715
 7217W        W 8082  15.690   6.597  14.438
 7218W        W 8083  15.541   4.394  11.452
 7219W        W 8084  17.058   4.536  11.777
 7220W        W 8085  17.016   6.644  14.014
 7221W        W 8086  15.701   5.236  12.613
 7222W        W 8087  15.356   6.934  13.478
 7223W        W 8088  18.101   7.051  11.079
 7224W        W 8089  14.964   5.723  14.075
 7225W        W 8090  16.959   5.985  12.763
 7226W        W 8091  15.395   5.634  12.005
 7227W        W 8092  15.766   6.641  13.400
 7228W        W 8093  16.144   4.060  12.441
 7229W        W 8094  14.755   6.044  11.371
 7230W        W 8095  16.274   4.995  11.241
 7231W        W 8096  14.920   5.544  12.260
 7232W        W 8097  16.210   4.186  13.724
 7233W        W 8098  17.882   3.895  11.151
 7234W        W 8099  17.975   5.641  14.250
 7235W        W 8100  16.629   6.898  14.402
 7236W        W 8101  18.187   5.992  13.924
 7237W        W 8102  17.595   6.790  14.535
 7238W        W 8103  15.334   7.246  13.013
 7239W        W 8104  18.193   5.868  11.887
 7240W        W 8105  16.723   5.135  12.400
 7241W        W 8106  16.490   3.747  12.290
 7242W        W 8107  15.549   6.731  12.127
 7243W        W 8108  16.048   4.472  13.352
 7244W        W 8109  15.748   3.841  12.821
 7245W        W 8110  14.811   6.663  11.369
 7246W        W 8111  16.627   6.027  12.087
 7247W        W 8112  15.502   6.822  13.966
 7248W        W 8113  14.979   5.645  11.662
 7249W        W 8114  14.864   4.188  12.661
 7250W        W 8115  16.412   6.153  12.718
 7251W        W 8116  14.664   4.007  11.738
 7252W        W 8117  17.328   5.213  13.665
 7253W        W 8118  17.205   4.599  11.237
 7254W        W 8119  17.722   6.271  12.885
 7255W        W 8120  16.383   6.755  12.716
 7256W        W 8121  15.795   6.859  11.627
 7257W        W 8122  17.077   3.762  11.057
 7258W        W 8123  14.877   7.022  12.798
 7259W        W 8124  17.074   4.780  14.433
 7260W        W 8125  15.057   4.310  14.432
 7261W        W 8126  14.788   4.910  11.765
 7262W        W 8127  15.479   4.899  11.490
 7263W        W 8128  17.242   5.226  14.307
 7264W        W 8129  15.585   5.507  13.016
 7265W        W 8130  17.059   3.793  12.136
 7266W        W 8131  16.190   7.224  12.639
 7267W        W 8132  17.404   6.686  13.576
 7268W        W 8133  16.988   6.835  12.687
 7269W        W 8134  17.007   5.815  12.281
 7270W        W 8135  16.469   4.040  11.352
 7271W        W 8136  18.150   3.668  12.074
 7272W        W 8137  15.838   5.303  11.237
 7273W        W 8138  18.004   4.640  12.227
 7274W        W 8139  16.696   5.810  11.104
 7275W        W 8140  17.632   6.010  13.852
 7276W        W 8141  17.286   6.711  11.319
 7277W        W 8142  15.901   4.386  14.225
 7278W        W 8143  15.721   4.970  13.466
 7279W        W 8144  17.813   6.465  13.743
 7280W        W 8145  16.913   4.415  14.120
 7281W        W 8146  14.757   4.886  13.897
 7282W        W 8147  16.517   5.363  13.623
 7283W        W 8148  14.874   6.121  12.280
 7284W        W 8149  15.021   5.418  13.170
 7285W        W 8150  17.338   5.704  13.520
 7286W        W 8151  17.110   7.084  14.331
 7287W        W 8152  17.006   4.823  13.884
 7288W        W 8153  17.283   6.877  12.289
 7289W        W 8154  16.285   6.597  13.612
 7290W        W 8155  15.770   6.952  12.881
 7291W        W 8156  17.575   6.123  13.300
 7292W        W 8157  16.625   6.195  14.437
 7293W        W 8158  15.230   6.148  12.776
 7294W        W 8159  17.576   5.907  12.421
 7295W        W 8160  17.217   6.973  13.172
 7296W        W 8161  15.195   6.702  13.042
 7297W        W 8162  16.216   4.754  14.252
 7298W        W 8163  16.667   6.920  11.763
 7299W        W 8164  15.975   6.175  14.401
 7300W        W 8165  16.101   6.413  11.778
 7301W        W 8166  15.322   5.153  11.037
 7302W        W 8167  14.661   7.239  17.936
 7303W        W 8168  15.037   6.132  17.459
 7304W        W 8169  17.742   5.862  15.229
 7305W        W 8170  17.872   6.947  17.256
 7306W        W 8171  15.790   6.938  14.782
 7307W        W 8172  15.873   5.090  15.765
 7308W        W 8173  15.388   4.938  15.929
 7309W        W 8174  16.379   5.753  15.363
 7310W        W 8175  16.054   6.845  17.718
 7311W        W 8176  14.703   4.406  17.681
 7312W        W 8177  15.465   3.686  17.483
 7313W        W 8178  17.159   4.074  16.370
 7314W        W 8179  16.808   4.945  14.940
 7315W        W 8180  17.378   4.379  18.031
 7316W        W 8181  14.744   4.171  17.156
 7317W        W 8182  14.843   6.790  18.177
 7318W        W 8183  16.365   6.180  14.909
 7319W        W 8184  14.797   4.963  16.602
 7320W        W 8185  15.690   4.854  17.839
 7321W        W 8186  18.149   4.713  16.338
 7322W        W 8187  17.913   5.756  17.197
 7323W        W 8188  16.221   5.089  16.224
 7324W        W 8189  16.767   6.428  16.593
 7325W        W 8190  15.267   5.862  16.825
 7326W        W 8191  14.626   5.390  16.396
 7327W        W 8192  15.662   5.362  17.588
 7328W        W 8193  17.933   5.145  17.842
 7329W        W 8194  15.549   6.589  16.287
 7330W        W 8195  16.670   6.278  17.421
 7331W        W 8196  15.890   4.918  16.646
 7332W        W 8197  16.182   5.702  16.289
 7333W        W 8198  17.179   6.475  18.137
 7334W        W 8199  16.258   5.795  18.147
 7335W        W 8200  16.239   5.511  17.625
 7336W        W 8201  14.648   4.902  18.147
 7337W        W 8202  17.480   6.437  17.746
 7338W        W 8203  15.061   4.019  15.744
 7339W        W 8204  15.588   6.277  16.743
 7340W        W 8205  18.051   6.060  16.033
 7341W        W 8206  17.464   4.460  16.600
 7342W        W 8207  17.749   4.413  14.695
 7343W        W 8208  18.214   5.214  17.001
 7344W        W 8209  16.181   6.921  16.754
 7345W        W 8210  17.955   6.387  15.192
 7346W        W 8211  15.084   7.173  14.946
 7347W        W 8212  15.477   7.219  15.622
 7348W        W 8213  15.274   3.973  17.048
 7349W        W 8214  17.897   4.991  17.323
 7350W        W 8215  17.302   5.413  15.782
 7351W        W 8216  17.268   5.101  14.809
 7352W        W 8217  16.476   6.245  16.949
 7353W        W 8218  16.282   4.575  16.148
 7354W        W 8219  16.882   6.662  17.142
 7355W        W 8220  17.753   5.453  15.564
 7356W        W 8221  16.655   4.111  15.580
 7357W        W 8222  15.312   6.805  15.263
 7358W        W 8223  14.683   4.304  15.862
 7359W        W 8224  17.469   4.911  16.336
 7360W        W 8225  14.927   6.528  16.251
 7361W        W 8226  16.268   6.878  15.121
 7362W        W 8227  17.660   4.904  14.585
 7363W        W 8228  14.683   6.662  16.749
 7364W        W 8229  15.474   6.234  17.229
 7365W        W 8230  15.847   5.594  15.848
 7366W        W 8231  15.869   3.999  16.941
 7367W        W 8232  18.098   3.761  16.238
 7368W        W 8233  15.317   5.633  14.706
 7369W        W 8234  14.972   4.666  14.885
 7370W        W 8235  15.034   6.622  15.679
 7371W        W 8236  16.165   6.105  15.927
 7372W        W 8237  17.497   6.964  17.641
 7373W        W 8238  16.423   4.606  15.325
 7374W        W 8239  17.806   7.004  16.097
 7375W        W 8240  17.483   4.857  17.695
 7376W        W 8241  18.196   6.513  15.829
 7377W        W 8242  16.823   5.805  17.313
 7378W        W 8243  14.589   5.356  15.519
 7379W        W 8244  15.700   5.771  17.092
 7380W        W 8245  16.904   5.035  15.470
 7381W        W 8246  16.781   5.525  15.574
 7382W        W 8247  15.124   4.945  17.048
 7383W        W 8248  15.109   4.821  17.970
 7384W        W 8249  14.999   3.738  16.129
 7385W        W 8250  16.767   4.085  16.690
 7386W        W 8251  16.415   4.270  17.853
 7387W        W 8252  16.770   4.419  15.031
 7388W        W 8253  17.953   6.812  17.785
 7389W        W 8254  16.920   3.893  17.824
 7390W        W 8255  17.939   6.194  17.946
 7391W        W 8256  17.369   4.361  17.542
 7392W        W 8257  17.169   4.299  15.812
 7393W        W 8258  17.562   5.433  18.216
 7394W        W 8259  15.302   7.009  16.202
 7395W        W 8260  15.960   4.726  15.188
 7396W        W 8261  15.529   4.010  17.852
 7397W        W 8262  17.581   4.494  15.533
 7398W        W 8263  17.948   4.976  15.478
 7399W        W 8264  15.691   7.193  17.949
 7400W        W 8265  15.617   3.729  15.184
 7401W        W 8266  17.938   4.263  16.219
 7402W        W 8267  18.088   6.512  14.664
 7403W        W 8268  14.995   5.715  16.366
 7404W        W 8269  16.912   4.302  14.596
 7405W        W 8270  18.046   6.634  16.316
 7406W        W 8271  18.085   3.828  17.066
 7407W        W 8272  16.530   5.040  17.620
 7408W        W 8273  16.623   6.379  15.323
 7409W        W 8274  17.023   5.673  18.063
 7410W        W 8275  16.697   3.650  16.372
 7411W        W 8276  15.309   4.553  16.435
 7412W        W 8277  14.863   5.753  17.209
 7413W        W 8278  16.722   6.946  15.915
 7414W        W 8279  17.916   4.543  16.787
 7415W        W 8280  16.553   6.890  17.554
 7416W        W 8281  17.896   5.949  14.759
 7417W        W 8282  16.331   5.432  15.820
 7418W        W 8283  18.183   3.943  17.561
 7419W        W 8284  16.332   5.778  17.155
 7420W        W 8285  16.549   4.664  16.600
 7421W        W 8286  17.401   4.962  15.438
 7422W        W 8287  17.688   4.695  15.080
 7423W        W 8288  17.497   6.735  15.469
 7424W        W 8289  17.331   6.338  16.265
 7425W        W 8290  17.227   5.417  15.243
 7426W        W 8291  16.660   5.627  16.229
 7427W        W 8292  17.541   5.415  16.296
 7428W        W 8293  14.916   4.430  16.720
 7429W        W 8294  17.694   5.482  17.547
 7430W        W 8295  18.045   7.100  16.693
 7431W        W 8296  15.975   6.544  16.095
 7432W        W 8297  16.982   7.077  17.419
 7433W        W 8298  16.976   4.407  17.183
 7434W        W 8299  16.183   7.115  17.244
 7435W        W 8300  17.880   4.069  15.710
 7436W        W 8301  17.671   5.388  17.011
 7437W        W 8302  14.654   4.709  17.049
 7438W        W 8303  17.514   4.504  16.067
 7439W        W 8304  17.925   4.655  17.844
 7440W        W 8305  16.810   6.354  16.062
 7441W        W 8306  16.066   6.945  15.675
 7442W        W 8307  15.181   4.125  14.933
 7443W        W 8308  16.285   3.779  16.743
 7444W        W 8309  15.313   6.899  14.591
 7445W        W 8310  15.687   5.365  15.342
 7446W        W 8311  16.341   5.994  17.655
 7447W        W 8312  16.171   4.352  15.645
 7448W        W 8313  17.527   3.949  16.073
 7449W        W 8314  17.247   7.231  16.401
 7450W        W 8315  16.659   6.879  16.741
 7451W        W 8316  16.055   5.916  16.702
 7452W        W 8317  17.825   6.639  16.828
 7453W        W 8318  15.519   4.142  15.597
 7454W        W 8319  16.041   6.439  16.557
 7455W        W 8320  15.524   4.370  14.622
 7456W        W 8321  16.325   4.979  17.016
 7457W        W 8322  17.173   3.845  16.886
 7458W        W 8323  14.593   5.688  16.771
 7459W        W 8324  16.297   5.506  14.929
 7460W        W 8325  15.565   3.821  14.699
 7461W        W 8326  16.303   4.902  15.750
 7462W        W 8327  17.273   3.878  17.449
 7463W        W 8328  15.861   5.890  17.558
 7464W        W 8329  16.665   5.672  17.775
 7465W        W 8330  17.282   5.702  17.668
 7466W        W 8331  16.566   3.842  18.173
 7467W        W 8332  15.788   4.458  16.566
 7468W        W 8333  15.214   4.414  15.964
 7469W        W 8334  15.000   7.126  15.640
 7470W        W 8335  16.332   6.456  17.765
 7471W        W 8336  15.367   5.941  15.124
 7472W        W 8337  17.047   5.326  16.345
 7473W        W 8338  17.327   5.125  16.744
 7474W        W 8339  16.532   5.799  16.678
 7475W        W 8340  17.002   6.173  14.810
 7476W        W 8341  16.674   4.194  16.138
 7477W        W 8342  18.153   4.472  15.406
 7478W        W 8343  14.647   7.061  17.437
 7479W        W 8344  15.064   6.287  16.969
 7480W        W 8345  14.631   7.133  15.201
 7481W        W 8346  16.530   4.403  17.007
 7482W        W 8347  15.893   6.426  14.856
 7483W        W 8348  17.798   6.808  15.042
 7484W        W 8349  16.773   5.461  15.056
 7485W        W 8350  15.616   4.652  15.573
 7486W        W 8351  16.448   4.562  14.625
 7487W        W 8352  17.032   6.127  17.803
 7488W        W 8353  17.385   4.033  15.420
 7489W        W 8354  14.715   3.881  14.868
 7490W        W 8355  16.001   6.200  17.158
 7491W        W 8356  15.800   6.116  16.250
 7492W        W 8357  15.542   6.068  14.648
 7493W        W 8358  14.783   6.309  15.416
 7494W        W 8359  15.287   5.379  17.858
 7495W        W 8360  15.991   3.939  18.044
 7496W        W 8361  16.700   4.081  17.400
 7497W        W 8362  15.895   3.849  15.681
 7498W        W 8363  16.954   3.926  15.186
 7499W        W 8364  14.899   3.858  16.763
 7500W        W 8365  14.947   4.821  16.133
 7501W        W 8366  17.636   3.929  16.539
 7502W        W 8367  15.058   4.427  15.353
 7503W        W 8368  17.629   4.115  16.969
 7504W        W 8369  18.025   5.318  14.654
 7505W        W 8370  15.317   4.076  16.473
 7506W        W 8371  16.431   4.648  17.413
 7507W        W 8372  14.579   4.338  14.891
 7508W        W 8373  15.365   5.727  17.452
 7509W        W 8374  16.723   5.125  16.631
 7510W        W 8375  16.590   7.204  14.927
 7511W        W 8376  14.736   5.711  14.624
 7512W        W 8377  15.471   6.122  17.750
 7513W        W 8378  14.992   5.289  17.381
 7514W        W 8379  15.983   5.394  17.175
 7515W        W 8380  17.751   3.753  17.437
 7516W        W 8381  18.149   5.363  17.428
 7517W        W 8382  18.137   5.563  15.114
 7518W        W 8383  17.000   5.895  15.213
 7519W        W 8384  17.474   7.195  14.908
 7520W        W 8385  16.651   5.185  18.050
 7521W        W 8386  14.981   6.152  18.090
 7522W        W 8387  18.187   4.074  18.042
 7523W        W 8388  17.905   5.002  16.663
 7524W        W 8389  16.213   7.132  18.140
 7525W        W 8390  16.068   3.761  14.867
 7526W        W 8391  17.607   6.360  14.810
 7527W        W 8392  15.376   4.453  17.696
 7528W        W 8393  15.810   6.447  17.558
 7529W        W 8394  17.936   4.438  17.356
 7530W        W 8395  17.147   7.097  15.324
 7531W        W 8396  17.386   5.716  16.691
 7532W        W 8397  15.636   4.132  17.358
 7533W        W 8398  16.105   5.201  18.115
 7534W        W 8399  15.608   6.380  15.309
 7535W        W 8400  17.363   5.878  15.573
 7536W        W 8401  15.131   4.504  17.297
 7537W        W 8402  16.460   6.566  15.761
 7538W        W 8403  18.210   5.126  15.942
 7539W        W 8404  16.432   3.759  17.661
 7540W        W 8405  17.212   6.464  16.740
 7541W        W 8406  17.515   6.808  16.448
 7542W        W 8407  16.734   6.610  14.876
 7543W        W 8408  14.744   6.502  17.718
 7544W        W 8409  15.487   4.494  16.956
 7545W        W 8410  15.457   3.842  16.066
 7546W        W 8411  17.078   4.684  16.758
 7547W        W 8412  15.876   5.855  14.958
 7548W        W 8413  17.874   5.797  16.457
 7549W        W 8414  15.201   6.555  17.880
 7550W        W 8415  17.588   7.237  15.677
 7551W        W 8416  15.687   4.257  16.122
 7552W        W 8417  15.456   5.750  16.212
 7553W        W 8418  15.769   7.161  16.962
 7554W        W 8419  17.836   7.257  17.994
 7555W        W 8420  16.995   5.445  16.927
 7556W        W 8421  14.844   5.243  14.842
 7557W        W 8422  17.978   6.901  15.539
 7558W        W 8423  17.815   4.225  15.158
 7559W        W 8424  15.954   3.744  17.561
 7560W        W 8425  17.660   6.546  16.019
 7561W        W 8426  17.689   5.102  15.924
 7562W        W 8427  15.806   4.775  16.140
 7563W        W 8428  16.051   5.037  17.464
 7564W        W 8429  17.162   6.190  17.327
 7565W        W 8430  15.812   4.644  17.439
 7566W        W 8431  15.791   7.110  16.055
 7567W        W 8432  15.108   7.069  17.689
 7568W        W 8433  15.220   6.430  14.819
 7569W        W 8434  17.737   6.188  15.629
 7570W        W 8435  15.341   4.980  17.515
 7571W        W 8436  18.114   4.910  14.996
 7572W        W 8437  15.859   5.967  15.467
 7573W        W 8438  16.958   5.349  17.548
 7574W        W 8439  16.849   4.977  17.092
 7575W        W 8440  15.409   5.349  17.121
 7576W        W 8441  17.619   7.237  16.950
 7577W        W 8442  17.410   3.871  17.944
 7578W        W 8443  15.074   4.021  17.531
 7579W        W 8444  15.413   5.044  16.584
 7580W        W 8445  15.782   4.858  14.706
 7581W        W 8446  14.585   6.617  17.251
 7582W        W 8447  16.170   5.326  16.694
 7583W        W 8448  15.993   4.351  14.799
 7584W        W 8449  15.128   5.167  15.580
 7585W        W 8450  14.899   7.019  17.017
 7586W        W 8451  17.694   5.245  15.125
 7587W        W 8452  17.789   4.161  17.811
 7588W        W 8453  17.225   6.370  15.774
 7589W        W 8454  14.823   5.294  17.951
 7590W        W 8455  17.309   6.233  15.258
 7591W        W 8456  16.211   5.291  15.343
 7592W        W 8457  17.398   4.095  14.866
 7593W        W 8458  17.463   4.702  17.052
 7594W        W 8459  15.172   5.295  16.259
 7595W        W 8460  15.466   6.234  15.908
 7596W        W 8461  17.229   4.854  15.873
 7597W        W 8462  16.252   4.233  16.569
 7598W        W 8463  18.214   6.144  17.080
 7599W        W 8464  18.132   4.131  16.641
 7600W        W 8465  14.671   6.961  16.017
 7601W        W 8466  15.180   6.148  15.553
 7602W        W 8467  15.095   3.765  18.106
 7603W        W 8468  16.214   6.618  18.208
 7604W        W 8469  17.969   5.586  15.998
 7605W        W 8470  17.323   5.763  14.878
 7606W        W 8471  16.618   7.284  17.090
 7607W        W 8472  17.475   6.006  18.127
 7608W        W 8473  16.290   3.716  15.407
 7609W        W 8474  17.003   4.585  16.266
 7610W        W 8475  14.689   6.172  16.598
 7611W        W 8476  15.942   4.134  15.239
 7612W        W 8477  15.746   5.618  18.088
 7613W        W 8478  16.740   4.599  15.802
 7614W        W 8479  16.945   6.009  16.924
 7615W        W 8480  15.099   6.614  17.359
 7616W        W 8481  15.690   6.597  18.082
 7617W        W 8482  15.541   4.394  15.096
 7618W        W 8483  17.058   4.536  15.421
 7619W        W 8484  17.016   6.644  17.658
 7620W        W 8485  15.701   5.236  16.257
 7621W        W 8486  15.356   6.934  17.122
 7622W        W 8487  18.101   7.051  14.723
 7623W        W 8488  14.964   5.723  17.719
 7624W        W 8489  16.959   5.985  16.407
 7625W        W 8490  15.395   5.634  15.649
 7626W        W 8491  15.766   6.641  17.044
 7627W        W 8492  16.144   4.060  16.085
 7628W        W 8493  14.755   6.044  15.015
 7629W        W 8494  16.274   4.995  14.885
 7630W        W 8495  14.920   5.544  15.904
 7631W        W 8496  16.210   4.186  17.368
 7632W        W 8497  17.882   3.895  14.795
 7633W        W 8498  17.975   5.641  17.894
 7634W        W 8499  16.629   6.898  18.046
 7635W        W 8500  18.187   5.992  17.568
 7636W        W 8501  17.595   6.790  18.179
 7637W        W 8502  15.334   7.246  16.657
 7638W        W 8503  18.193   5.868  15.531
 7639W        W 8504  16.723   5.135  16.044
 7640W        W 8505  16.490   3.747  15.934
 7641W        W 8506  15.549   6.731  15.771
 7642W        W 8507  16.048   4.472  16.996
 7643W        W 8508  15.748   3.841  16.465
 7644W        W 8509  14.811   6.663  15.013
 7645W        W 8510  16.627   6.027  15.731
 7646W        W 8511  15.502   6.822  17.610
 7647W        W 8512  14.979   5.645  15.306
 7648W        W 8513  14.864   4.188  16.305
 7649W        W 8514  16.412   6.153  16.362
 7650W        W 8515  14.664   4.007  15.382
 7651W        W 8516  17.328   5.213  17.309
 7652W        W 8517  17.205   4.599  14.881
 7653W        W 8518  17.722   6.271  16.529
 7654W        W 8519  16.383   6.755  16.360
 7655W        W 8520  15.795   6.859  15.271
 7656W        W 8521  17.077   3.762  14.701
 7657W        W 8522  14.877   7.022  16.442
 7658W        W 8523  17.074   4.780  18.077
 7659W        W 8524  15.057   4.310  18.076
 7660W        W 8525  14.788   4.910  15.409
 7661W        W 8526  15.479   4.899  15.134
 7662W        W 8527  17.242   5.226  17.951
 7663W        W 8528  15.585   5.507  16.660
 7664W        W 8529  17.059   3.793  15.780
 7665W        W 8530  16.190   7.224  16.283
 7666W        W 8531  17.404   6.686  17.220
 7667W        W 8532  16.988   6.835  16.331
 7668W        W 8533  17.007   5.815  15.925
 7669W        W 8534  16.469   4.040  14.996
 7670W        W 8535  18.150   3.668  15.718
 7671W        W 8536  15.838   5.303  14.881
 7672W        W 8537  18.004   4.640  15.871
 7673W        W 8538  16.696   5.810  14.748
 7674W        W 8539  17.632   6.010  17.496
 7675W        W 8540  17.286   6.711  14.963
 7676W        W 8541  15.901   4.386  17.869
 7677W        W 8542  15.721   4.970  17.110
 7678W        W 8543  17.813   6.465  17.387
 7679W        W 8544  16.913   4.415  17.764
 7680W        W 8545  14.757   4.886  17.541
 7681W        W 8546  16.517   5.363  17.267
 7682W        W 8547  14.874   6.121  15.924
 7683W        W 8548  15.021   5.418  16.814
 7684W        W 8549  17.338   5.704  17.164
 7685W        W 8550  17.110   7.084  17.975
 7686W        W 8551  17.006   4.823  17.528
 7687W        W 8552  17.283   6.877  15.933
 7688W        W 8553  16.285   6.597  17.256
 7689W        W 8554  15.770   6.952  16.525
 7690W        W 8555  17.575   6.123  16.944
 7691W        W 8556  16.625   6.195  18.081
 7692W        W 8557  15.230   6.148  16.420
 7693W        W 8558  17.576   5.907  16.065
 7694W        W 8559  17.217   6.973  16.816
 7695W        W 8560  15.195   6.702  16.686
 7696W        W 8561  16.216   4.754  17.896
 7697W        W 8562  16.667   6.920  15.407
 7698W        W 8563  15.975   6.175  18.045
 7699W        W 8564  16.101   6.413  15.422
 7700W        W 8565  15.322   5.153  14.681
 7701W        W 8566  14.661   7.239  21.580
 7702W        W 8567  15.037   6.132  21.103
 7703W        W 8568  17.742   5.862  18.873
 7704W        W 8569  17.872   6.947  20.900
 7705W        W 8570  15.790   6.938  18.426
 7706W        W 8571  15.873   5.090  19.409
 7707W        W 8572  15.388   4.938  19.573
 7708W        W 8573  16.379   5.753  19.007
 7709W        W 8574  16.054   6.845  21.362
 7710W        W 8575  14.703   4.406  21.325
 7711W        W 8576  15.465   3.686  21.127
 7712W        W 8577  17.159   4.074  20.014
 7713W        W 8578  16.808   4.945  18.584
 7714W        W 8579  17.378   4.379  21.675
 7715W        W 8580  14.744   4.171  20.800
 7716W        W 8581  14.843   6.790  21.821
 7717W        W 8582  16.365   6.180  18.553
 7718W        W 8583  14.797   4.963  20.246
 7719W        W 8584  15.690   4.854  21.483
 7720W        W 8585  18.149   4.713  19.982
 7721W        W 8586  17.913   5.756  20.841
 7722W        W 8587  16.221   5.089  19.868
 7723W        W 8588  16.767   6.428  20.237
 7724W        W 8589  15.267   5.862  20.469
 7725W        W 8590  14.626   5.390  20.040
 7726W        W 8591  15.662   5.362  21.232
 7727W        W 8592  17.933   5.145  21.486
 7728W        W 8593  15.549   6.589  19.931
 7729W        W 8594  16.670   6.278  21.065
 7730W        W 8595  15.890   4.918  20.290
 7731W        W 8596  16.182   5.702  19.933
 7732W        W 8597  17.179   6.475  21.781
 7733W        W 8598  16.258   5.795  21.791
 7734W        W 8599  16.239   5.511  21.269
 7735W        W 8600  14.648   4.902  21.791
 7736W        W 8601  17.480   6.437  21.390
 7737W        W 8602  15.061   4.019  19.388
 7738W        W 8603  15.588   6.277  20.387
 7739W        W 8604  18.051   6.060  19.677
 7740W        W 8605  17.464   4.460  20.244
 7741W        W 8606  17.749   4.413  18.339
 7742W        W 8607  18.214   5.214  20.645
 7743W        W 8608  16.181   6.921  20.398
 7744W        W 8609  17.955   6.387  18.836
 7745W        W 8610  15.084   7.173  18.590
 7746W        W 8611  15.477   7.219  19.266
 7747W        W 8612  15.274   3.973  20.692
 7748W        W 8613  17.897   4.991  20.967
 7749W        W 8614  17.302   5.413  19.426
 7750W        W 8615  17.268   5.101  18.453
 7751W        W 8616  16.476   6.245  20.593
 7752W        W 8617  16.282   4.575  19.792
 7753W        W 8618  16.882   6.662  20.786
 7754W        W 8619  17.753   5.453  19.208
 7755W        W 8620  16.655   4.111  19.224
 7756W        W 8621  15.312   6.805  18.907
 7757W        W 8622  14.683   4.304  19.506
 7758W        W 8623  17.469   4.911  19.980
 7759W        W 8624  14.927   6.528  19.895
 7760W        W 8625  16.268   6.878  18.765
 7761W        W 8626  17.660   4.904  18.229
 7762W        W 8627  14.683   6.662  20.393
 7763W        W 8628  15.474   6.234  20.873
 7764W        W 8629  15.847   5.594  19.492
 7765W        W 8630  15.869   3.999  20.585
 7766W        W 8631  18.098   3.761  19.882
 7767W        W 8632  15.317   5.633  18.350
 7768W        W 8633  14.972   4.666  18.529
 7769W        W 8634  15.034   6.622  19.323
 7770W        W 8635  16.165   6.105  19.571
 7771W        W 8636  17.497   6.964  21.285
 7772W        W 8637  16.423   4.606  18.969
 7773W        W 8638  17.806   7.004  19.741
 7774W        W 8639  17.483   4.857  21.339
 7775W        W 8640  18.196   6.513  19.473
 7776W        W 8641  16.823   5.805  20.957
 7777W        W 8642  14.589   5.356  19.163
 7778W        W 8643  15.700   5.771  20.736
 7779W        W 8644  16.904   5.035  19.114
 7780W        W 8645  16.781   5.525  19.218
 7781W        W 8646  15.124   4.945  20.692
 7782W        W 8647  15.109   4.821  21.614
 7783W        W 8648  14.999   3.738  19.773
 7784W        W 8649  16.767   4.085  20.334
 7785W        W 8650  16.415   4.270  21.497
 7786W        W 8651  16.770   4.419  18.675
 7787W        W 8652  17.953   6.812  21.429
 7788W        W 8653  16.920   3.893  21.468
 7789W        W 8654  17.939   6.194  21.590
 7790W        W 8655  17.369   4.361  21.186
 7791W        W 8656  17.169   4.299  19.456
 7792W        W 8657  17.562   5.433  21.860
 7793W        W 8658  15.302   7.009  19.846
 7794W        W 8659  15.960   4.726  18.832
 7795W        W 8660  15.529   4.010  21.496
 7796W        W 8661  17.581   4.494  19.177
 7797W        W 8662  17.948   4.976  19.122
 7798W        W 8663  15.691   7.193  21.593
 7799W        W 8664  15.617   3.729  18.828
 7800W        W 8665  17.938   4.263  19.863
 7801W        W 8666  18.088   6.512  18.308
 7802W        W 8667  14.995   5.715  20.010
 7803W        W 8668  16.912   4.302  18.240
 7804W        W 8669  18.046   6.634  19.960
 7805W        W 8670  18.085   3.828  20.710
 7806W        W 8671  16.530   5.040  21.264
 7807W        W 8672  16.623   6.379  18.967
 7808W        W 8673  17.023   5.673  21.707
 7809W        W 8674  16.697   3.650  20.016
 7810W        W 8675  15.309   4.553  20.079
 7811W        W 8676  14.863   5.753  20.853
 7812W        W 8677  16.722   6.946  19.559
 7813W        W 8678  17.916   4.543  20.431
 7814W        W 8679  16.553   6.890  21.198
 7815W        W 8680  17.896   5.949  18.403
 7816W        W 8681  16.331   5.432  19.464
 7817W        W 8682  18.183   3.943  21.205
 7818W        W 8683  16.332   5.778  20.799
 7819W        W 8684  16.549   4.664  20.244
 7820W        W 8685  17.401   4.962  19.082
 7821W        W 8686  17.688   4.695  18.724
 7822W        W 8687  17.497   6.735  19.113
 7823W        W 8688  17.331   6.338  19.909
 7824W        W 8689  17.227   5.417  18.887
 7825W        W 8690  16.660   5.627  19.873
 7826W        W 8691  17.541   5.415  19.940
 7827W        W 8692  14.916   4.430  20.364
 7828W        W 8693  17.694   5.482  21.191
 7829W        W 8694  18.045   7.100  20.337
 7830W        W 8695  15.975   6.544  19.739
 7831W        W 8696  16.982   7.077  21.063
 7832W        W 8697  16.976   4.407  20.827
 7833W        W 8698  16.183   7.115  20.888
 7834W        W 8699  17.880   4.069  19.354
 7835W        W 8700  17.671   5.388  20.655
 7836W        W 8701  14.654   4.709  20.693
 7837W        W 8702  17.514   4.504  19.711
 7838W        W 8703  17.925   4.655  21.488
 7839W        W 8704  16.810   6.354  19.706
 7840W        W 8705  16.066   6.945  19.319
 7841W        W 8706  15.181   4.125  18.577
 7842W        W 8707  16.285   3.779  20.387
 7843W        W 8708  15.313   6.899  18.235
 7844W        W 8709  15.687   5.365  18.986
 7845W        W 8710  16.341   5.994  21.299
 7846W        W 8711  16.171   4.352  19.289
 7847W        W 8712  17.527   3.949  19.717
 7848W        W 8713  17.247   7.231  20.045
 7849W        W 8714  16.659   6.879  20.385
 7850W        W 8715  16.055   5.916  20.346
 7851W        W 8716  17.825   6.639  20.472
 7852W        W 8717  15.519   4.142  19.241
 7853W        W 8718  16.041   6.439  20.201
 7854W        W 8719  15.524   4.370  18.266
 7855W        W 8720  16.325   4.979  20.660
 7856W        W 8721  17.173   3.845  20.530
 7857W        W 8722  14.593   5.688  20.415
 7858W        W 8723  16.297   5.506  18.573
 7859W        W 8724  15.565   3.821  18.343
 7860W        W 8725  16.303   4.902  19.394
 7861W        W 8726  17.273   3.878  21.093
 7862W        W 8727  15.861   5.890  21.202
 7863W        W 8728  16.665   5.672  21.419
 7864W        W 8729  17.282   5.702  21.312
 7865W        W 8730  16.566   3.842  21.817
 7866W        W 8731  15.788   4.458  20.210
 7867W        W 8732  15.214   4.414  19.608
 7868W        W 8733  15.000   7.126  19.284
 7869W        W 8734  16.332   6.456  21.409
 7870W        W 8735  15.367   5.941  18.768
 7871W        W 8736  17.047   5.326  19.989
 7872W        W 8737  17.327   5.125  20.388
 7873W        W 8738  16.532   5.799  20.322
 7874W        W 8739  17.002   6.173  18.454
 7875W        W 8740  16.674   4.194  19.782
 7876W        W 8741  18.153   4.472  19.050
 7877W        W 8742  14.647   7.061  21.081
 7878W        W 8743  15.064   6.287  20.613
 7879W        W 8744  14.631   7.133  18.845
 7880W        W 8745  16.530   4.403  20.651
 7881W        W 8746  15.893   6.426  18.500
 7882W        W 8747  17.798   6.808  18.686
 7883W        W 8748  16.773   5.461  18.700
 7884W        W 8749  15.616   4.652  19.217
 7885W        W 8750  16.448   4.562  18.269
 7886W        W 8751  17.032   6.127  21.447
 7887W        W 8752  17.385   4.033  19.064
 7888W        W 8753  14.715   3.881  18.512
 7889W        W 8754  16.001   6.200  20.802
 7890W        W 8755  15.800   6.116  19.894
 7891W        W 8756  15.542   6.068  18.292
 7892W        W 8757  14.783   6.309  19.060
 7893W        W 8758  15.287   5.379  21.502
 7894W        W 8759  15.991   3.939  21.688
 7895W        W 8760  16.700   4.081  21.044
 7896W        W 8761  15.895   3.849  19.325
 7897W        W 8762  16.954   3.926  18.830
 7898W        W 8763  14.899   3.858  20.407
 7899W        W 8764  14.947   4.821  19.777
 7900W        W 8765  17.636   3.929  20.183
 7901W        W 8766  15.058   4.427  18.997
 7902W        W 8767  17.629   4.115  20.613
 7903W        W 8768  18.025   5.318  18.298
 7904W        W 8769  15.317   4.076  20.117
 7905W        W 8770  16.431   4.648  21.057
 7906W        W 8771  14.579   4.338  18.535
 7907W        W 8772  15.365   5.727  21.096
 7908W        W 8773  16.723   5.125  20.275
 7909W        W 8774  16.590   7.204  18.571
 7910W        W 8775  14.736   5.711  18.268
 7911W        W 8776  15.471   6.122  21.394
 7912W        W 8777  14.992   5.289  21.025
 7913W        W 8778  15.983   5.394  20.819
 7914W        W 8779  17.751   3.753  21.081
 7915W        W 8780  18.149   5.363  21.072
 7916W        W 8781  18.137   5.563  18.758
 7917W        W 8782  17.000   5.895  18.857
 7918W        W 8783  17.474   7.195  18.552
 7919W        W 8784  16.651   5.185  21.694
 7920W        W 8785  14.981   6.152  21.734
 7921W        W 8786  18.187   4.074  21.686
 7922W        W 8787  17.905   5.002  20.307
 7923W        W 8788  16.213   7.132  21.784
 7924W        W 8789  16.068   3.761  18.511
 7925W        W 8790  17.607   6.360  18.454
 7926W        W 8791  15.376   4.453  21.340
 7927W        W 8792  15.810   6.447  21.202
 7928W        W 8793  17.936   4.438  21.000
 7929W        W 8794  17.147   7.097  18.968
 7930W        W 8795  17.386   5.716  20.335
 7931W        W 8796  15.636   4.132  21.002
 7932W        W 8797  16.105   5.201  21.759
 7933W        W 8798  15.608   6.380  18.953
 7934W        W 8799  17.363   5.878  19.217
 7935W        W 8800  15.131   4.504  20.941
 7936W        W 8801  16.460   6.566  19.405
 7937W        W 8802  18.210   5.126  19.586
 7938W        W 8803  16.432   3.759  21.305
 7939W        W 8804  17.212   6.464  20.384
 7940W        W 8805  17.515   6.808  20.092
 7941W        W 8806  16.734   6.610  18.520
 7942W        W 8807  14.744   6.502  21.362
 7943W        W 8808  15.487   4.494  20.600
 7944W        W 8809  15.457   3.842  19.710
 7945W        W 8810  17.078   4.684  20.402
 7946W        W 8811  15.876   5.855  18.602
 7947W        W 8812  17.874   5.797  20.101
 7948W        W 8813  15.201   6.555  21.524
 7949W        W 8814  17.588   7.237  19.321
 7950W        W 8815  15.687   4.257  19.766
 7951W        W 8816  15.456   5.750  19.856
 7952W        W 8817  15.769   7.161  20.606
 7953W        W 8818  17.836   7.257  21.638
 7954W        W 8819  16.995   5.445  20.571
 7955W        W 8820  14.844   5.243  18.486
 7956W        W 8821  17.978   6.901  19.183
 7957W        W 8822  17.815   4.225  18.802
 7958W        W 8823  15.954   3.744  21.205
 7959W        W 8824  17.660   6.546  19.663
 7960W        W 8825  17.689   5.102  19.568
 7961W        W 8826  15.806   4.775  19.784
 7962W        W 8827  16.051   5.037  21.108
 7963W        W 8828  17.162   6.190  20.971
 7964W        W 8829  15.812   4.644  21.083
 7965W        W 8830  15.791   7.110  19.699
 7966W        W 8831  15.108   7.069  21.333
 7967W        W 8832  15.220   6.430  18.463
 7968W        W 8833  17.737   6.188  19.273
 7969W        W 8834  15.341   4.980  21.159
 7970W        W 8835  18.114   4.910  18.640
 7971W        W 8836  15.859   5.967  19.111
 7972W        W 8837  16.958   5.349  21.192
 7973W        W 8838  16.849   4.977  20.736
 7974W        W 8839  15.409   5.349  20.765
 7975W        W 8840  17.619   7.237  20.594
 7976W        W 8841  17.410   3.871  21.588
 7977W        W 8842  15.074   4.021  21.175
 7978W        W 8843  15.413   5.044  20.228
 7979W        W 8844  15.782   4.858  18.350
 7980W        W 8845  14.585   6.617  20.895
 7981W        W 8846  16.170   5.326  20.338
 7982W        W 8847  15.993   4.351  18.443
 7983W        W 8848  15.128   5.167  19.224
 7984W        W 8849  14.899   7.019  20.661
 7985W        W 8850  17.694   5.245  18.769
 7986W        W 8851  17.789   4.161  21.455
 7987W        W 8852  17.225   6.370  19.418
 7988W        W 8853  14.823   5.294  21.595
 7989W        W 8854  17.789   3.758  18.891
 7990W        W 8855  17.309   6.233  18.902
 7991W        W 8856  16.211   5.291  18.987
 7992W        W 8857  17.398   4.095  18.510
 7993W        W 8858  17.463   4.702  20.696
 7994W        W 8859  15.172   5.295  19.903
 7995W        W 8860  15.466   6.234  19.552
 7996W        W 8861  17.229   4.854  19.517
 7997W        W 8862  16.252   4.233  20.213
 7998W        W 8863  18.214   6.144  20.724
 7999W        W 8864  18.132   4.131  20.285
 8000W        W 8865  14.671   6.961  19.661
 8001W        W 8866  15.180   6.148  19.197
 8002W        W 8867  15.095   3.765  21.750
 8003W        W 8868  16.214   6.618  21.852
 8004W        W 8869  17.969   5.586  19.642
 8005W        W 8870  17.323   5.763  18.522
 8006W        W 8871  16.618   7.284  20.734
 8007W        W 8872  17.475   6.006  21.771
 8008W        W 8873  16.290   3.716  19.051
 8009W        W 8874  17.003   4.585  19.910
 8010W        W 8875  14.689   6.172  20.242
 8011W        W 8876  15.942   4.134  18.883
 8012W        W 8877  15.746   5.618  21.732
 8013W        W 8878  16.740   4.599  19.446
 8014W        W 8879  16.945   6.009  20.568
 8015W        W 8880  15.099   6.614  21.003
 8016W        W 8881  15.690   6.597  21.726
 8017W        W 8882  15.541   4.394  18.740
 8018W        W 8883  17.058   4.536  19.065
 8019W        W 8884  17.016   6.644  21.302
 8020W        W 8885  15.701   5.236  19.901
 8021W        W 8886  15.356   6.934  20.766
 8022W        W 8887  18.101   7.051  18.367
 8023W        W 8888  14.964   5.723  21.363
 8024W        W 8889  16.959   5.985  20.051
 8025W        W 8890  15.395   5.634  19.293
 8026W        W 8891  15.766   6.641  20.688
 8027W        W 8892  16.144   4.060  19.729
 8028W        W 8893  14.755   6.044  18.659
 8029W        W 8894  16.274   4.995  18.529
 8030W        W 8895  14.920   5.544  19.548
 8031W        W 8896  16.210   4.186  21.012
 8032W        W 8897  17.882   3.895  18.439
 8033W        W 8898  17.975   5.641  21.538
 8034W        W 8899  16.629   6.898  21.690
 8035W        W 8900  18.187   5.992  21.212
 8036W        W 8901  17.595   6.790  21.823
 8037W        W 8902  15.334   7.246  20.301
 8038W        W 8903  18.193   5.868  19.175
 8039W        W 8904  16.723   5.135  19.688
 8040W        W 8905  16.490   3.747  19.578
 8041W        W 8906  15.549   6.731  19.415
 8042W        W 8907  16.048   4.472  20.640
 8043W        W 8908  15.748   3.841  20.109
 8044W        W 8909  14.811   6.663  18.657
 8045W        W 8910  16.627   6.027  19.375
 8046W        W 8911  15.502   6.822  21.254
 8047W        W 8912  14.979   5.645  18.950
 8048W        W 8913  14.864   4.188  19.949
 8049W        W 8914  16.412   6.153  20.006
 8050W        W 8915  14.664   4.007  19.026
 8051W        W 8916  17.328   5.213  20.953
 8052W        W 8917  17.205   4.599  18.525
 8053W        W 8918  17.722   6.271  20.173
 8054W        W 8919  16.383   6.755  20.004
 8055W        W 8920  15.795   6.859  18.915
 8056W        W 8921  17.077   3.762  18.345
 8057W        W 8922  14.877   7.022  20.086
 8058W        W 8923  17.074   4.780  21.721
 8059W        W 8924  15.057   4.310  21.720
 8060W        W 8925  14.788   4.910  19.053
 8061W        W 8926  15.479   4.899  18.778
 8062W        W 8927  17.242   5.226  21.595
 8063W        W 8928  15.585   5.507  20.304
 8064W        W 8929  17.059   3.793  19.424
 8065W        W 8930  16.190   7.224  19.927
 8066W        W 8931  17.404   6.686  20.864
 8067W        W 8932  16.988   6.835  19.975
 8068W        W 8933  17.007   5.815  19.569
 8069W        W 8934  16.469   4.040  18.640
 8070W        W 8935  18.150   3.668  19.362
 8071W        W 8936  15.838   5.303  18.525
 8072W        W 8937  18.004   4.640  19.515
 8073W        W 8938  16.696   5.810  18.392
 8074W        W 8939  17.632   6.010  21.140
 8075W        W 8940  17.286   6.711  18.607
 8076W        W 8941  15.901   4.386  21.513
 8077W        W 8942  15.721   4.970  20.754
 8078W        W 8943  17.813   6.465  21.031
 8079W        W 8944  16.913   4.415  21.408
 8080W        W 8945  14.757   4.886  21.185
 8081W        W 8946  16.517   5.363  20.911
 8082W        W 8947  14.874   6.121  19.568
 8083W        W 8948  15.021   5.418  20.458
 8084W        W 8949  17.338   5.704  20.808
 8085W        W 8950  17.110   7.084  21.619
 8086W        W 8951  17.006   4.823  21.172
 8087W        W 8952  17.283   6.877  19.577
 8088W        W 8953  16.285   6.597  20.900
 8089W        W 8954  15.770   6.952  20.169
 8090W        W 8955  17.575   6.123  20.588
 8091W        W 8956  16.625   6.195  21.725
 8092W        W 8957  15.230   6.148  20.064
 8093W        W 8958  17.576   5.907  19.709
 8094W        W 8959  17.217   6.973  20.460
 8095W        W 8960  15.195   6.702  20.330
 8096W        W 8961  16.216   4.754  21.540
 8097W        W 8962  16.667   6.920  19.051
 8098W        W 8963  15.975   6.175  21.689
 8099W        W 8964  16.101   6.413  19.066
 8100W        W 8965  15.322   5.153  18.325
 8101W        W 8966  14.661   7.239  25.225
 8102W        W 8967  15.037   6.132  24.748
 8103W        W 8968  17.742   5.862  22.518
 8104W        W 8969  17.872   6.947  24.545
 8105W        W 8970  15.790   6.938  22.071
 8106W        W 8971  15.873   5.090  23.054
 8107W        W 8972  15.388   4.938  23.218
 8108W        W 8973  16.379   5.753  22.652
 8109W        W 8974  16.054   6.845  25.007
 8110W        W 8975  14.703   4.406  24.970
 8111W        W 8976  15.465   3.686  24.772
 8112W        W 8977  17.159   4.074  23.659
 8113W        W 8978  16.808   4.945  22.229
 8114W        W 8979  17.378   4.379  25.320
 8115W        W 8980  14.744   4.171  24.445
 8116W        W 8981  14.843   6.790  25.466
 8117W        W 8982  16.365   6.180  22.198
 8118W        W 8983  14.797   4.963  23.891
 8119W        W 8984  15.690   4.854  25.128
 8120W        W 8985  18.149   4.713  23.627
 8121W        W 8986  17.913   5.756  24.486
 8122W        W 8987  16.221   5.089  23.513
 8123W        W 8988  16.767   6.428  23.882
 8124W        W 8989  15.267   5.862  24.114
 8125W        W 8990  14.626   5.390  23.685
 8126W        W 8991  15.662   5.362  24.877
 8127W        W 8992  17.933   5.145  25.131
 8128W        W 8993  15.549   6.589  23.576
 8129W        W 8994  16.670   6.278  24.710
 8130W        W 8995  15.890   4.918  23.935
 8131W        W 8996  16.182   5.702  23.578
 8132W        W 8997  17.179   6.475  25.426
 8133W        W 8998  16.258   5.795  25.436
 8134W        W 8999  16.239   5.511  24.914
 8135W        W 9000  14.648   4.902  25.436
 8136W        W 9001  17.480   6.437  25.035
 8137W        W 9002  15.061   4.019  23.033
 8138W        W 9003  15.588   6.277  24.032
 8139W        W 9004  18.051   6.060  23.322
 8140W        W 9005  17.464   4.460  23.889
 8141W        W 9006  17.749   4.413  21.984
 8142W        W 9007  18.214   5.214  24.290
 8143W        W 9008  16.181   6.921  24.043
 8144W        W 9009  17.955   6.387  22.481
 8145W        W 9010  15.084   7.173  22.235
 8146W        W 9011  15.477   7.219  22.911
 8147W        W 9012  15.274   3.973  24.337
 8148W        W 9013  17.897   4.991  24.612
 8149W        W 9014  17.302   5.413  23.071
 8150W        W 9015  17.268   5.101  22.098
 8151W        W 9016  16.476   6.245  24.238
 8152W        W 9017  16.282   4.575  23.437
 8153W        W 9018  16.882   6.662  24.431
 8154W        W 9019  17.753   5.453  22.853
 8155W        W 9020  16.655   4.111  22.869
 8156W        W 9021  15.312   6.805  22.552
 8157W        W 9022  14.683   4.304  23.151
 8158W        W 9023  17.469   4.911  23.625
 8159W        W 9024  14.927   6.528  23.540
 8160W        W 9025  16.268   6.878  22.410
 8161W        W 9026  17.660   4.904  21.874
 8162W        W 9027  14.683   6.662  24.038
 8163W        W 9028  15.474   6.234  24.518
 8164W        W 9029  15.847   5.594  23.137
 8165W        W 9030  15.869   3.999  24.230
 8166W        W 9031  18.098   3.761  23.527
 8167W        W 9032  15.317   5.633  21.995
 8168W        W 9033  14.972   4.666  22.174
 8169W        W 9034  15.034   6.622  22.968
 8170W        W 9035  16.165   6.105  23.216
 8171W        W 9036  17.497   6.964  24.930
 8172W        W 9037  16.423   4.606  22.614
 8173W        W 9038  17.806   7.004  23.386
 8174W        W 9039  17.483   4.857  24.984
 8175W        W 9040  18.196   6.513  23.118
 8176W        W 9041  16.823   5.805  24.602
 8177W        W 9042  14.589   5.356  22.808
 8178W        W 9043  15.700   5.771  24.381
 8179W        W 9044  16.904   5.035  22.759
 8180W        W 9045  16.781   5.525  22.863
 8181W        W 9046  15.124   4.945  24.337
 8182W        W 9047  15.109   4.821  25.259
 8183W        W 9048  14.999   3.738  23.418
 8184W        W 9049  16.767   4.085  23.979
 8185W        W 9050  16.415   4.270  25.142
 8186W        W 9051  16.770   4.419  22.320
 8187W        W 9052  17.953   6.812  25.074
 8188W        W 9053  16.920   3.893  25.113
 8189W        W 9054  17.939   6.194  25.235
 8190W        W 9055  17.369   4.361  24.831
 8191W        W 9056  17.169   4.299  23.101
 8192W        W 9057  17.562   5.433  25.505
 8193W        W 9058  15.302   7.009  23.491
 8194W        W 9059  15.960   4.726  22.477
 8195W        W 9060  15.529   4.010  25.141
 8196W        W 9061  17.581   4.494  22.822
 8197W        W 9062  17.948   4.976  22.767
 8198W        W 9063  15.691   7.193  25.238
 8199W        W 9064  15.617   3.729  22.473
 8200W        W 9065  17.938   4.263  23.508
 8201W        W 9066  14.995   5.715  23.655
 8202W        W 9067  16.912   4.302  21.885
 8203W        W 9068  18.046   6.634  23.605
 8204W        W 9069  18.085   3.828  24.355
 8205W        W 9070  16.530   5.040  24.909
 8206W        W 9071  16.623   6.379  22.612
 8207W        W 9072  17.023   5.673  25.352
 8208W        W 9073  16.697   3.650  23.661
 8209W        W 9074  15.309   4.553  23.724
 8210W        W 9075  14.863   5.753  24.498
 8211W        W 9076  16.722   6.946  23.204
 8212W        W 9077  17.916   4.543  24.076
 8213W        W 9078  16.553   6.890  24.843
 8214W        W 9079  17.896   5.949  22.048
 8215W        W 9080  16.331   5.432  23.109
 8216W        W 9081  18.183   3.943  24.850
 8217W        W 9082  16.332   5.778  24.444
 8218W        W 9083  16.549   4.664  23.889
 8219W        W 9084  17.401   4.962  22.727
 8220W        W 9085  17.688   4.695  22.369
 8221W        W 9086  17.497   6.735  22.758
 8222W        W 9087  17.331   6.338  23.554
 8223W        W 9088  17.227   5.417  22.532
 8224W        W 9089  16.660   5.627  23.518
 8225W        W 9090  17.541   5.415  23.585
 8226W        W 9091  14.916   4.430  24.009
 8227W        W 9092  17.694   5.482  24.836
 8228W        W 9093  18.045   7.100  23.982
 8229W        W 9094  15.975   6.544  23.384
 8230W        W 9095  16.982   7.077  24.708
 8231W        W 9096  16.976   4.407  24.472
 8232W        W 9097  16.183   7.115  24.533
 8233W        W 9098  17.880   4.069  22.999
 8234W        W 9099  17.671   5.388  24.300
 8235W        W 9100  14.654   4.709  24.338
 8236W        W 9101  17.514   4.504  23.356
 8237W        W 9102  17.925   4.655  25.133
 8238W        W 9103  16.810   6.354  23.351
 8239W        W 9104  16.066   6.945  22.964
 8240W        W 9105  15.181   4.125  22.222
 8241W        W 9106  16.285   3.779  24.032
 8242W        W 9107  15.313   6.899  21.880
 8243W        W 9108  15.687   5.365  22.631
 8244W        W 9109  16.341   5.994  24.944
 8245W        W 9110  16.171   4.352  22.934
 8246W        W 9111  17.527   3.949  23.362
 8247W        W 9112  17.247   7.231  23.690
 8248W        W 9113  16.659   6.879  24.030
 8249W        W 9114  16.055   5.916  23.991
 8250W        W 9115  17.825   6.639  24.117
 8251W        W 9116  15.519   4.142  22.886
 8252W        W 9117  16.041   6.439  23.846
 8253W        W 9118  15.524   4.370  21.911
 8254W        W 9119  16.325   4.979  24.305
 8255W        W 9120  17.173   3.845  24.175
 8256W        W 9121  14.593   5.688  24.060
 8257W        W 9122  16.297   5.506  22.218
 8258W        W 9123  15.565   3.821  21.988
 8259W        W 9124  16.303   4.902  23.039
 8260W        W 9125  17.273   3.878  24.738
 8261W        W 9126  15.861   5.890  24.847
 8262W        W 9127  16.665   5.672  25.064
 8263W        W 9128  17.282   5.702  24.957
 8264W        W 9129  16.566   3.842  25.462
 8265W        W 9130  15.788   4.458  23.855
 8266W        W 9131  15.214   4.414  23.253
 8267W        W 9132  15.000   7.126  22.929
 8268W        W 9133  16.332   6.456  25.054
 8269W        W 9134  15.367   5.941  22.413
 8270W        W 9135  17.047   5.326  23.634
 8271W        W 9136  17.327   5.125  24.033
 8272W        W 9137  16.532   5.799  23.967
 8273W        W 9138  17.002   6.173  22.099
 8274W        W 9139  16.674   4.194  23.427
 8275W        W 9140  18.153   4.472  22.695
 8276W        W 9141  14.647   7.061  24.726
 8277W        W 9142  15.064   6.287  24.258
 8278W        W 9143  14.631   7.133  22.490
 8279W        W 9144  16.530   4.403  24.296
 8280W        W 9145  15.893   6.426  22.145
 8281W        W 9146  17.798   6.808  22.331
 8282W        W 9147  16.773   5.461  22.345
 8283W        W 9148  15.616   4.652  22.862
 8284W        W 9149  16.448   4.562  21.914
 8285W        W 9150  17.032   6.127  25.092
 8286W        W 9151  17.385   4.033  22.709
 8287W        W 9152  14.715   3.881  22.157
 8288W        W 9153  16.001   6.200  24.447
 8289W        W 9154  15.800   6.116  23.539
 8290W        W 9155  15.542   6.068  21.937
 8291W        W 9156  14.783   6.309  22.705
 8292W        W 9157  15.287   5.379  25.147
 8293W        W 9158  15.991   3.939  25.333
 8294W        W 9159  16.700   4.081  24.689
 8295W        W 9160  15.895   3.849  22.970
 8296W        W 9161  16.954   3.926  22.475
 8297W        W 9162  14.899   3.858  24.052
 8298W        W 9163  14.947   4.821  23.422
 8299W        W 9164  17.636   3.929  23.828
 8300W        W 9165  15.058   4.427  22.642
 8301W        W 9166  17.629   4.115  24.258
 8302W        W 9167  18.025   5.318  21.943
 8303W        W 9168  15.317   4.076  23.762
 8304W        W 9169  16.431   4.648  24.702
 8305W        W 9170  14.579   4.338  22.180
 8306W        W 9171  15.365   5.727  24.741
 8307W        W 9172  16.723   5.125  23.920
 8308W        W 9173  16.590   7.204  22.216
 8309W        W 9174  14.736   5.711  21.913
 8310W        W 9175  15.471   6.122  25.039
 8311W        W 9176  14.992   5.289  24.670
 8312W        W 9177  15.983   5.394  24.464
 8313W        W 9178  17.751   3.753  24.726
 8314W        W 9179  18.149   5.363  24.717
 8315W        W 9180  18.137   5.563  22.403
 8316W        W 9181  17.000   5.895  22.502
 8317W        W 9182  17.474   7.195  22.197
 8318W        W 9183  16.651   5.185  25.339
 8319W        W 9184  14.981   6.152  25.379
 8320W        W 9185  18.187   4.074  25.331
 8321W        W 9186  17.905   5.002  23.952
 8322W        W 9187  16.213   7.132  25.429
 8323W        W 9188  16.068   3.761  22.156
 8324W        W 9189  17.607   6.360  22.099
 8325W        W 9190  15.376   4.453  24.985
 8326W        W 9191  15.810   6.447  24.847
 8327W        W 9192  17.936   4.438  24.645
 8328W        W 9193  17.147   7.097  22.613
 8329W        W 9194  17.386   5.716  23.980
 8330W        W 9195  15.636   4.132  24.647
 8331W        W 9196  16.105   5.201  25.404
 8332W        W 9197  15.608   6.380  22.598
 8333W        W 9198  17.363   5.878  22.862
 8334W        W 9199  15.131   4.504  24.586
 8335W        W 9200  16.460   6.566  23.050
 8336W        W 9201  18.210   5.126  23.231
 8337W        W 9202  16.432   3.759  24.950
 8338W        W 9203  17.212   6.464  24.029
 8339W        W 9204  17.515   6.808  23.737
 8340W        W 9205  16.734   6.610  22.165
 8341W        W 9206  14.744   6.502  25.007
 8342W        W 9207  15.487   4.494  24.245
 8343W        W 9208  15.457   3.842  23.355
 8344W        W 9209  17.078   4.684  24.047
 8345W        W 9210  15.876   5.855  22.247
 8346W        W 9211  17.874   5.797  23.746
 8347W        W 9212  15.201   6.555  25.169
 8348W        W 9213  17.588   7.237  22.966
 8349W        W 9214  15.687   4.257  23.411
 8350W        W 9215  15.456   5.750  23.501
 8351W        W 9216  15.769   7.161  24.251
 8352W        W 9217  17.836   7.257  25.283
 8353W        W 9218  16.995   5.445  24.216
 8354W        W 9219  14.844   5.243  22.131
 8355W        W 9220  17.978   6.901  22.828
 8356W        W 9221  17.815   4.225  22.447
 8357W        W 9222  15.954   3.744  24.850
 8358W        W 9223  17.660   6.546  23.308
 8359W        W 9224  17.689   5.102  23.213
 8360W        W 9225  15.806   4.775  23.429
 8361W        W 9226  16.051   5.037  24.753
 8362W        W 9227  17.162   6.190  24.616
 8363W        W 9228  15.812   4.644  24.728
 8364W        W 9229  15.791   7.110  23.344
 8365W        W 9230  15.108   7.069  24.978
 8366W        W 9231  15.220   6.430  22.108
 8367W        W 9232  17.737   6.188  22.918
 8368W        W 9233  15.341   4.980  24.804
 8369W        W 9234  18.114   4.910  22.285
 8370W        W 9235  15.859   5.967  22.756
 8371W        W 9236  16.958   5.349  24.837
 8372W        W 9237  16.849   4.977  24.381
 8373W        W 9238  15.409   5.349  24.410
 8374W        W 9239  17.619   7.237  24.239
 8375W        W 9240  17.410   3.871  25.233
 8376W        W 9241  15.074   4.021  24.820
 8377W        W 9242  15.413   5.044  23.873
 8378W        W 9243  15.782   4.858  21.995
 8379W        W 9244  14.585   6.617  24.540
 8380W        W 9245  16.170   5.326  23.983
 8381W        W 9246  15.993   4.351  22.088
 8382W        W 9247  15.128   5.167  22.869
 8383W        W 9248  14.899   7.019  24.306
 8384W        W 9249  17.694   5.245  22.414
 8385W        W 9250  17.789   4.161  25.100
 8386W        W 9251  17.225   6.370  23.063
 8387W        W 9252  14.823   5.294  25.240
 8388W        W 9253  17.789   3.758  22.536
 8389W        W 9254  17.309   6.233  22.547
 8390W        W 9255  16.211   5.291  22.632
 8391W        W 9256  17.398   4.095  22.155
 8392W        W 9257  17.463   4.702  24.341
 8393W        W 9258  15.172   5.295  23.548
 8394W        W 9259  15.466   6.234  23.197
 8395W        W 9260  17.229   4.854  23.162
 8396W        W 9261  16.252   4.233  23.858
 8397W        W 9262  18.214   6.144  24.369
 8398W        W 9263  18.132   4.131  23.930
 8399W        W 9264  14.671   6.961  23.306
 8400W        W 9265  15.180   6.148  22.842
 8401W        W 9266  15.095   3.765  25.395
 8402W        W 9267  16.214   6.618  25.497
 8403W        W 9268  17.969   5.586  23.287
 8404W        W 9269  17.323   5.763  22.167
 8405W        W 9270  16.618   7.284  24.379
 8406W        W 9271  17.475   6.006  25.416
 8407W        W 9272  16.290   3.716  22.696
 8408W        W 9273  17.003   4.585  23.555
 8409W        W 9274  14.689   6.172  23.887
 8410W        W 9275  15.942   4.134  22.528
 8411W        W 9276  15.746   5.618  25.377
 8412W        W 9277  16.740   4.599  23.091
 8413W        W 9278  16.945   6.009  24.213
 8414W        W 9279  15.099   6.614  24.648
 8415W        W 9280  15.690   6.597  25.371
 8416W        W 9281  15.541   4.394  22.385
 8417W        W 9282  17.058   4.536  22.710
 8418W        W 9283  17.016   6.644  24.947
 8419W        W 9284  15.701   5.236  23.546
 8420W        W 9285  15.356   6.934  24.411
 8421W        W 9286  18.101   7.051  22.012
 8422W        W 9287  14.964   5.723  25.008
 8423W        W 9288  16.959   5.985  23.696
 8424W        W 9289  15.395   5.634  22.938
 8425W        W 9290  15.766   6.641  24.333
 8426W        W 9291  16.144   4.060  23.374
 8427W        W 9292  14.755   6.044  22.304
 8428W        W 9293  16.274   4.995  22.174
 8429W        W 9294  14.920   5.544  23.193
 8430W        W 9295  16.210   4.186  24.657
 8431W        W 9296  17.882   3.895  22.084
 8432W        W 9297  17.975   5.641  25.183
 8433W        W 9298  16.629   6.898  25.335
 8434W        W 9299  18.187   5.992  24.857
 8435W        W 9300  17.595   6.790  25.468
 8436W        W 9301  15.334   7.246  23.946
 8437W        W 9302  18.193   5.868  22.820
 8438W        W 9303  16.723   5.135  23.333
 8439W        W 9304  16.490   3.747  23.223
 8440W        W 9305  15.549   6.731  23.060
 8441W        W 9306  16.048   4.472  24.285
 8442W        W 9307  15.748   3.841  23.754
 8443W        W 9308  14.811   6.663  22.302
 8444W        W 9309  16.627   6.027  23.020
 8445W        W 9310  15.502   6.822  24.899
 8446W        W 9311  14.979   5.645  22.595
 8447W        W 9312  14.864   4.188  23.594
 8448W        W 9313  16.412   6.153  23.651
 8449W        W 9314  14.664   4.007  22.671
 8450W        W 9315  17.328   5.213  24.598
 8451W        W 9316  17.205   4.599  22.170
 8452W        W 9317  17.722   6.271  23.818
 8453W        W 9318  16.383   6.755  23.649
 8454W        W 9319  15.795   6.859  22.560
 8455W        W 9320  17.077   3.762  21.990
 8456W        W 9321  14.877   7.022  23.731
 8457W        W 9322  17.074   4.780  25.366
 8458W        W 9323  15.057   4.310  25.365
 8459W        W 9324  14.788   4.910  22.698
 8460W        W 9325  15.479   4.899  22.423
 8461W        W 9326  17.242   5.226  25.240
 8462W        W 9327  15.585   5.507  23.949
 8463W        W 9328  17.059   3.793  23.069
 8464W        W 9329  16.190   7.224  23.572
 8465W        W 9330  17.404   6.686  24.509
 8466W        W 9331  16.988   6.835  23.620
 8467W        W 9332  17.007   5.815  23.214
 8468W        W 9333  16.469   4.040  22.285
 8469W        W 9334  18.150   3.668  23.007
 8470W        W 9335  15.838   5.303  22.170
 8471W        W 9336  18.004   4.640  23.160
 8472W        W 9337  16.696   5.810  22.037
 8473W        W 9338  17.632   6.010  24.785
 8474W        W 9339  17.286   6.711  22.252
 8475W        W 9340  15.901   4.386  25.158
 8476W        W 9341  15.721   4.970  24.399
 8477W        W 9342  17.813   6.465  24.676
 8478W        W 9343  16.913   4.415  25.053
 8479W        W 9344  14.757   4.886  24.830
 8480W        W 9345  16.517   5.363  24.556
 8481W        W 9346  14.874   6.121  23.213
 8482W        W 9347  15.021   5.418  24.103
 8483W        W 9348  17.338   5.704  24.453
 8484W        W 9349  17.110   7.084  25.264
 8485W        W 9350  17.006   4.823  24.817
 8486W        W 9351  17.283   6.877  23.222
 8487W        W 9352  16.285   6.597  24.545
 8488W        W 9353  15.770   6.952  23.814
 8489W        W 9354  17.575   6.123  24.233
 8490W        W 9355  16.625   6.195  25.370
 8491W        W 9356  15.230   6.148  23.709
 8492W        W 9357  17.576   5.907  23.354
 8493W        W 9358  17.217   6.973  24.105
 8494W        W 9359  15.195   6.702  23.975
 8495W        W 9360  16.216   4.754  25.185
 8496W        W 9361  16.667   6.920  22.696
 8497W        W 9362  15.975   6.175  25.334
 8498W        W 9363  16.101   6.413  22.711
 8499W        W 9364  15.322   5.153  21.970
 8500W        W 9365  14.661   7.239  28.869
 8501W        W 9366  15.037   6.132  28.392
 8502W        W 9367  17.742   5.862  26.162
 8503W        W 9368  17.872   6.947  28.189
 8504W        W 9369  15.790   6.938  25.715
 8505W        W 9370  15.873   5.090  26.698
 8506W        W 9371  15.388   4.938  26.862
 8507W        W 9372  16.379   5.753  26.296
 8508W        W 9373  16.054   6.845  28.651
 8509W        W 9374  14.703   4.406  28.614
 8510W        W 9375  15.465   3.686  28.416
 8511W        W 9376  17.159   4.074  27.303
 8512W        W 9377  16.808   4.945  25.873
 8513W        W 9378  17.378   4.379  28.964
 8514W        W 9379  14.744   4.171  28.089
 8515W        W 9380  14.843   6.790  29.110
 8516W        W 9381  16.365   6.180  25.842
 8517W        W 9382  14.797   4.963  27.535
 8518W        W 9383  15.690   4.854  28.772
 8519W        W 9384  18.149   4.713  27.271
 8520W        W 9385  17.913   5.756  28.130
 8521W        W 9386  16.221   5.089  27.157
 8522W        W 9387  16.767   6.428  27.526
 8523W        W 9388  15.267   5.862  27.758
 8524W        W 9389  14.626   5.390  27.329
 8525W        W 9390  15.662   5.362  28.521
 8526W        W 9391  17.933   5.145  28.775
 8527W        W 9392  15.549   6.589  27.220
 8528W        W 9393  16.670   6.278  28.354
 8529W        W 9394  15.890   4.918  27.579
 8530W        W 9395  16.182   5.702  27.222
 8531W        W 9396  17.179   6.475  29.070
 8532W        W 9397  16.258   5.795  29.080
 8533W        W 9398  16.239   5.511  28.558
 8534W        W 9399  14.648   4.902  29.080
 8535W        W 9400  17.480   6.437  28.679
 8536W        W 9401  15.061   4.019  26.677
 8537W        W 9402  15.588   6.277  27.676
 8538W        W 9403  18.051   6.060  26.966
 8539W        W 9404  17.464   4.460  27.533
 8540W        W 9405  17.749   4.413  25.628
 8541W        W 9406  18.214   5.214  27.934
 8542W        W 9407  16.181   6.921  27.687
 8543W        W 9408  17.955   6.387  26.125
 8544W        W 9409  15.084   7.173  25.879
 8545W        W 9410  15.477   7.219  26.555
 8546W        W 9411  15.274   3.973  27.981
 8547W        W 9412  17.897   4.991  28.256
 8548W        W 9413  17.302   5.413  26.715
 8549W        W 9414  17.268   5.101  25.742
 8550W        W 9415  16.476   6.245  27.882
 8551W        W 9416  16.282   4.575  27.081
 8552W        W 9417  16.882   6.662  28.075
 8553W        W 9418  17.753   5.453  26.497
 8554W        W 9419  16.655   4.111  26.513
 8555W        W 9420  15.312   6.805  26.196
 8556W        W 9421  14.683   4.304  26.795
 8557W        W 9422  17.469   4.911  27.269
 8558W        W 9423  14.927   6.528  27.184
 8559W        W 9424  16.268   6.878  26.054
 8560W        W 9425  17.660   4.904  25.518
 8561W        W 9426  14.683   6.662  27.682
 8562W        W 9427  15.474   6.234  28.162
 8563W        W 9428  15.847   5.594  26.781
 8564W        W 9429  15.869   3.999  27.874
 8565W        W 9430  18.098   3.761  27.171
 8566W        W 9431  15.317   5.633  25.639
 8567W        W 9432  14.972   4.666  25.818
 8568W        W 9433  15.034   6.622  26.612
 8569W        W 9434  16.165   6.105  26.860
 8570W        W 9435  17.497   6.964  28.574
 8571W        W 9436  16.423   4.606  26.258
 8572W        W 9437  17.806   7.004  27.030
 8573W        W 9438  17.483   4.857  28.628
 8574W        W 9439  18.196   6.513  26.762
 8575W        W 9440  16.823   5.805  28.246
 8576W        W 9441  14.589   5.356  26.452
 8577W        W 9442  15.700   5.771  28.025
 8578W        W 9443  16.904   5.035  26.403
 8579W        W 9444  16.781   5.525  26.507
 8580W        W 9445  15.124   4.945  27.981
 8581W        W 9446  15.109   4.821  28.903
 8582W        W 9447  14.999   3.738  27.062
 8583W        W 9448  16.767   4.085  27.623
 8584W        W 9449  16.415   4.270  28.786
 8585W        W 9450  16.770   4.419  25.964
 8586W        W 9451  17.953   6.812  28.718
 8587W        W 9452  16.920   3.893  28.757
 8588W        W 9453  17.939   6.194  28.879
 8589W        W 9454  17.369   4.361  28.475
 8590W        W 9455  17.169   4.299  26.745
 8591W        W 9456  17.562   5.433  29.149
 8592W        W 9457  15.302   7.009  27.135
 8593W        W 9458  15.960   4.726  26.121
 8594W        W 9459  15.529   4.010  28.785
 8595W        W 9460  17.581   4.494  26.466
 8596W        W 9461  17.948   4.976  26.411
 8597W        W 9462  15.691   7.193  28.882
 8598W        W 9463  15.617   3.729  26.117
 8599W        W 9464  17.938   4.263  27.152
 8600W        W 9465  18.088   6.512  25.597
 8601W        W 9466  14.995   5.715  27.299
 8602W        W 9467  16.912   4.302  25.529
 8603W        W 9468  18.046   6.634  27.249
 8604W        W 9469  18.085   3.828  27.999
 8605W        W 9470  16.530   5.040  28.553
 8606W        W 9471  16.623   6.379  26.256
 8607W        W 9472  17.023   5.673  28.996
 8608W        W 9473  16.697   3.650  27.305
 8609W        W 9474  15.309   4.553  27.368
 8610W        W 9475  14.863   5.753  28.142
 8611W        W 9476  16.722   6.946  26.848
 8612W        W 9477  17.916   4.543  27.720
 8613W        W 9478  16.553   6.890  28.487
 8614W        W 9479  17.896   5.949  25.692
 8615W        W 9480  16.331   5.432  26.753
 8616W        W 9481  18.183   3.943  28.494
 8617W        W 9482  16.332   5.778  28.088
 8618W        W 9483  16.549   4.664  27.533
 8619W        W 9484  17.401   4.962  26.371
 8620W        W 9485  17.688   4.695  26.013
 8621W        W 9486  17.497   6.735  26.402
 8622W        W 9487  17.331   6.338  27.198
 8623W        W 9488  17.227   5.417  26.176
 8624W        W 9489  16.660   5.627  27.162
 8625W        W 9490  17.541   5.415  27.229
 8626W        W 9491  14.916   4.430  27.653
 8627W        W 9492  17.694   5.482  28.480
 8628W        W 9493  18.045   7.100  27.626
 8629W        W 9494  15.975   6.544  27.028
 8630W        W 9495  16.982   7.077  28.352
 8631W        W 9496  16.976   4.407  28.116
 8632W        W 9497  16.183   7.115  28.177
 8633W        W 9498  17.880   4.069  26.643
 8634W        W 9499  17.671   5.388  27.944
 8635W        W 9500  14.654   4.709  27.982
 8636W        W 9501  17.514   4.504  27.000
 8637W        W 9502  17.925   4.655  28.777
 8638W        W 9503  16.810   6.354  26.995
 8639W        W 9504  16.066   6.945  26.608
 8640W        W 9505  15.181   4.125  25.866
 8641W        W 9506  16.285   3.779  27.676
 8642W        W 9507  15.313   6.899  25.524
 8643W        W 9508  15.687   5.365  26.275
 8644W        W 9509  16.341   5.994  28.588
 8645W        W 9510  16.171   4.352  26.578
 8646W        W 9511  17.527   3.949  27.006
 8647W        W 9512  17.247   7.231  27.334
 8648W        W 9513  16.659   6.879  27.674
 8649W        W 9514  16.055   5.916  27.635
 8650W        W 9515  17.825   6.639  27.761
 8651W        W 9516  15.519   4.142  26.530
 8652W        W 9517  16.041   6.439  27.490
 8653W        W 9518  15.524   4.370  25.555
 8654W        W 9519  16.325   4.979  27.949
 8655W        W 9520  17.173   3.845  27.819
 8656W        W 9521  14.593   5.688  27.704
 8657W        W 9522  16.297   5.506  25.862
 8658W        W 9523  15.565   3.821  25.632
 8659W        W 9524  16.303   4.902  26.683
 8660W        W 9525  17.273   3.878  28.382
 8661W        W 9526  15.861   5.890  28.491
 8662W        W 9527  16.665   5.672  28.708
 8663W        W 9528  17.282   5.702  28.601
 8664W        W 9529  16.566   3.842  29.106
 8665W        W 9530  15.788   4.458  27.499
 8666W        W 9531  15.214   4.414  26.897
 8667W        W 9532  15.000   7.126  26.573
 8668W        W 9533  16.332   6.456  28.698
 8669W        W 9534  15.367   5.941  26.057
 8670W        W 9535  17.047   5.326  27.278
 8671W        W 9536  17.327   5.125  27.677
 8672W        W 9537  16.532   5.799  27.611
 8673W        W 9538  17.002   6.173  25.743
 8674W        W 9539  16.674   4.194  27.071
 8675W        W 9540  18.153   4.472  26.339
 8676W        W 9541  14.647   7.061  28.370
 8677W        W 9542  15.064   6.287  27.902
 8678W        W 9543  14.631   7.133  26.134
 8679W        W 9544  16.530   4.403  27.940
 8680W        W 9545  15.893   6.426  25.789
 8681W        W 9546  17.798   6.808  25.975
 8682W        W 9547  16.773   5.461  25.989
 8683W        W 9548  15.616   4.652  26.506
 8684W        W 9549  16.448   4.562  25.558
 8685W        W 9550  17.032   6.127  28.736
 8686W        W 9551  17.385   4.033  26.353
 8687W        W 9552  14.715   3.881  25.801
 8688W        W 9553  16.001   6.200  28.091
 8689W        W 9554  15.800   6.116  27.183
 8690W        W 9555  15.542   6.068  25.581
 8691W        W 9556  14.783   6.309  26.349
 8692W        W 9557  15.287   5.379  28.791
 8693W        W 9558  15.991   3.939  28.977
 8694W        W 9559  16.700   4.081  28.333
 8695W        W 9560  15.895   3.849  26.614
 8696W        W 9561  16.954   3.926  26.119
 8697W        W 9562  14.899   3.858  27.696
 8698W        W 9563  14.947   4.821  27.066
 8699W        W 9564  17.636   3.929  27.472
 8700W        W 9565  15.058   4.427  26.286
 8701W        W 9566  17.629   4.115  27.902
 8702W        W 9567  18.025   5.318  25.587
 8703W        W 9568  15.317   4.076  27.406
 8704W        W 9569  16.431   4.648  28.346
 8705W        W 9570  14.579   4.338  25.824
 8706W        W 9571  15.365   5.727  28.385
 8707W        W 9572  16.723   5.125  27.564
 8708W        W 9573  16.590   7.204  25.860
 8709W        W 9574  14.736   5.711  25.557
 8710W        W 9575  15.471   6.122  28.683
 8711W        W 9576  14.992   5.289  28.314
 8712W        W 9577  15.983   5.394  28.108
 8713W        W 9578  17.751   3.753  28.370
 8714W        W 9579  18.149   5.363  28.361
 8715W        W 9580  18.137   5.563  26.047
 8716W        W 9581  17.000   5.895  26.146
 8717W        W 9582  17.474   7.195  25.841
 8718W        W 9583  16.651   5.185  28.983
 8719W        W 9584  14.981   6.152  29.023
 8720W        W 9585  18.187   4.074  28.975
 8721W        W 9586  17.905   5.002  27.596
 8722W        W 9587  16.213   7.132  29.073
 8723W        W 9588  16.068   3.761  25.800
 8724W        W 9589  17.607   6.360  25.743
 8725W        W 9590  15.376   4.453  28.629
 8726W        W 9591  15.810   6.447  28.491
 8727W        W 9592  17.936   4.438  28.289
 8728W        W 9593  17.147   7.097  26.257
 8729W        W 9594  17.386   5.716  27.624
 8730W        W 9595  15.636   4.132  28.291
 8731W        W 9596  16.105   5.201  29.048
 8732W        W 9597  15.608   6.380  26.242
 8733W        W 9598  17.363   5.878  26.506
 8734W        W 9599  15.131   4.504  28.230
 8735W        W 9600  16.460   6.566  26.694
 8736W        W 9601  18.210   5.126  26.875
 8737W        W 9602  16.432   3.759  28.594
 8738W        W 9603  17.212   6.464  27.673
 8739W        W 9604  17.515   6.808  27.381
 8740W        W 9605  16.734   6.610  25.809
 8741W        W 9606  14.744   6.502  28.651
 8742W        W 9607  15.487   4.494  27.889
 8743W        W 9608  15.457   3.842  26.999
 8744W        W 9609  17.078   4.684  27.691
 8745W        W 9610  15.876   5.855  25.891
 8746W        W 9611  17.874   5.797  27.390
 8747W        W 9612  15.201   6.555  28.813
 8748W        W 9613  17.588   7.237  26.610
 8749W        W 9614  15.687   4.257  27.055
 8750W        W 9615  15.456   5.750  27.145
 8751W        W 9616  15.769   7.161  27.895
 8752W        W 9617  17.836   7.257  28.927
 8753W        W 9618  16.995   5.445  27.860
 8754W        W 9619  14.844   5.243  25.775
 8755W        W 9620  17.978   6.901  26.472
 8756W        W 9621  17.815   4.225  26.091
 8757W        W 9622  15.954   3.744  28.494
 8758W        W 9623  17.660   6.546  26.952
 8759W        W 9624  17.689   5.102  26.857
 8760W        W 9625  15.806   4.775  27.073
 8761W        W 9626  16.051   5.037  28.397
 8762W        W 9627  17.162   6.190  28.260
 8763W        W 9628  15.812   4.644  28.372
 8764W        W 9629  15.791   7.110  26.988
 8765W        W 9630  15.108   7.069  28.622
 8766W        W 9631  15.220   6.430  25.752
 8767W        W 9632  17.737   6.188  26.562
 8768W        W 9633  15.341   4.980  28.448
 8769W        W 9634  18.114   4.910  25.929
 8770W        W 9635  15.859   5.967  26.400
 8771W        W 9636  16.958   5.349  28.481
 8772W        W 9637  16.849   4.977  28.025
 8773W        W 9638  15.409   5.349  28.054
 8774W        W 9639  17.619   7.237  27.883
 8775W        W 9640  17.410   3.871  28.877
 8776W        W 9641  15.074   4.021  28.464
 8777W        W 9642  15.413   5.044  27.517
 8778W        W 9643  15.782   4.858  25.639
 8779W        W 9644  14.585   6.617  28.184
 8780W        W 9645  16.170   5.326  27.627
 8781W        W 9646  15.993   4.351  25.732
 8782W        W 9647  15.128   5.167  26.513
 8783W        W 9648  14.899   7.019  27.950
 8784W        W 9649  17.694   5.245  26.058
 8785W        W 9650  17.789   4.161  28.744
 8786W        W 9651  17.225   6.370  26.707
 8787W        W 9652  14.823   5.294  28.884
 8788W        W 9653  17.789   3.758  26.180
 8789W        W 9654  17.309   6.233  26.191
 8790W        W 9655  16.211   5.291  26.276
 8791W        W 9656  17.398   4.095  25.799
 8792W        W 9657  17.463   4.702  27.985
 8793W        W 9658  15.172   5.295  27.192
 8794W        W 9659  15.466   6.234  26.841
 8795W        W 9660  17.229   4.854  26.806
 8796W        W 9661  16.252   4.233  27.502
 8797W        W 9662  18.214   6.144  28.013
 8798W        W 9663  18.132   4.131  27.574
 8799W        W 9664  14.671   6.961  26.950
 8800W        W 9665  15.180   6.148  26.486
 8801W        W 9666  15.095   3.765  29.039
 8802W        W 9667  16.214   6.618  29.141
 8803W        W 9668  17.969   5.586  26.931
 8804W        W 9669  17.323   5.763  25.811
 8805W        W 9670  16.618   7.284  28.023
 8806W        W 9671  17.475   6.006  29.060
 8807W        W 9672  16.290   3.716  26.340
 8808W        W 9673  17.003   4.585  27.199
 8809W        W 9674  14.689   6.172  27.531
 8810W        W 9675  15.942   4.134  26.172
 8811W        W 9676  15.746   5.618  29.021
 8812W        W 9677  16.740   4.599  26.735
 8813W        W 9678  16.945   6.009  27.857
 8814W        W 9679  15.099   6.614  28.292
 8815W        W 9680  15.690   6.597  29.015
 8816W        W 9681  15.541   4.394  26.029
 8817W        W 9682  17.058   4.536  26.354
 8818W        W 9683  17.016   6.644  28.591
 8819W        W 9684  15.701   5.236  27.190
 8820W        W 9685  15.356   6.934  28.055
 8821W        W 9686  18.101   7.051  25.656
 8822W        W 9687  14.964   5.723  28.652
 8823W        W 9688  16.959   5.985  27.340
 8824W        W 9689  15.395   5.634  26.582
 8825W        W 9690  15.766   6.641  27.977
 8826W        W 9691  16.144   4.060  27.018
 8827W        W 9692  14.755   6.044  25.948
 8828W        W 9693  16.274   4.995  25.818
 8829W        W 9694  14.920   5.544  26.837
 8830W        W 9695  16.210   4.186  28.301
 8831W        W 9696  17.882   3.895  25.728
 8832W        W 9697  17.975   5.641  28.827
 8833W        W 9698  16.629   6.898  28.979
 8834W        W 9699  18.187   5.992  28.501
 8835W        W 9700  17.595   6.790  29.112
 8836W        W 9701  15.334   7.246  27.590
 8837W        W 9702  18.193   5.868  26.464
 8838W        W 9703  16.723   5.135  26.977
 8839W        W 9704  16.490   3.747  26.867
 8840W        W 9705  15.549   6.731  26.704
 8841W        W 9706  16.048   4.472  27.929
 8842W        W 9707  15.748   3.841  27.398
 8843W        W 9708  14.811   6.663  25.946
 8844W        W 9709  16.627   6.027  26.664
 8845W        W 9710  15.502   6.822  28.543
 8846W        W 9711  14.979   5.645  26.239
 8847W        W 9712  14.864   4.188  27.238
 8848W        W 9713  16.412   6.153  27.295
 8849W        W 9714  14.664   4.007  26.315
 8850W        W 9715  17.328   5.213  28.242
 8851W        W 9716  17.205   4.599  25.814
 8852W        W 9717  17.722   6.271  27.462
 8853W        W 9718  16.383   6.755  27.293
 8854W        W 9719  15.795   6.859  26.204
 8855W        W 9720  17.077   3.762  25.634
 8856W        W 9721  14.877   7.022  27.375
 8857W        W 9722  17.074   4.780  29.010
 8858W        W 9723  15.057   4.310  29.009
 8859W        W 9724  14.788   4.910  26.342
 8860W        W 9725  15.479   4.899  26.067
 8861W        W 9726  17.242   5.226  28.884
 8862W        W 9727  15.585   5.507  27.593
 8863W        W 9728  17.059   3.793  26.713
 8864W        W 9729  16.190   7.224  27.216
 8865W        W 9730  17.404   6.686  28.153
 8866W        W 9731  16.988   6.835  27.264
 8867W        W 9732  17.007   5.815  26.858
 8868W        W 9733  16.469   4.040  25.929
 8869W        W 9734  18.150   3.668  26.651
 8870W        W 9735  15.838   5.303  25.814
 8871W        W 9736  18.004   4.640  26.804
 8872W        W 9737  16.696   5.810  25.681
 8873W        W 9738  17.632   6.010  28.429
 8874W        W 9739  17.286   6.711  25.896
 8875W        W 9740  15.901   4.386  28.802
 8876W        W 9741  15.721   4.970  28.043
 8877W        W 9742  17.813   6.465  28.320
 8878W        W 9743  16.913   4.415  28.697
 8879W        W 9744  14.757   4.886  28.474
 8880W        W 9745  16.517   5.363  28.200
 8881W        W 9746  14.874   6.121  26.857
 8882W        W 9747  15.021   5.418  27.747
 8883W        W 9748  17.338   5.704  28.097
 8884W        W 9749  17.110   7.084  28.908
 8885W        W 9750  17.006   4.823  28.461
 8886W        W 9751  17.283   6.877  26.866
 8887W        W 9752  16.285   6.597  28.189
 8888W        W 9753  15.770   6.952  27.458
 8889W        W 9754  17.575   6.123  27.877
 8890W        W 9755  16.625   6.195  29.014
 8891W        W 9756  15.230   6.148  27.353
 8892W        W 9757  17.576   5.907  26.998
 8893W        W 9758  17.217   6.973  27.749
 8894W        W 9759  15.195   6.702  27.619
 8895W        W 9760  16.216   4.754  28.829
 8896W        W 9761  16.667   6.920  26.340
 8897W        W 9762  15.975   6.175  28.978
 8898W        W 9763  16.101   6.413  26.355
 8899W        W 9764  15.322   5.153  25.614
 8900W        W 9765  14.661  10.884   3.359
 8901W        W 9766  15.037   9.777   2.882
 8902W        W 9767  17.742   9.507   0.652
 8903W        W 9768  17.872  10.592   2.679
 8904W        W 9769  15.790  10.583   0.205
 8905W        W 9770  15.873   8.735   1.188
 8906W        W 9771  15.388   8.583   1.352
 8907W        W 9772  16.379   9.398   0.786
 8908W        W 9773  16.054  10.490   3.141
 8909W        W 9774  14.703   8.051   3.104
 8910W        W 9775  15.465   7.331   2.906
 8911W        W 9776  17.159   7.719   1.793
 8912W        W 9777  16.808   8.590   0.363
 8913W        W 9778  17.378   8.024   3.454
 8914W        W 9779  14.744   7.816   2.579
 8915W        W 9780  14.843  10.435   3.600
 8916W        W 9781  16.365   9.825   0.332
 8917W        W 9782  14.797   8.608   2.025
 8918W        W 9783  15.690   8.499   3.262
 8919W        W 9784  18.149   8.358   1.761
 8920W        W 9785  17.913   9.401   2.620
 8921W        W 9786  16.221   8.734   1.647
 8922W        W 9787  16.767  10.073   2.016
 8923W        W 9788  15.267   9.507   2.248
 8924W        W 9789  14.626   9.035   1.819
 8925W        W 9790  15.662   9.007   3.011
 8926W        W 9791  17.933   8.790   3.265
 8927W        W 9792  15.549  10.234   1.710
 8928W        W 9793  16.670   9.923   2.844
 8929W        W 9794  15.890   8.563   2.069
 8930W        W 9795  16.182   9.347   1.712
 8931W        W 9796  17.179  10.120   3.560
 8932W        W 9797  16.258   9.440   3.570
 8933W        W 9798  16.239   9.156   3.048
 8934W        W 9799  14.648   8.547   3.570
 8935W        W 9800  17.480  10.082   3.169
 8936W        W 9801  15.061   7.664   1.167
 8937W        W 9802  15.588   9.922   2.166
 8938W        W 9803  18.051   9.705   1.456
 8939W        W 9804  17.464   8.105   2.023
 8940W        W 9805  17.749   8.058   0.118
 8941W        W 9806  18.214   8.859   2.424
 8942W        W 9807  16.181  10.566   2.177
 8943W        W 9808  17.955  10.032   0.615
 8944W        W 9809  15.084  10.818   0.369
 8945W        W 9810  15.477  10.864   1.045
 8946W        W 9811  15.274   7.618   2.471
 8947W        W 9812  17.897   8.636   2.746
 8948W        W 9813  17.302   9.058   1.205
 8949W        W 9814  17.268   8.746   0.232
 8950W        W 9815  16.476   9.890   2.372
 8951W        W 9816  16.282   8.220   1.571
 8952W        W 9817  16.882  10.307   2.565
 8953W        W 9818  17.753   9.098   0.987
 8954W        W 9819  16.655   7.756   1.003
 8955W        W 9820  15.312  10.450   0.686
 8956W        W 9821  14.683   7.949   1.285
 8957W        W 9822  17.469   8.556   1.759
 8958W        W 9823  14.927  10.173   1.674
 8959W        W 9824  16.268  10.523   0.544
 8960W        W 9825  17.660   8.549   0.008
 8961W        W 9826  14.683  10.307   2.172
 8962W        W 9827  15.474   9.879   2.652
 8963W        W 9828  15.847   9.239   1.271
 8964W        W 9829  15.869   7.644   2.364
 8965W        W 9830  18.098   7.406   1.661
 8966W        W 9831  15.317   9.278   0.129
 8967W        W 9832  14.972   8.311   0.308
 8968W        W 9833  15.034  10.267   1.102
 8969W        W 9834  16.165   9.750   1.350
 8970W        W 9835  17.497  10.609   3.064
 8971W        W 9836  16.423   8.251   0.748
 8972W        W 9837  17.806  10.649   1.520
 8973W        W 9838  17.483   8.502   3.118
 8974W        W 9839  18.196  10.158   1.252
 8975W        W 9840  16.823   9.450   2.736
 8976W        W 9841  14.589   9.001   0.942
 8977W        W 9842  15.700   9.416   2.515
 8978W        W 9843  16.904   8.680   0.893
 8979W        W 9844  16.781   9.170   0.997
 8980W        W 9845  15.124   8.590   2.471
 8981W        W 9846  15.109   8.466   3.393
 8982W        W 9847  14.999   7.383   1.552
 8983W        W 9848  16.767   7.730   2.113
 8984W        W 9849  16.415   7.915   3.276
 8985W        W 9850  16.770   8.064   0.454
 8986W        W 9851  17.953  10.457   3.208
 8987W        W 9852  16.920   7.538   3.247
 8988W        W 9853  17.939   9.839   3.369
 8989W        W 9854  17.369   8.006   2.965
 8990W        W 9855  17.169   7.944   1.235
 8991W        W 9856  17.562   9.078   3.639
 8992W        W 9857  15.302  10.654   1.625
 8993W        W 9858  15.960   8.371   0.611
 8994W        W 9859  15.529   7.655   3.275
 8995W        W 9860  17.581   8.139   0.956
 8996W        W 9861  17.948   8.621   0.901
 8997W        W 9862  15.691  10.838   3.372
 8998W        W 9863  15.617   7.374   0.607
 8999W        W 9864  17.938   7.908   1.642
 9000W        W 9865  18.088  10.157   0.087
 9001W        W 9866  14.995   9.360   1.789
 9002W        W 9867  16.912   7.947   0.019
 9003W        W 9868  18.046  10.279   1.739
 9004W        W 9869  18.085   7.473   2.489
 9005W        W 9870  16.530   8.685   3.043
 9006W        W 9871  16.623  10.024   0.746
 9007W        W 9872  17.023   9.318   3.486
 9008W        W 9873  16.697   7.295   1.795
 9009W        W 9874  15.309   8.198   1.858
 9010W        W 9875  14.863   9.398   2.632
 9011W        W 9876  16.722  10.591   1.338
 9012W        W 9877  17.916   8.188   2.210
 9013W        W 9878  16.553  10.535   2.977
 9014W        W 9879  17.896   9.594   0.182
 9015W        W 9880  16.331   9.077   1.243
 9016W        W 9881  18.183   7.588   2.984
 9017W        W 9882  16.332   9.423   2.578
 9018W        W 9883  16.549   8.309   2.023
 9019W        W 9884  17.401   8.607   0.861
 9020W        W 9885  17.688   8.340   0.503
 9021W        W 9886  17.497  10.380   0.892
 9022W        W 9887  17.331   9.983   1.688
 9023W        W 9888  17.227   9.062   0.666
 9024W        W 9889  16.660   9.272   1.652
 9025W        W 9890  17.541   9.060   1.719
 9026W        W 9891  14.916   8.075   2.143
 9027W        W 9892  17.694   9.127   2.970
 9028W        W 9893  18.045  10.745   2.116
 9029W        W 9894  15.975  10.189   1.518
 9030W        W 9895  16.982  10.722   2.842
 9031W        W 9896  16.976   8.052   2.606
 9032W        W 9897  16.183  10.760   2.667
 9033W        W 9898  17.880   7.714   1.133
 9034W        W 9899  17.671   9.033   2.434
 9035W        W 9900  14.654   8.354   2.472
 9036W        W 9901  17.514   8.149   1.490
 9037W        W 9902  17.925   8.300   3.267
 9038W        W 9903  16.810   9.999   1.485
 9039W        W 9904  16.066  10.590   1.098
 9040W        W 9905  15.181   7.770   0.356
 9041W        W 9906  16.285   7.424   2.166
 9042W        W 9907  15.313  10.544   0.014
 9043W        W 9908  15.687   9.010   0.765
 9044W        W 9909  16.341   9.639   3.078
 9045W        W 9910  16.171   7.997   1.068
 9046W        W 9911  17.527   7.594   1.496
 9047W        W 9912  17.247  10.876   1.824
 9048W        W 9913  16.659  10.524   2.164
 9049W        W 9914  16.055   9.561   2.125
 9050W        W 9915  17.825  10.284   2.251
 9051W        W 9916  15.519   7.787   1.020
 9052W        W 9917  16.041  10.084   1.980
 9053W        W 9918  15.524   8.015   0.045
 9054W        W 9919  16.325   8.624   2.439
 9055W        W 9920  17.173   7.490   2.309
 9056W        W 9921  14.593   9.333   2.194
 9057W        W 9922  16.297   9.151   0.352
 9058W        W 9923  15.565   7.466   0.122
 9059W        W 9924  16.303   8.547   1.173
 9060W        W 9925  17.273   7.523   2.872
 9061W        W 9926  15.861   9.535   2.981
 9062W        W 9927  16.665   9.317   3.198
 9063W        W 9928  17.282   9.347   3.091
 9064W        W 9929  16.566   7.487   3.596
 9065W        W 9930  15.788   8.103   1.989
 9066W        W 9931  15.214   8.059   1.387
 9067W        W 9932  15.000  10.771   1.063
 9068W        W 9933  16.332  10.101   3.188
 9069W        W 9934  15.367   9.586   0.547
 9070W        W 9935  17.047   8.971   1.768
 9071W        W 9936  17.327   8.770   2.167
 9072W        W 9937  16.532   9.444   2.101
 9073W        W 9938  17.002   9.818   0.233
 9074W        W 9939  16.674   7.839   1.561
 9075W        W 9940  18.153   8.117   0.829
 9076W        W 9941  14.647  10.706   2.860
 9077W        W 9942  15.064   9.932   2.392
 9078W        W 9943  14.631  10.778   0.624
 9079W        W 9944  16.530   8.048   2.430
 9080W        W 9945  15.893  10.071   0.279
 9081W        W 9946  17.798  10.453   0.465
 9082W        W 9947  16.773   9.106   0.479
 9083W        W 9948  15.616   8.297   0.996
 9084W        W 9949  16.448   8.207   0.048
 9085W        W 9950  17.032   9.772   3.226
 9086W        W 9951  17.385   7.678   0.843
 9087W        W 9952  14.715   7.526   0.291
 9088W        W 9953  16.001   9.845   2.581
 9089W        W 9954  15.800   9.761   1.673
 9090W        W 9955  15.542   9.713   0.071
 9091W        W 9956  14.783   9.954   0.839
 9092W        W 9957  15.287   9.024   3.281
 9093W        W 9958  15.991   7.584   3.467
 9094W        W 9959  16.700   7.726   2.823
 9095W        W 9960  15.895   7.494   1.104
 9096W        W 9961  16.954   7.571   0.609
 9097W        W 9962  14.899   7.503   2.186
 9098W        W 9963  14.947   8.466   1.556
 9099W        W 9964  17.636   7.574   1.962
 9100W        W 9965  15.058   8.072   0.776
 9101W        W 9966  17.629   7.760   2.392
 9102W        W 9967  18.025   8.963   0.077
 9103W        W 9968  15.317   7.721   1.896
 9104W        W 9969  16.431   8.293   2.836
 9105W        W 9970  14.579   7.983   0.314
 9106W        W 9971  15.365   9.372   2.875
 9107W        W 9972  16.723   8.770   2.054
 9108W        W 9973  16.590  10.849   0.350
 9109W        W 9974  14.736   9.356   0.047
 9110W        W 9975  15.471   9.767   3.173
 9111W        W 9976  14.992   8.934   2.804
 9112W        W 9977  15.983   9.039   2.598
 9113W        W 9978  17.751   7.398   2.860
 9114W        W 9979  18.149   9.008   2.851
 9115W        W 9980  18.137   9.208   0.537
 9116W        W 9981  17.000   9.540   0.636
 9117W        W 9982  17.474  10.840   0.331
 9118W        W 9983  16.651   8.830   3.473
 9119W        W 9984  14.981   9.797   3.513
 9120W        W 9985  18.187   7.719   3.465
 9121W        W 9986  17.905   8.647   2.086
 9122W        W 9987  16.213  10.777   3.563
 9123W        W 9988  16.068   7.406   0.290
 9124W        W 9989  17.607  10.005   0.233
 9125W        W 9990  15.376   8.098   3.119
 9126W        W 9991  15.810  10.092   2.981
 9127W        W 9992  17.936   8.083   2.779
 9128W        W 9993  17.147  10.742   0.747
 9129W        W 9994  17.386   9.361   2.114
 9130W        W 9995  15.636   7.777   2.781
 9131W        W 9996  16.105   8.846   3.538
 9132W        W 9997  15.608  10.025   0.732
 9133W        W 9998  17.363   9.523   0.996
 9134W        W 9999  15.131   8.149   2.720
 9135W        W10000  16.460  10.211   1.184
 9136W        W10001  18.210   8.771   1.365
 9137W        W10002  16.432   7.404   3.084
 9138W        W10003  17.212  10.109   2.163
 9139W        W10004  17.515  10.453   1.871
 9140W        W10005  16.734  10.255   0.299
 9141W        W10006  14.744  10.147   3.141
 9142W        W10007  15.487   8.139   2.379
 9143W        W10008  15.457   7.487   1.489
 9144W        W10009  17.078   8.329   2.181
 9145W        W10010  15.876   9.500   0.381
 9146W        W10011  17.874   9.442   1.880
 9147W        W10012  15.201  10.200   3.303
 9148W        W10013  17.588  10.882   1.100
 9149W        W10014  15.687   7.902   1.545
 9150W        W10015  15.456   9.395   1.635
 9151W        W10016  15.769  10.806   2.385
 9152W        W10017  17.836  10.902   3.417
 9153W        W10018  16.995   9.090   2.350
 9154W        W10019  14.844   8.888   0.265
 9155W        W10020  17.978  10.546   0.962
 9156W        W10021  17.815   7.870   0.581
 9157W        W10022  15.954   7.389   2.984
 9158W        W10023  17.660  10.191   1.442
 9159W        W10024  17.689   8.747   1.347
 9160W        W10025  15.806   8.420   1.563
 9161W        W10026  16.051   8.682   2.887
 9162W        W10027  17.162   9.835   2.750
 9163W        W10028  15.812   8.289   2.862
 9164W        W10029  15.791  10.755   1.478
 9165W        W10030  15.108  10.714   3.112
 9166W        W10031  15.220  10.075   0.242
 9167W        W10032  17.737   9.833   1.052
 9168W        W10033  15.341   8.625   2.938
 9169W        W10034  18.114   8.555   0.419
 9170W        W10035  15.859   9.612   0.890
 9171W        W10036  16.958   8.994   2.971
 9172W        W10037  16.849   8.622   2.515
 9173W        W10038  15.409   8.994   2.544
 9174W        W10039  17.619  10.882   2.373
 9175W        W10040  17.410   7.516   3.367
 9176W        W10041  15.074   7.666   2.954
 9177W        W10042  15.413   8.689   2.007
 9178W        W10043  15.782   8.503   0.129
 9179W        W10044  14.585  10.262   2.674
 9180W        W10045  16.170   8.971   2.117
 9181W        W10046  15.993   7.996   0.222
 9182W        W10047  15.128   8.812   1.003
 9183W        W10048  14.899  10.664   2.440
 9184W        W10049  17.694   8.890   0.548
 9185W        W10050  17.789   7.806   3.234
 9186W        W10051  17.225  10.015   1.197
 9187W        W10052  14.823   8.939   3.374
 9188W        W10053  17.789   7.403   0.670
 9189W        W10054  17.309   9.878   0.681
 9190W        W10055  16.211   8.936   0.766
 9191W        W10056  17.398   7.740   0.289
 9192W        W10057  17.463   8.347   2.475
 9193W        W10058  15.172   8.940   1.682
 9194W        W10059  15.466   9.879   1.331
 9195W        W10060  17.229   8.499   1.296
 9196W        W10061  16.252   7.878   1.992
 9197W        W10062  18.214   9.789   2.503
 9198W        W10063  18.132   7.776   2.064
 9199W        W10064  14.671  10.606   1.440
 9200W        W10065  15.180   9.793   0.976
 9201W        W10066  15.095   7.410   3.529
 9202W        W10067  16.214  10.263   3.631
 9203W        W10068  17.969   9.231   1.421
 9204W        W10069  17.323   9.408   0.301
 9205W        W10070  16.618  10.929   2.513
 9206W        W10071  17.475   9.651   3.550
 9207W        W10072  16.290   7.361   0.830
 9208W        W10073  17.003   8.230   1.689
 9209W        W10074  14.689   9.817   2.021
 9210W        W10075  15.942   7.779   0.662
 9211W        W10076  15.746   9.263   3.511
 9212W        W10077  16.740   8.244   1.225
 9213W        W10078  16.945   9.654   2.347
 9214W        W10079  15.099  10.259   2.782
 9215W        W10080  15.690  10.242   3.505
 9216W        W10081  15.541   8.039   0.519
 9217W        W10082  17.058   8.181   0.844
 9218W        W10083  17.016  10.289   3.081
 9219W        W10084  15.701   8.881   1.680
 9220W        W10085  15.356  10.579   2.545
 9221W        W10086  18.101  10.696   0.146
 9222W        W10087  14.964   9.368   3.142
 9223W        W10088  16.959   9.630   1.830
 9224W        W10089  15.395   9.279   1.072
 9225W        W10090  15.766  10.286   2.467
 9226W        W10091  16.144   7.705   1.508
 9227W        W10092  14.755   9.689   0.438
 9228W        W10093  16.274   8.640   0.308
 9229W        W10094  14.920   9.189   1.327
 9230W        W10095  16.210   7.831   2.791
 9231W        W10096  17.882   7.540   0.218
 9232W        W10097  17.975   9.286   3.317
 9233W        W10098  16.629  10.543   3.469
 9234W        W10099  18.187   9.637   2.991
 9235W        W10100  17.595  10.435   3.602
 9236W        W10101  15.334  10.891   2.080
 9237W        W10102  18.193   9.513   0.954
 9238W        W10103  16.723   8.780   1.467
 9239W        W10104  16.490   7.392   1.357
 9240W        W10105  15.549  10.376   1.194
 9241W        W10106  16.048   8.117   2.419
 9242W        W10107  15.748   7.486   1.888
 9243W        W10108  14.811  10.308   0.436
 9244W        W10109  16.627   9.672   1.154
 9245W        W10110  15.502  10.467   3.033
 9246W        W10111  14.979   9.290   0.729
 9247W        W10112  14.864   7.833   1.728
 9248W        W10113  16.412   9.798   1.785
 9249W        W10114  14.664   7.652   0.805
 9250W        W10115  17.328   8.858   2.732
 9251W        W10116  17.205   8.244   0.304
 9252W        W10117  17.722   9.916   1.952
 9253W        W10118  16.383  10.400   1.783
 9254W        W10119  15.795  10.504   0.694
 9255W        W10120  17.077   7.407   0.124
 9256W        W10121  14.877  10.667   1.865
 9257W        W10122  17.074   8.425   3.500
 9258W        W10123  15.057   7.955   3.499
 9259W        W10124  14.788   8.555   0.832
 9260W        W10125  15.479   8.544   0.557
 9261W        W10126  17.242   8.871   3.374
 9262W        W10127  15.585   9.152   2.083
 9263W        W10128  17.059   7.438   1.203
 9264W        W10129  16.190  10.869   1.706
 9265W        W10130  17.404  10.331   2.643
 9266W        W10131  16.988  10.480   1.754
 9267W        W10132  17.007   9.460   1.348
 9268W        W10133  16.469   7.685   0.419
 9269W        W10134  18.150   7.313   1.141
 9270W        W10135  15.838   8.948   0.304
 9271W        W10136  18.004   8.285   1.294
 9272W        W10137  16.696   9.455   0.171
 9273W        W10138  17.632   9.655   2.919
 9274W        W10139  17.286  10.356   0.386
 9275W        W10140  15.901   8.031   3.292
 9276W        W10141  15.721   8.615   2.533
 9277W        W10142  17.813  10.110   2.810
 9278W        W10143  16.913   8.060   3.187
 9279W        W10144  14.757   8.531   2.964
 9280W        W10145  16.517   9.008   2.690
 9281W        W10146  14.874   9.766   1.347
 9282W        W10147  15.021   9.063   2.237
 9283W        W10148  17.338   9.349   2.587
 9284W        W10149  17.110  10.729   3.398
 9285W        W10150  17.006   8.468   2.951
 9286W        W10151  17.283  10.522   1.356
 9287W        W10152  16.285  10.242   2.679
 9288W        W10153  15.770  10.597   1.948
 9289W        W10154  17.575   9.768   2.367
 9290W        W10155  16.625   9.840   3.504
 9291W        W10156  15.230   9.793   1.843
 9292W        W10157  17.576   9.552   1.488
 9293W        W10158  17.217  10.618   2.239
 9294W        W10159  15.195  10.347   2.109
 9295W        W10160  16.216   8.399   3.319
 9296W        W10161  16.667  10.565   0.830
 9297W        W10162  15.975   9.820   3.468
 9298W        W10163  16.101  10.058   0.845
 9299W        W10164  15.322   8.798   0.104
 9300W        W10165  14.661  10.884   7.003
 9301W        W10166  15.037   9.777   6.526
 9302W        W10167  17.742   9.507   4.296
 9303W        W10168  17.872  10.592   6.323
 9304W        W10169  15.790  10.583   3.849
 9305W        W10170  15.873   8.735   4.832
 9306W        W10171  15.388   8.583   4.996
 9307W        W10172  16.379   9.398   4.430
 9308W        W10173  16.054  10.490   6.785
 9309W        W10174  14.703   8.051   6.748
 9310W        W10175  15.465   7.331   6.550
 9311W        W10176  17.159   7.719   5.437
 9312W        W10177  16.808   8.590   4.007
 9313W        W10178  17.378   8.024   7.098
 9314W        W10179  14.744   7.816   6.223
 9315W        W10180  14.843  10.435   7.244
 9316W        W10181  16.365   9.825   3.976
 9317W        W10182  14.797   8.608   5.669
 9318W        W10183  15.690   8.499   6.906
 9319W        W10184  18.149   8.358   5.405
 9320W        W10185  17.913   9.401   6.264
 9321W        W10186  16.221   8.734   5.291
 9322W        W10187  16.767  10.073   5.660
 9323W        W10188  15.267   9.507   5.892
 9324W        W10189  14.626   9.035   5.463
 9325W        W10190  15.662   9.007   6.655
 9326W        W10191  17.933   8.790   6.909
 9327W        W10192  15.549  10.234   5.354
 9328W        W10193  16.670   9.923   6.488
 9329W        W10194  15.890   8.563   5.713
 9330W        W10195  16.182   9.347   5.356
 9331W        W10196  17.179  10.120   7.204
 9332W        W10197  16.258   9.440   7.214
 9333W        W10198  16.239   9.156   6.692
 9334W        W10199  14.648   8.547   7.214
 9335W        W10200  17.480  10.082   6.813
 9336W        W10201  15.061   7.664   4.811
 9337W        W10202  15.588   9.922   5.810
 9338W        W10203  18.051   9.705   5.100
 9339W        W10204  17.464   8.105   5.667
 9340W        W10205  17.749   8.058   3.762
 9341W        W10206  16.181  10.566   5.821
 9342W        W10207  17.955  10.032   4.259
 9343W        W10208  15.084  10.818   4.013
 9344W        W10209  15.477  10.864   4.689
 9345W        W10210  15.274   7.618   6.115
 9346W        W10211  17.302   9.058   4.849
 9347W        W10212  17.268   8.746   3.876
 9348W        W10213  16.476   9.890   6.016
 9349W        W10214  16.282   8.220   5.215
 9350W        W10215  16.882  10.307   6.209
 9351W        W10216  17.753   9.098   4.631
 9352W        W10217  16.655   7.756   4.647
 9353W        W10218  15.312  10.450   4.330
 9354W        W10219  14.683   7.949   4.929
 9355W        W10220  17.469   8.556   5.403
 9356W        W10221  14.927  10.173   5.318
 9357W        W10222  16.268  10.523   4.188
 9358W        W10223  17.660   8.549   3.652
 9359W        W10224  14.683  10.307   5.816
 9360W        W10225  15.474   9.879   6.296
 9361W        W10226  15.847   9.239   4.915
 9362W        W10227  15.869   7.644   6.008
 9363W        W10228  18.098   7.406   5.305
 9364W        W10229  15.317   9.278   3.773
 9365W        W10230  14.972   8.311   3.952
 9366W        W10231  15.034  10.267   4.746
 9367W        W10232  16.165   9.750   4.994
 9368W        W10233  17.497  10.609   6.708
 9369W        W10234  16.423   8.251   4.392
 9370W        W10235  17.806  10.649   5.164
 9371W        W10236  17.483   8.502   6.762
 9372W        W10237  18.196  10.158   4.896
 9373W        W10238  16.823   9.450   6.380
 9374W        W10239  14.589   9.001   4.586
 9375W        W10240  15.700   9.416   6.159
 9376W        W10241  16.904   8.680   4.537
 9377W        W10242  16.781   9.170   4.641
 9378W        W10243  15.124   8.590   6.115
 9379W        W10244  15.109   8.466   7.037
 9380W        W10245  14.999   7.383   5.196
 9381W        W10246  16.767   7.730   5.757
 9382W        W10247  16.415   7.915   6.920
 9383W        W10248  16.770   8.064   4.098
 9384W        W10249  17.953  10.457   6.852
 9385W        W10250  16.920   7.538   6.891
 9386W        W10251  17.939   9.839   7.013
 9387W        W10252  17.369   8.006   6.609
 9388W        W10253  17.169   7.944   4.879
 9389W        W10254  17.562   9.078   7.283
 9390W        W10255  15.302  10.654   5.269
 9391W        W10256  15.960   8.371   4.255
 9392W        W10257  15.529   7.655   6.919
 9393W        W10258  17.581   8.139   4.600
 9394W        W10259  17.948   8.621   4.545
 9395W        W10260  15.691  10.838   7.016
 9396W        W10261  15.617   7.374   4.251
 9397W        W10262  17.938   7.908   5.286
 9398W        W10263  18.088  10.157   3.731
 9399W        W10264  14.995   9.360   5.433
 9400W        W10265  16.912   7.947   3.663
 9401W        W10266  18.046  10.279   5.383
 9402W        W10267  18.085   7.473   6.133
 9403W        W10268  16.530   8.685   6.687
 9404W        W10269  16.623  10.024   4.390
 9405W        W10270  17.023   9.318   7.130
 9406W        W10271  16.697   7.295   5.439
 9407W        W10272  15.309   8.198   5.502
 9408W        W10273  14.863   9.398   6.276
 9409W        W10274  16.722  10.591   4.982
 9410W        W10275  17.916   8.188   5.854
 9411W        W10276  16.553  10.535   6.621
 9412W        W10277  17.896   9.594   3.826
 9413W        W10278  16.331   9.077   4.887
 9414W        W10279  18.183   7.588   6.628
 9415W        W10280  16.332   9.423   6.222
 9416W        W10281  16.549   8.309   5.667
 9417W        W10282  17.401   8.607   4.505
 9418W        W10283  17.688   8.340   4.147
 9419W        W10284  17.497  10.380   4.536
 9420W        W10285  17.331   9.983   5.332
 9421W        W10286  17.227   9.062   4.310
 9422W        W10287  16.660   9.272   5.296
 9423W        W10288  17.541   9.060   5.363
 9424W        W10289  14.916   8.075   5.787
 9425W        W10290  17.694   9.127   6.614
 9426W        W10291  18.045  10.745   5.760
 9427W        W10292  15.975  10.189   5.162
 9428W        W10293  16.982  10.722   6.486
 9429W        W10294  16.976   8.052   6.250
 9430W        W10295  16.183  10.760   6.311
 9431W        W10296  17.880   7.714   4.777
 9432W        W10297  14.654   8.354   6.116
 9433W        W10298  17.514   8.149   5.134
 9434W        W10299  17.925   8.300   6.911
 9435W        W10300  16.810   9.999   5.129
 9436W        W10301  16.066  10.590   4.742
 9437W        W10302  15.181   7.770   4.000
 9438W        W10303  16.285   7.424   5.810
 9439W        W10304  15.313  10.544   3.658
 9440W        W10305  15.687   9.010   4.409
 9441W        W10306  16.341   9.639   6.722
 9442W        W10307  16.171   7.997   4.712
 9443W        W10308  17.527   7.594   5.140
 9444W        W10309  17.247  10.876   5.468
 9445W        W10310  16.659  10.524   5.808
 9446W        W10311  16.055   9.561   5.769
 9447W        W10312  17.825  10.284   5.895
 9448W        W10313  15.519   7.787   4.664
 9449W        W10314  16.041  10.084   5.624
 9450W        W10315  15.524   8.015   3.689
 9451W        W10316  16.325   8.624   6.083
 9452W        W10317  17.173   7.490   5.953
 9453W        W10318  14.593   9.333   5.838
 9454W        W10319  16.297   9.151   3.996
 9455W        W10320  15.565   7.466   3.766
 9456W        W10321  16.303   8.547   4.817
 9457W        W10322  17.273   7.523   6.516
 9458W        W10323  15.861   9.535   6.625
 9459W        W10324  16.665   9.317   6.842
 9460W        W10325  17.282   9.347   6.735
 9461W        W10326  16.566   7.487   7.240
 9462W        W10327  15.788   8.103   5.633
 9463W        W10328  15.214   8.059   5.031
 9464W        W10329  15.000  10.771   4.707
 9465W        W10330  16.332  10.101   6.832
 9466W        W10331  15.367   9.586   4.191
 9467W        W10332  17.047   8.971   5.412
 9468W        W10333  17.327   8.770   5.811
 9469W        W10334  16.532   9.444   5.745
 9470W        W10335  17.002   9.818   3.877
 9471W        W10336  16.674   7.839   5.205
 9472W        W10337  18.153   8.117   4.473
 9473W        W10338  14.647  10.706   6.504
 9474W        W10339  15.064   9.932   6.036
 9475W        W10340  14.631  10.778   4.268
 9476W        W10341  16.530   8.048   6.074
 9477W        W10342  15.893  10.071   3.923
 9478W        W10343  17.798  10.453   4.109
 9479W        W10344  16.773   9.106   4.123
 9480W        W10345  15.616   8.297   4.640
 9481W        W10346  16.448   8.207   3.692
 9482W        W10347  17.032   9.772   6.870
 9483W        W10348  17.385   7.678   4.487
 9484W        W10349  14.715   7.526   3.935
 9485W        W10350  16.001   9.845   6.225
 9486W        W10351  15.800   9.761   5.317
 9487W        W10352  15.542   9.713   3.715
 9488W        W10353  14.783   9.954   4.483
 9489W        W10354  15.287   9.024   6.925
 9490W        W10355  15.991   7.584   7.111
 9491W        W10356  16.700   7.726   6.467
 9492W        W10357  15.895   7.494   4.748
 9493W        W10358  16.954   7.571   4.253
 9494W        W10359  14.899   7.503   5.830
 9495W        W10360  14.947   8.466   5.200
 9496W        W10361  17.636   7.574   5.606
 9497W        W10362  15.058   8.072   4.420
 9498W        W10363  17.629   7.760   6.036
 9499W        W10364  18.025   8.963   3.721
 9500W        W10365  15.317   7.721   5.540
 9501W        W10366  16.431   8.293   6.480
 9502W        W10367  14.579   7.983   3.958
 9503W        W10368  15.365   9.372   6.519
 9504W        W10369  16.723   8.770   5.698
 9505W        W10370  16.590  10.849   3.994
 9506W        W10371  14.736   9.356   3.691
 9507W        W10372  15.471   9.767   6.817
 9508W        W10373  14.992   8.934   6.448
 9509W        W10374  15.983   9.039   6.242
 9510W        W10375  17.751   7.398   6.504
 9511W        W10376  18.149   9.008   6.495
 9512W        W10377  18.137   9.208   4.181
 9513W        W10378  17.000   9.540   4.280
 9514W        W10379  17.474  10.840   3.975
 9515W        W10380  16.651   8.830   7.117
 9516W        W10381  14.981   9.797   7.157
 9517W        W10382  18.187   7.719   7.109
 9518W        W10383  17.905   8.647   5.730
 9519W        W10384  16.213  10.777   7.207
 9520W        W10385  16.068   7.406   3.934
 9521W        W10386  17.607  10.005   3.877
 9522W        W10387  15.376   8.098   6.763
 9523W        W10388  15.810  10.092   6.625
 9524W        W10389  17.936   8.083   6.423
 9525W        W10390  17.147  10.742   4.391
 9526W        W10391  17.386   9.361   5.758
 9527W        W10392  15.636   7.777   6.425
 9528W        W10393  16.105   8.846   7.182
 9529W        W10394  15.608  10.025   4.376
 9530W        W10395  17.363   9.523   4.640
 9531W        W10396  15.131   8.149   6.364
 9532W        W10397  16.460  10.211   4.828
 9533W        W10398  18.210   8.771   5.009
 9534W        W10399  16.432   7.404   6.728
 9535W        W10400  17.212  10.109   5.807
 9536W        W10401  17.515  10.453   5.515
 9537W        W10402  16.734  10.255   3.943
 9538W        W10403  14.744  10.147   6.785
 9539W        W10404  15.487   8.139   6.023
 9540W        W10405  15.457   7.487   5.133
 9541W        W10406  17.078   8.329   5.825
 9542W        W10407  15.876   9.500   4.025
 9543W        W10408  17.874   9.442   5.524
 9544W        W10409  15.201  10.200   6.947
 9545W        W10410  17.588  10.882   4.744
 9546W        W10411  15.687   7.902   5.189
 9547W        W10412  15.456   9.395   5.279
 9548W        W10413  15.769  10.806   6.029
 9549W        W10414  17.836  10.902   7.061
 9550W        W10415  16.995   9.090   5.994
 9551W        W10416  14.844   8.888   3.909
 9552W        W10417  17.978  10.546   4.606
 9553W        W10418  17.815   7.870   4.225
 9554W        W10419  15.954   7.389   6.628
 9555W        W10420  17.660  10.191   5.086
 9556W        W10421  17.689   8.747   4.991
 9557W        W10422  15.806   8.420   5.207
 9558W        W10423  16.051   8.682   6.531
 9559W        W10424  17.162   9.835   6.394
 9560W        W10425  15.812   8.289   6.506
 9561W        W10426  15.791  10.755   5.122
 9562W        W10427  15.108  10.714   6.756
 9563W        W10428  15.220  10.075   3.886
 9564W        W10429  17.737   9.833   4.696
 9565W        W10430  15.341   8.625   6.582
 9566W        W10431  18.114   8.555   4.063
 9567W        W10432  15.859   9.612   4.534
 9568W        W10433  16.958   8.994   6.615
 9569W        W10434  16.849   8.622   6.159
 9570W        W10435  15.409   8.994   6.188
 9571W        W10436  17.619  10.882   6.017
 9572W        W10437  17.410   7.516   7.011
 9573W        W10438  15.074   7.666   6.598
 9574W        W10439  15.413   8.689   5.651
 9575W        W10440  15.782   8.503   3.773
 9576W        W10441  14.585  10.262   6.318
 9577W        W10442  16.170   8.971   5.761
 9578W        W10443  15.993   7.996   3.866
 9579W        W10444  15.128   8.812   4.647
 9580W        W10445  14.899  10.664   6.084
 9581W        W10446  17.694   8.890   4.192
 9582W        W10447  17.789   7.806   6.878
 9583W        W10448  17.225  10.015   4.841
 9584W        W10449  14.823   8.939   7.018
 9585W        W10450  17.789   7.403   4.314
 9586W        W10451  17.309   9.878   4.325
 9587W        W10452  16.211   8.936   4.410
 9588W        W10453  17.398   7.740   3.933
 9589W        W10454  17.463   8.347   6.119
 9590W        W10455  15.172   8.940   5.326
 9591W        W10456  15.466   9.879   4.975
 9592W        W10457  17.229   8.499   4.940
 9593W        W10458  16.252   7.878   5.636
 9594W        W10459  18.214   9.789   6.147
 9595W        W10460  18.132   7.776   5.708
 9596W        W10461  14.671  10.606   5.084
 9597W        W10462  15.180   9.793   4.620
 9598W        W10463  15.095   7.410   7.173
 9599W        W10464  16.214  10.263   7.275
 9600W        W10465  17.969   9.231   5.065
 9601W        W10466  17.323   9.408   3.945
 9602W        W10467  16.618  10.929   6.157
 9603W        W10468  17.475   9.651   7.194
 9604W        W10469  16.290   7.361   4.474
 9605W        W10470  17.003   8.230   5.333
 9606W        W10471  14.689   9.817   5.665
 9607W        W10472  15.942   7.779   4.306
 9608W        W10473  15.746   9.263   7.155
 9609W        W10474  16.740   8.244   4.869
 9610W        W10475  16.945   9.654   5.991
 9611W        W10476  15.099  10.259   6.426
 9612W        W10477  15.690  10.242   7.149
 9613W        W10478  15.541   8.039   4.163
 9614W        W10479  17.058   8.181   4.488
 9615W        W10480  17.016  10.289   6.725
 9616W        W10481  15.701   8.881   5.324
 9617W        W10482  15.356  10.579   6.189
 9618W        W10483  18.101  10.696   3.790
 9619W        W10484  14.964   9.368   6.786
 9620W        W10485  16.959   9.630   5.474
 9621W        W10486  15.395   9.279   4.716
 9622W        W10487  15.766  10.286   6.111
 9623W        W10488  16.144   7.705   5.152
 9624W        W10489  14.755   9.689   4.082
 9625W        W10490  16.274   8.640   3.952
 9626W        W10491  14.920   9.189   4.971
 9627W        W10492  16.210   7.831   6.435
 9628W        W10493  17.882   7.540   3.862
 9629W        W10494  17.975   9.286   6.961
 9630W        W10495  16.629  10.543   7.113
 9631W        W10496  18.187   9.637   6.635
 9632W        W10497  17.595  10.435   7.246
 9633W        W10498  15.334  10.891   5.724
 9634W        W10499  18.193   9.513   4.598
 9635W        W10500  16.723   8.780   5.111
 9636W        W10501  16.490   7.392   5.001
 9637W        W10502  15.549  10.376   4.838
 9638W        W10503  16.048   8.117   6.063
 9639W        W10504  15.748   7.486   5.532
 9640W        W10505  14.811  10.308   4.080
 9641W        W10506  16.627   9.672   4.798
 9642W        W10507  15.502  10.467   6.677
 9643W        W10508  14.979   9.290   4.373
 9644W        W10509  14.864   7.833   5.372
 9645W        W10510  16.412   9.798   5.429
 9646W        W10511  14.664   7.652   4.449
 9647W        W10512  17.328   8.858   6.376
 9648W        W10513  17.205   8.244   3.948
 9649W        W10514  17.722   9.916   5.596
 9650W        W10515  16.383  10.400   5.427
 9651W        W10516  15.795  10.504   4.338
 9652W        W10517  17.077   7.407   3.768
 9653W        W10518  14.877  10.667   5.509
 9654W        W10519  17.074   8.425   7.144
 9655W        W10520  15.057   7.955   7.143
 9656W        W10521  14.788   8.555   4.476
 9657W        W10522  15.479   8.544   4.201
 9658W        W10523  17.242   8.871   7.018
 9659W        W10524  15.585   9.152   5.727
 9660W        W10525  17.059   7.438   4.847
 9661W        W10526  16.190  10.869   5.350
 9662W        W10527  17.404  10.331   6.287
 9663W        W10528  16.988  10.480   5.398
 9664W        W10529  17.007   9.460   4.992
 9665W        W10530  16.469   7.685   4.063
 9666W        W10531  18.150   7.313   4.785
 9667W        W10532  15.838   8.948   3.948
 9668W        W10533  18.004   8.285   4.938
 9669W        W10534  16.696   9.455   3.815
 9670W        W10535  17.632   9.655   6.563
 9671W        W10536  17.286  10.356   4.030
 9672W        W10537  15.901   8.031   6.936
 9673W        W10538  15.721   8.615   6.177
 9674W        W10539  17.813  10.110   6.454
 9675W        W10540  16.913   8.060   6.831
 9676W        W10541  14.757   8.531   6.608
 9677W        W10542  16.517   9.008   6.334
 9678W        W10543  14.874   9.766   4.991
 9679W        W10544  15.021   9.063   5.881
 9680W        W10545  17.338   9.349   6.231
 9681W        W10546  17.110  10.729   7.042
 9682W        W10547  17.006   8.468   6.595
 9683W        W10548  17.283  10.522   5.000
 9684W        W10549  16.285  10.242   6.323
 9685W        W10550  15.770  10.597   5.592
 9686W        W10551  17.575   9.768   6.011
 9687W        W10552  16.625   9.840   7.148
 9688W        W10553  15.230   9.793   5.487
 9689W        W10554  17.576   9.552   5.132
 9690W        W10555  17.217  10.618   5.883
 9691W        W10556  15.195  10.347   5.753
 9692W        W10557  16.216   8.399   6.963
 9693W        W10558  16.667  10.565   4.474
 9694W        W10559  15.975   9.820   7.112
 9695W        W10560  16.101  10.058   4.489
 9696W        W10561  15.322   8.798   3.748
 9697W        W10562  14.661  10.884  10.648
 9698W        W10563  15.037   9.777  10.171
 9699W        W10564  17.742   9.507   7.941
 9700W        W10565  17.872  10.592   9.968
 9701W        W10566  15.790  10.583   7.494
 9702W        W10567  15.873   8.735   8.477
 9703W        W10568  15.388   8.583   8.641
 9704W        W10569  16.379   9.398   8.075
 9705W        W10570  16.054  10.490  10.430
 9706W        W10571  14.703   8.051  10.393
 9707W        W10572  15.465   7.331  10.195
 9708W        W10573  17.159   7.719   9.082
 9709W        W10574  16.808   8.590   7.652
 9710W        W10575  17.378   8.024  10.743
 9711W        W10576  14.744   7.816   9.868
 9712W        W10577  14.843  10.435  10.889
 9713W        W10578  16.365   9.825   7.621
 9714W        W10579  14.797   8.608   9.314
 9715W        W10580  15.690   8.499  10.551
 9716W        W10581  18.149   8.358   9.050
 9717W        W10582  17.913   9.401   9.909
 9718W        W10583  16.221   8.734   8.936
 9719W        W10584  16.767  10.073   9.305
 9720W        W10585  15.267   9.507   9.537
 9721W        W10586  14.626   9.035   9.108
 9722W        W10587  15.662   9.007  10.300
 9723W        W10588  17.933   8.790  10.554
 9724W        W10589  15.549  10.234   8.999
 9725W        W10590  16.670   9.923  10.133
 9726W        W10591  15.890   8.563   9.358
 9727W        W10592  16.182   9.347   9.001
 9728W        W10593  17.179  10.120  10.849
 9729W        W10594  16.258   9.440  10.859
 9730W        W10595  16.239   9.156  10.337
 9731W        W10596  14.648   8.547  10.859
 9732W        W10597  17.480  10.082  10.458
 9733W        W10598  15.061   7.664   8.456
 9734W        W10599  15.588   9.922   9.455
 9735W        W10600  18.051   9.705   8.745
 9736W        W10601  17.464   8.105   9.312
 9737W        W10602  17.749   8.058   7.407
 9738W        W10603  18.214   8.859   9.713
 9739W        W10604  16.181  10.566   9.466
 9740W        W10605  17.955  10.032   7.904
 9741W        W10606  15.084  10.818   7.658
 9742W        W10607  15.477  10.864   8.334
 9743W        W10608  15.274   7.618   9.760
 9744W        W10609  17.897   8.636  10.035
 9745W        W10610  17.302   9.058   8.494
 9746W        W10611  17.268   8.746   7.521
 9747W        W10612  16.476   9.890   9.661
 9748W        W10613  16.282   8.220   8.860
 9749W        W10614  16.882  10.307   9.854
 9750W        W10615  17.753   9.098   8.276
 9751W        W10616  16.655   7.756   8.292
 9752W        W10617  15.312  10.450   7.975
 9753W        W10618  14.683   7.949   8.574
 9754W        W10619  17.469   8.556   9.048
 9755W        W10620  14.927  10.173   8.963
 9756W        W10621  16.268  10.523   7.833
 9757W        W10622  17.660   8.549   7.297
 9758W        W10623  14.683  10.307   9.461
 9759W        W10624  15.474   9.879   9.941
 9760W        W10625  15.847   9.239   8.560
 9761W        W10626  15.869   7.644   9.653
 9762W        W10627  18.098   7.406   8.950
 9763W        W10628  15.317   9.278   7.418
 9764W        W10629  14.972   8.311   7.597
 9765W        W10630  15.034  10.267   8.391
 9766W        W10631  16.165   9.750   8.639
 9767W        W10632  17.497  10.609  10.353
 9768W        W10633  16.423   8.251   8.037
 9769W        W10634  17.806  10.649   8.809
 9770W        W10635  17.483   8.502  10.407
 9771W        W10636  18.196  10.158   8.541
 9772W        W10637  16.823   9.450  10.025
 9773W        W10638  14.589   9.001   8.231
 9774W        W10639  15.700   9.416   9.804
 9775W        W10640  16.904   8.680   8.182
 9776W        W10641  16.781   9.170   8.286
 9777W        W10642  15.124   8.590   9.760
 9778W        W10643  15.109   8.466  10.682
 9779W        W10644  14.999   7.383   8.841
 9780W        W10645  16.767   7.730   9.402
 9781W        W10646  16.415   7.915  10.565
 9782W        W10647  16.770   8.064   7.743
 9783W        W10648  17.953  10.457  10.497
 9784W        W10649  16.920   7.538  10.536
 9785W        W10650  17.939   9.839  10.658
 9786W        W10651  17.369   8.006  10.254
 9787W        W10652  17.169   7.944   8.524
 9788W        W10653  17.562   9.078  10.928
 9789W        W10654  15.302  10.654   8.914
 9790W        W10655  15.960   8.371   7.900
 9791W        W10656  15.529   7.655  10.564
 9792W        W10657  17.581   8.139   8.245
 9793W        W10658  17.948   8.621   8.190
 9794W        W10659  15.691  10.838  10.661
 9795W        W10660  15.617   7.374   7.896
 9796W        W10661  17.938   7.908   8.931
 9797W        W10662  18.088  10.157   7.376
 9798W        W10663  14.995   9.360   9.078
 9799W        W10664  16.912   7.947   7.308
 9800W        W10665  18.046  10.279   9.028
 9801W        W10666  18.085   7.473   9.778
 9802W        W10667  16.530   8.685  10.332
 9803W        W10668  16.623  10.024   8.035
 9804W        W10669  17.023   9.318  10.775
 9805W        W10670  16.697   7.295   9.084
 9806W        W10671  15.309   8.198   9.147
 9807W        W10672  14.863   9.398   9.921
 9808W        W10673  16.722  10.591   8.627
 9809W        W10674  17.916   8.188   9.499
 9810W        W10675  16.553  10.535  10.266
 9811W        W10676  17.896   9.594   7.471
 9812W        W10677  16.331   9.077   8.532
 9813W        W10678  18.183   7.588  10.273
 9814W        W10679  16.332   9.423   9.867
 9815W        W10680  16.549   8.309   9.312
 9816W        W10681  17.401   8.607   8.150
 9817W        W10682  17.688   8.340   7.792
 9818W        W10683  17.497  10.380   8.181
 9819W        W10684  17.331   9.983   8.977
 9820W        W10685  17.227   9.062   7.955
 9821W        W10686  16.660   9.272   8.941
 9822W        W10687  17.541   9.060   9.008
 9823W        W10688  14.916   8.075   9.432
 9824W        W10689  17.694   9.127  10.259
 9825W        W10690  18.045  10.745   9.405
 9826W        W10691  15.975  10.189   8.807
 9827W        W10692  16.982  10.722  10.131
 9828W        W10693  16.976   8.052   9.895
 9829W        W10694  16.183  10.760   9.956
 9830W        W10695  17.880   7.714   8.422
 9831W        W10696  17.671   9.033   9.723
 9832W        W10697  14.654   8.354   9.761
 9833W        W10698  17.514   8.149   8.779
 9834W        W10699  17.925   8.300  10.556
 9835W        W10700  16.810   9.999   8.774
 9836W        W10701  16.066  10.590   8.387
 9837W        W10702  15.181   7.770   7.645
 9838W        W10703  16.285   7.424   9.455
 9839W        W10704  15.313  10.544   7.303
 9840W        W10705  15.687   9.010   8.054
 9841W        W10706  16.341   9.639  10.367
 9842W        W10707  16.171   7.997   8.357
 9843W        W10708  17.527   7.594   8.785
 9844W        W10709  17.247  10.876   9.113
 9845W        W10710  16.659  10.524   9.453
 9846W        W10711  16.055   9.561   9.414
 9847W        W10712  17.825  10.284   9.540
 9848W        W10713  15.519   7.787   8.309
 9849W        W10714  16.041  10.084   9.269
 9850W        W10715  15.524   8.015   7.334
 9851W        W10716  16.325   8.624   9.728
 9852W        W10717  17.173   7.490   9.598
 9853W        W10718  14.593   9.333   9.483
 9854W        W10719  16.297   9.151   7.641
 9855W        W10720  15.565   7.466   7.411
 9856W        W10721  16.303   8.547   8.462
 9857W        W10722  17.273   7.523  10.161
 9858W        W10723  15.861   9.535  10.270
 9859W        W10724  16.665   9.317  10.487
 9860W        W10725  17.282   9.347  10.380
 9861W        W10726  16.566   7.487  10.885
 9862W        W10727  15.788   8.103   9.278
 9863W        W10728  15.214   8.059   8.676
 9864W        W10729  15.000  10.771   8.352
 9865W        W10730  16.332  10.101  10.477
 9866W        W10731  15.367   9.586   7.836
 9867W        W10732  17.047   8.971   9.057
 9868W        W10733  17.327   8.770   9.456
 9869W        W10734  16.532   9.444   9.390
 9870W        W10735  17.002   9.818   7.522
 9871W        W10736  16.674   7.839   8.850
 9872W        W10737  18.153   8.117   8.118
 9873W        W10738  14.647  10.706  10.149
 9874W        W10739  15.064   9.932   9.681
 9875W        W10740  14.631  10.778   7.913
 9876W        W10741  16.530   8.048   9.719
 9877W        W10742  15.893  10.071   7.568
 9878W        W10743  17.798  10.453   7.754
 9879W        W10744  16.773   9.106   7.768
 9880W        W10745  15.616   8.297   8.285
 9881W        W10746  16.448   8.207   7.337
 9882W        W10747  17.032   9.772  10.515
 9883W        W10748  17.385   7.678   8.132
 9884W        W10749  14.715   7.526   7.580
 9885W        W10750  16.001   9.845   9.870
 9886W        W10751  15.800   9.761   8.962
 9887W        W10752  15.542   9.713   7.360
 9888W        W10753  14.783   9.954   8.128
 9889W        W10754  15.287   9.024  10.570
 9890W        W10755  15.991   7.584  10.756
 9891W        W10756  16.700   7.726  10.112
 9892W        W10757  15.895   7.494   8.393
 9893W        W10758  16.954   7.571   7.898
 9894W        W10759  14.899   7.503   9.475
 9895W        W10760  14.947   8.466   8.845
 9896W        W10761  17.636   7.574   9.251
 9897W        W10762  15.058   8.072   8.065
 9898W        W10763  17.629   7.760   9.681
 9899W        W10764  18.025   8.963   7.366
 9900W        W10765  15.317   7.721   9.185
 9901W        W10766  16.431   8.293  10.125
 9902W        W10767  14.579   7.983   7.603
 9903W        W10768  15.365   9.372  10.164
 9904W        W10769  16.723   8.770   9.343
 9905W        W10770  16.590  10.849   7.639
 9906W        W10771  14.736   9.356   7.336
 9907W        W10772  15.471   9.767  10.462
 9908W        W10773  14.992   8.934  10.093
 9909W        W10774  15.983   9.039   9.887
 9910W        W10775  17.751   7.398  10.149
 9911W        W10776  18.149   9.008  10.140
 9912W        W10777  18.137   9.208   7.826
 9913W        W10778  17.000   9.540   7.925
 9914W        W10779  17.474  10.840   7.620
 9915W        W10780  16.651   8.830  10.762
 9916W        W10781  14.981   9.797  10.802
 9917W        W10782  18.187   7.719  10.754
 9918W        W10783  17.905   8.647   9.375
 9919W        W10784  16.213  10.777  10.852
 9920W        W10785  16.068   7.406   7.579
 9921W        W10786  17.607  10.005   7.522
 9922W        W10787  15.376   8.098  10.408
 9923W        W10788  15.810  10.092  10.270
 9924W        W10789  17.936   8.083  10.068
 9925W        W10790  17.147  10.742   8.036
 9926W        W10791  17.386   9.361   9.403
 9927W        W10792  15.636   7.777  10.070
 9928W        W10793  16.105   8.846  10.827
 9929W        W10794  15.608  10.025   8.021
 9930W        W10795  17.363   9.523   8.285
 9931W        W10796  15.131   8.149  10.009
 9932W        W10797  16.460  10.211   8.473
 9933W        W10798  18.210   8.771   8.654
 9934W        W10799  16.432   7.404  10.373
 9935W        W10800  17.212  10.109   9.452
 9936W        W10801  17.515  10.453   9.160
 9937W        W10802  16.734  10.255   7.588
 9938W        W10803  14.744  10.147  10.430
 9939W        W10804  15.487   8.139   9.668
 9940W        W10805  15.457   7.487   8.778
 9941W        W10806  17.078   8.329   9.470
 9942W        W10807  15.876   9.500   7.670
 9943W        W10808  17.874   9.442   9.169
 9944W        W10809  15.201  10.200  10.592
 9945W        W10810  17.588  10.882   8.389
 9946W        W10811  15.687   7.902   8.834
 9947W        W10812  15.456   9.395   8.924
 9948W        W10813  15.769  10.806   9.674
 9949W        W10814  17.836  10.902  10.706
 9950W        W10815  16.995   9.090   9.639
 9951W        W10816  14.844   8.888   7.554
 9952W        W10817  17.978  10.546   8.251
 9953W        W10818  17.815   7.870   7.870
 9954W        W10819  15.954   7.389  10.273
 9955W        W10820  17.660  10.191   8.731
 9956W        W10821  17.689   8.747   8.636
 9957W        W10822  15.806   8.420   8.852
 9958W        W10823  16.051   8.682  10.176
 9959W        W10824  17.162   9.835  10.039
 9960W        W10825  15.812   8.289  10.151
 9961W        W10826  15.791  10.755   8.767
 9962W        W10827  15.108  10.714  10.401
 9963W        W10828  15.220  10.075   7.531
 9964W        W10829  17.737   9.833   8.341
 9965W        W10830  15.341   8.625  10.227
 9966W        W10831  18.114   8.555   7.708
 9967W        W10832  15.859   9.612   8.179
 9968W        W10833  16.958   8.994  10.260
 9969W        W10834  16.849   8.622   9.804
 9970W        W10835  15.409   8.994   9.833
 9971W        W10836  17.619  10.882   9.662
 9972W        W10837  17.410   7.516  10.656
 9973W        W10838  15.074   7.666  10.243
 9974W        W10839  15.413   8.689   9.296
 9975W        W10840  15.782   8.503   7.418
 9976W        W10841  14.585  10.262   9.963
 9977W        W10842  16.170   8.971   9.406
 9978W        W10843  15.993   7.996   7.511
 9979W        W10844  15.128   8.812   8.292
 9980W        W10845  14.899  10.664   9.729
 9981W        W10846  17.694   8.890   7.837
 9982W        W10847  17.789   7.806  10.523
 9983W        W10848  17.225  10.015   8.486
 9984W        W10849  14.823   8.939  10.663
 9985W        W10850  17.789   7.403   7.959
 9986W        W10851  17.309   9.878   7.970
 9987W        W10852  16.211   8.936   8.055
 9988W        W10853  17.398   7.740   7.578
 9989W        W10854  17.463   8.347   9.764
 9990W        W10855  15.172   8.940   8.971
 9991W        W10856  15.466   9.879   8.620
 9992W        W10857  17.229   8.499   8.585
 9993W        W10858  16.252   7.878   9.281
 9994W        W10859  18.214   9.789   9.792
 9995W        W10860  18.132   7.776   9.353
 9996W        W10861  14.671  10.606   8.729
 9997W        W10862  15.180   9.793   8.265
 9998W        W10863  15.095   7.410  10.818
 9999W        W10864  16.214  10.263  10.920
10000W        W10865  17.969   9.231   8.710
10001W        W10866  17.323   9.408   7.590
10002W        W10867  16.618  10.929   9.802
10003W        W10868  17.475   9.651  10.839
10004W        W10869  16.290   7.361   8.119
10005W        W10870  17.003   8.230   8.978
10006W        W10871  14.689   9.817   9.310
10007W        W10872  15.942   7.779   7.951
10008W        W10873  15.746   9.263  10.800
10009W        W10874  16.740   8.244   8.514
10010W        W10875  16.945   9.654   9.636
10011W        W10876  15.099  10.259  10.071
10012W        W10877  15.690  10.242  10.794
10013W        W10878  15.541   8.039   7.808
10014W        W10879  17.058   8.181   8.133
10015W        W10880  17.016  10.289  10.370
10016W        W10881  15.701   8.881   8.969
10017W        W10882  15.356  10.579   9.834
10018W        W10883  18.101  10.696   7.435
10019W        W10884  14.964   9.368  10.431
10020W        W10885  16.959   9.630   9.119
10021W        W10886  15.395   9.279   8.361
10022W        W10887  15.766  10.286   9.756
10023W        W10888  16.144   7.705   8.797
10024W        W10889  14.755   9.689   7.727
10025W        W10890  16.274   8.640   7.597
10026W        W10891  14.920   9.189   8.616
10027W        W10892  16.210   7.831  10.080
10028W        W10893  17.882   7.540   7.507
10029W        W10894  17.975   9.286  10.606
10030W        W10895  16.629  10.543  10.758
10031W        W10896  18.187   9.637  10.280
10032W        W10897  17.595  10.435  10.891
10033W        W10898  15.334  10.891   9.369
10034W        W10899  18.193   9.513   8.243
10035W        W10900  16.723   8.780   8.756
10036W        W10901  16.490   7.392   8.646
10037W        W10902  15.549  10.376   8.483
10038W        W10903  16.048   8.117   9.708
10039W        W10904  15.748   7.486   9.177
10040W        W10905  14.811  10.308   7.725
10041W        W10906  16.627   9.672   8.443
10042W        W10907  15.502  10.467  10.322
10043W        W10908  14.979   9.290   8.018
10044W        W10909  14.864   7.833   9.017
10045W        W10910  16.412   9.798   9.074
10046W        W10911  14.664   7.652   8.094
10047W        W10912  17.328   8.858  10.021
10048W        W10913  17.205   8.244   7.593
10049W        W10914  17.722   9.916   9.241
10050W        W10915  16.383  10.400   9.072
10051W        W10916  15.795  10.504   7.983
10052W        W10917  17.077   7.407   7.413
10053W        W10918  14.877  10.667   9.154
10054W        W10919  17.074   8.425  10.789
10055W        W10920  15.057   7.955  10.788
10056W        W10921  14.788   8.555   8.121
10057W        W10922  15.479   8.544   7.846
10058W        W10923  17.242   8.871  10.663
10059W        W10924  15.585   9.152   9.372
10060W        W10925  17.059   7.438   8.492
10061W        W10926  16.190  10.869   8.995
10062W        W10927  17.404  10.331   9.932
10063W        W10928  16.988  10.480   9.043
10064W        W10929  17.007   9.460   8.637
10065W        W10930  16.469   7.685   7.708
10066W        W10931  18.150   7.313   8.430
10067W        W10932  15.838   8.948   7.593
10068W        W10933  18.004   8.285   8.583
10069W        W10934  16.696   9.455   7.460
10070W        W10935  17.632   9.655  10.208
10071W        W10936  17.286  10.356   7.675
10072W        W10937  15.901   8.031  10.581
10073W        W10938  15.721   8.615   9.822
10074W        W10939  17.813  10.110  10.099
10075W        W10940  16.913   8.060  10.476
10076W        W10941  14.757   8.531  10.253
10077W        W10942  16.517   9.008   9.979
10078W        W10943  14.874   9.766   8.636
10079W        W10944  15.021   9.063   9.526
10080W        W10945  17.338   9.349   9.876
10081W        W10946  17.110  10.729  10.687
10082W        W10947  17.006   8.468  10.240
10083W        W10948  17.283  10.522   8.645
10084W        W10949  16.285  10.242   9.968
10085W        W10950  15.770  10.597   9.237
10086W        W10951  17.575   9.768   9.656
10087W        W10952  16.625   9.840  10.793
10088W        W10953  15.230   9.793   9.132
10089W        W10954  17.576   9.552   8.777
10090W        W10955  17.217  10.618   9.528
10091W        W10956  15.195  10.347   9.398
10092W        W10957  16.216   8.399  10.608
10093W        W10958  16.667  10.565   8.119
10094W        W10959  15.975   9.820  10.757
10095W        W10960  16.101  10.058   8.134
10096W        W10961  15.322   8.798   7.393
10097W        W10962  14.661  10.884  14.292
10098W        W10963  15.037   9.777  13.815
10099W        W10964  17.742   9.507  11.585
10100W        W10965  17.872  10.592  13.612
10101W        W10966  15.790  10.583  11.138
10102W        W10967  15.873   8.735  12.121
10103W        W10968  15.388   8.583  12.285
10104W        W10969  16.379   9.398  11.719
10105W        W10970  16.054  10.490  14.074
10106W        W10971  14.703   8.051  14.037
10107W        W10972  15.465   7.331  13.839
10108W        W10973  17.159   7.719  12.726
10109W        W10974  16.808   8.590  11.296
10110W        W10975  17.378   8.024  14.387
10111W        W10976  14.744   7.816  13.512
10112W        W10977  14.843  10.435  14.533
10113W        W10978  16.365   9.825  11.265
10114W        W10979  14.797   8.608  12.958
10115W        W10980  15.690   8.499  14.195
10116W        W10981  18.149   8.358  12.694
10117W        W10982  17.913   9.401  13.553
10118W        W10983  16.221   8.734  12.580
10119W        W10984  16.767  10.073  12.949
10120W        W10985  15.267   9.507  13.181
10121W        W10986  14.626   9.035  12.752
10122W        W10987  15.662   9.007  13.944
10123W        W10988  17.933   8.790  14.198
10124W        W10989  15.549  10.234  12.643
10125W        W10990  16.670   9.923  13.777
10126W        W10991  15.890   8.563  13.002
10127W        W10992  16.182   9.347  12.645
10128W        W10993  17.179  10.120  14.493
10129W        W10994  16.258   9.440  14.503
10130W        W10995  16.239   9.156  13.981
10131W        W10996  14.648   8.547  14.503
10132W        W10997  17.480  10.082  14.102
10133W        W10998  15.061   7.664  12.100
10134W        W10999  15.588   9.922  13.099
10135W        W11000  18.051   9.705  12.389
10136W        W11001  17.464   8.105  12.956
10137W        W11002  17.749   8.058  11.051
10138W        W11003  18.214   8.859  13.357
10139W        W11004  16.181  10.566  13.110
10140W        W11005  17.955  10.032  11.548
10141W        W11006  15.084  10.818  11.302
10142W        W11007  15.477  10.864  11.978
10143W        W11008  15.274   7.618  13.404
10144W        W11009  17.897   8.636  13.679
10145W        W11010  17.302   9.058  12.138
10146W        W11011  17.268   8.746  11.165
10147W        W11012  16.476   9.890  13.305
10148W        W11013  16.282   8.220  12.504
10149W        W11014  16.882  10.307  13.498
10150W        W11015  17.753   9.098  11.920
10151W        W11016  16.655   7.756  11.936
10152W        W11017  15.312  10.450  11.619
10153W        W11018  14.683   7.949  12.218
10154W        W11019  17.469   8.556  12.692
10155W        W11020  14.927  10.173  12.607
10156W        W11021  16.268  10.523  11.477
10157W        W11022  17.660   8.549  10.941
10158W        W11023  14.683  10.307  13.105
10159W        W11024  15.474   9.879  13.585
10160W        W11025  15.847   9.239  12.204
10161W        W11026  15.869   7.644  13.297
10162W        W11027  18.098   7.406  12.594
10163W        W11028  15.317   9.278  11.062
10164W        W11029  14.972   8.311  11.241
10165W        W11030  15.034  10.267  12.035
10166W        W11031  16.165   9.750  12.283
10167W        W11032  17.497  10.609  13.997
10168W        W11033  16.423   8.251  11.681
10169W        W11034  17.806  10.649  12.453
10170W        W11035  17.483   8.502  14.051
10171W        W11036  18.196  10.158  12.185
10172W        W11037  16.823   9.450  13.669
10173W        W11038  14.589   9.001  11.875
10174W        W11039  15.700   9.416  13.448
10175W        W11040  16.904   8.680  11.826
10176W        W11041  16.781   9.170  11.930
10177W        W11042  15.124   8.590  13.404
10178W        W11043  15.109   8.466  14.326
10179W        W11044  14.999   7.383  12.485
10180W        W11045  16.767   7.730  13.046
10181W        W11046  16.415   7.915  14.209
10182W        W11047  16.770   8.064  11.387
10183W        W11048  17.953  10.457  14.141
10184W        W11049  16.920   7.538  14.180
10185W        W11050  17.939   9.839  14.302
10186W        W11051  17.369   8.006  13.898
10187W        W11052  17.169   7.944  12.168
10188W        W11053  17.562   9.078  14.572
10189W        W11054  15.302  10.654  12.558
10190W        W11055  15.960   8.371  11.544
10191W        W11056  15.529   7.655  14.208
10192W        W11057  17.581   8.139  11.889
10193W        W11058  17.948   8.621  11.834
10194W        W11059  15.691  10.838  14.305
10195W        W11060  15.617   7.374  11.540
10196W        W11061  17.938   7.908  12.575
10197W        W11062  18.088  10.157  11.020
10198W        W11063  14.995   9.360  12.722
10199W        W11064  16.912   7.947  10.952
10200W        W11065  18.046  10.279  12.672
10201W        W11066  18.085   7.473  13.422
10202W        W11067  16.530   8.685  13.976
10203W        W11068  16.623  10.024  11.679
10204W        W11069  17.023   9.318  14.419
10205W        W11070  16.697   7.295  12.728
10206W        W11071  15.309   8.198  12.791
10207W        W11072  14.863   9.398  13.565
10208W        W11073  16.722  10.591  12.271
10209W        W11074  17.916   8.188  13.143
10210W        W11075  16.553  10.535  13.910
10211W        W11076  17.896   9.594  11.115
10212W        W11077  16.331   9.077  12.176
10213W        W11078  18.183   7.588  13.917
10214W        W11079  16.332   9.423  13.511
10215W        W11080  16.549   8.309  12.956
10216W        W11081  17.401   8.607  11.794
10217W        W11082  17.688   8.340  11.436
10218W        W11083  17.497  10.380  11.825
10219W        W11084  17.331   9.983  12.621
10220W        W11085  17.227   9.062  11.599
10221W        W11086  16.660   9.272  12.585
10222W        W11087  17.541   9.060  12.652
10223W        W11088  14.916   8.075  13.076
10224W        W11089  17.694   9.127  13.903
10225W        W11090  18.045  10.745  13.049
10226W        W11091  15.975  10.189  12.451
10227W        W11092  16.982  10.722  13.775
10228W        W11093  16.976   8.052  13.539
10229W        W11094  16.183  10.760  13.600
10230W        W11095  17.880   7.714  12.066
10231W        W11096  17.671   9.033  13.367
10232W        W11097  14.654   8.354  13.405
10233W        W11098  17.514   8.149  12.423
10234W        W11099  17.925   8.300  14.200
10235W        W11100  16.810   9.999  12.418
10236W        W11101  16.066  10.590  12.031
10237W        W11102  15.181   7.770  11.289
10238W        W11103  16.285   7.424  13.099
10239W        W11104  15.313  10.544  10.947
10240W        W11105  15.687   9.010  11.698
10241W        W11106  16.341   9.639  14.011
10242W        W11107  16.171   7.997  12.001
10243W        W11108  17.527   7.594  12.429
10244W        W11109  17.247  10.876  12.757
10245W        W11110  16.659  10.524  13.097
10246W        W11111  16.055   9.561  13.058
10247W        W11112  17.825  10.284  13.184
10248W        W11113  15.519   7.787  11.953
10249W        W11114  16.041  10.084  12.913
10250W        W11115  15.524   8.015  10.978
10251W        W11116  16.325   8.624  13.372
10252W        W11117  17.173   7.490  13.242
10253W        W11118  14.593   9.333  13.127
10254W        W11119  16.297   9.151  11.285
10255W        W11120  15.565   7.466  11.055
10256W        W11121  16.303   8.547  12.106
10257W        W11122  17.273   7.523  13.805
10258W        W11123  15.861   9.535  13.914
10259W        W11124  16.665   9.317  14.131
10260W        W11125  17.282   9.347  14.024
10261W        W11126  16.566   7.487  14.529
10262W        W11127  15.788   8.103  12.922
10263W        W11128  15.214   8.059  12.320
10264W        W11129  15.000  10.771  11.996
10265W        W11130  16.332  10.101  14.121
10266W        W11131  15.367   9.586  11.480
10267W        W11132  17.047   8.971  12.701
10268W        W11133  17.327   8.770  13.100
10269W        W11134  16.532   9.444  13.034
10270W        W11135  17.002   9.818  11.166
10271W        W11136  16.674   7.839  12.494
10272W        W11137  18.153   8.117  11.762
10273W        W11138  14.647  10.706  13.793
10274W        W11139  15.064   9.932  13.325
10275W        W11140  14.631  10.778  11.557
10276W        W11141  16.530   8.048  13.363
10277W        W11142  15.893  10.071  11.212
10278W        W11143  17.798  10.453  11.398
10279W        W11144  16.773   9.106  11.412
10280W        W11145  15.616   8.297  11.929
10281W        W11146  16.448   8.207  10.981
10282W        W11147  17.032   9.772  14.159
10283W        W11148  17.385   7.678  11.776
10284W        W11149  14.715   7.526  11.224
10285W        W11150  16.001   9.845  13.514
10286W        W11151  15.800   9.761  12.606
10287W        W11152  15.542   9.713  11.004
10288W        W11153  14.783   9.954  11.772
10289W        W11154  15.287   9.024  14.214
10290W        W11155  15.991   7.584  14.400
10291W        W11156  16.700   7.726  13.756
10292W        W11157  15.895   7.494  12.037
10293W        W11158  16.954   7.571  11.542
10294W        W11159  14.899   7.503  13.119
10295W        W11160  14.947   8.466  12.489
10296W        W11161  17.636   7.574  12.895
10297W        W11162  15.058   8.072  11.709
10298W        W11163  17.629   7.760  13.325
10299W        W11164  18.025   8.963  11.010
10300W        W11165  15.317   7.721  12.829
10301W        W11166  16.431   8.293  13.769
10302W        W11167  14.579   7.983  11.247
10303W        W11168  15.365   9.372  13.808
10304W        W11169  16.723   8.770  12.987
10305W        W11170  16.590  10.849  11.283
10306W        W11171  14.736   9.356  10.980
10307W        W11172  15.471   9.767  14.106
10308W        W11173  14.992   8.934  13.737
10309W        W11174  15.983   9.039  13.531
10310W        W11175  17.751   7.398  13.793
10311W        W11176  18.149   9.008  13.784
10312W        W11177  18.137   9.208  11.470
10313W        W11178  17.000   9.540  11.569
10314W        W11179  17.474  10.840  11.264
10315W        W11180  16.651   8.830  14.406
10316W        W11181  14.981   9.797  14.446
10317W        W11182  18.187   7.719  14.398
10318W        W11183  17.905   8.647  13.019
10319W        W11184  16.213  10.777  14.496
10320W        W11185  16.068   7.406  11.223
10321W        W11186  17.607  10.005  11.166
10322W        W11187  15.376   8.098  14.052
10323W        W11188  15.810  10.092  13.914
10324W        W11189  17.936   8.083  13.712
10325W        W11190  17.147  10.742  11.680
10326W        W11191  17.386   9.361  13.047
10327W        W11192  15.636   7.777  13.714
10328W        W11193  16.105   8.846  14.471
10329W        W11194  15.608  10.025  11.665
10330W        W11195  17.363   9.523  11.929
10331W        W11196  15.131   8.149  13.653
10332W        W11197  16.460  10.211  12.117
10333W        W11198  18.210   8.771  12.298
10334W        W11199  16.432   7.404  14.017
10335W        W11200  17.212  10.109  13.096
10336W        W11201  17.515  10.453  12.804
10337W        W11202  16.734  10.255  11.232
10338W        W11203  14.744  10.147  14.074
10339W        W11204  15.487   8.139  13.312
10340W        W11205  15.457   7.487  12.422
10341W        W11206  17.078   8.329  13.114
10342W        W11207  15.876   9.500  11.314
10343W        W11208  17.874   9.442  12.813
10344W        W11209  15.201  10.200  14.236
10345W        W11210  17.588  10.882  12.033
10346W        W11211  15.687   7.902  12.478
10347W        W11212  15.456   9.395  12.568
10348W        W11213  15.769  10.806  13.318
10349W        W11214  17.836  10.902  14.350
10350W        W11215  16.995   9.090  13.283
10351W        W11216  14.844   8.888  11.198
10352W        W11217  17.978  10.546  11.895
10353W        W11218  17.815   7.870  11.514
10354W        W11219  15.954   7.389  13.917
10355W        W11220  17.660  10.191  12.375
10356W        W11221  17.689   8.747  12.280
10357W        W11222  15.806   8.420  12.496
10358W        W11223  16.051   8.682  13.820
10359W        W11224  17.162   9.835  13.683
10360W        W11225  15.812   8.289  13.795
10361W        W11226  15.791  10.755  12.411
10362W        W11227  15.108  10.714  14.045
10363W        W11228  15.220  10.075  11.175
10364W        W11229  17.737   9.833  11.985
10365W        W11230  15.341   8.625  13.871
10366W        W11231  18.114   8.555  11.352
10367W        W11232  15.859   9.612  11.823
10368W        W11233  16.958   8.994  13.904
10369W        W11234  16.849   8.622  13.448
10370W        W11235  15.409   8.994  13.477
10371W        W11236  17.619  10.882  13.306
10372W        W11237  17.410   7.516  14.300
10373W        W11238  15.074   7.666  13.887
10374W        W11239  15.413   8.689  12.940
10375W        W11240  15.782   8.503  11.062
10376W        W11241  14.585  10.262  13.607
10377W        W11242  16.170   8.971  13.050
10378W        W11243  15.993   7.996  11.155
10379W        W11244  15.128   8.812  11.936
10380W        W11245  14.899  10.664  13.373
10381W        W11246  17.694   8.890  11.481
10382W        W11247  17.789   7.806  14.167
10383W        W11248  17.225  10.015  12.130
10384W        W11249  14.823   8.939  14.307
10385W        W11250  17.789   7.403  11.603
10386W        W11251  17.309   9.878  11.614
10387W        W11252  16.211   8.936  11.699
10388W        W11253  17.398   7.740  11.222
10389W        W11254  17.463   8.347  13.408
10390W        W11255  15.172   8.940  12.615
10391W        W11256  15.466   9.879  12.264
10392W        W11257  17.229   8.499  12.229
10393W        W11258  16.252   7.878  12.925
10394W        W11259  18.214   9.789  13.436
10395W        W11260  18.132   7.776  12.997
10396W        W11261  14.671  10.606  12.373
10397W        W11262  15.180   9.793  11.909
10398W        W11263  15.095   7.410  14.462
10399W        W11264  16.214  10.263  14.564
10400W        W11265  17.969   9.231  12.354
10401W        W11266  17.323   9.408  11.234
10402W        W11267  16.618  10.929  13.446
10403W        W11268  17.475   9.651  14.483
10404W        W11269  16.290   7.361  11.763
10405W        W11270  17.003   8.230  12.622
10406W        W11271  14.689   9.817  12.954
10407W        W11272  15.942   7.779  11.595
10408W        W11273  15.746   9.263  14.444
10409W        W11274  16.740   8.244  12.158
10410W        W11275  16.945   9.654  13.280
10411W        W11276  15.099  10.259  13.715
10412W        W11277  15.690  10.242  14.438
10413W        W11278  15.541   8.039  11.452
10414W        W11279  17.058   8.181  11.777
10415W        W11280  17.016  10.289  14.014
10416W        W11281  15.701   8.881  12.613
10417W        W11282  15.356  10.579  13.478
10418W        W11283  18.101  10.696  11.079
10419W        W11284  14.964   9.368  14.075
10420W        W11285  16.959   9.630  12.763
10421W        W11286  15.395   9.279  12.005
10422W        W11287  15.766  10.286  13.400
10423W        W11288  16.144   7.705  12.441
10424W        W11289  14.755   9.689  11.371
10425W        W11290  16.274   8.640  11.241
10426W        W11291  14.920   9.189  12.260
10427W        W11292  16.210   7.831  13.724
10428W        W11293  17.882   7.540  11.151
10429W        W11294  17.975   9.286  14.250
10430W        W11295  16.629  10.543  14.402
10431W        W11296  18.187   9.637  13.924
10432W        W11297  17.595  10.435  14.535
10433W        W11298  15.334  10.891  13.013
10434W        W11299  18.193   9.513  11.887
10435W        W11300  16.723   8.780  12.400
10436W        W11301  16.490   7.392  12.290
10437W        W11302  15.549  10.376  12.127
10438W        W11303  16.048   8.117  13.352
10439W        W11304  15.748   7.486  12.821
10440W        W11305  14.811  10.308  11.369
10441W        W11306  16.627   9.672  12.087
10442W        W11307  15.502  10.467  13.966
10443W        W11308  14.979   9.290  11.662
10444W        W11309  14.864   7.833  12.661
10445W        W11310  16.412   9.798  12.718
10446W        W11311  14.664   7.652  11.738
10447W        W11312  17.328   8.858  13.665
10448W        W11313  17.205   8.244  11.237
10449W        W11314  17.722   9.916  12.885
10450W        W11315  16.383  10.400  12.716
10451W        W11316  15.795  10.504  11.627
10452W        W11317  17.077   7.407  11.057
10453W        W11318  14.877  10.667  12.798
10454W        W11319  17.074   8.425  14.433
10455W        W11320  15.057   7.955  14.432
10456W        W11321  14.788   8.555  11.765
10457W        W11322  15.479   8.544  11.490
10458W        W11323  17.242   8.871  14.307
10459W        W11324  15.585   9.152  13.016
10460W        W11325  17.059   7.438  12.136
10461W        W11326  16.190  10.869  12.639
10462W        W11327  17.404  10.331  13.576
10463W        W11328  16.988  10.480  12.687
10464W        W11329  17.007   9.460  12.281
10465W        W11330  16.469   7.685  11.352
10466W        W11331  18.150   7.313  12.074
10467W        W11332  15.838   8.948  11.237
10468W        W11333  18.004   8.285  12.227
10469W        W11334  16.696   9.455  11.104
10470W        W11335  17.632   9.655  13.852
10471W        W11336  17.286  10.356  11.319
10472W        W11337  15.901   8.031  14.225
10473W        W11338  15.721   8.615  13.466
10474W        W11339  17.813  10.110  13.743
10475W        W11340  16.913   8.060  14.120
10476W        W11341  14.757   8.531  13.897
10477W        W11342  16.517   9.008  13.623
10478W        W11343  14.874   9.766  12.280
10479W        W11344  15.021   9.063  13.170
10480W        W11345  17.338   9.349  13.520
10481W        W11346  17.110  10.729  14.331
10482W        W11347  17.006   8.468  13.884
10483W        W11348  17.283  10.522  12.289
10484W        W11349  16.285  10.242  13.612
10485W        W11350  15.770  10.597  12.881
10486W        W11351  17.575   9.768  13.300
10487W        W11352  16.625   9.840  14.437
10488W        W11353  15.230   9.793  12.776
10489W        W11354  17.576   9.552  12.421
10490W        W11355  17.217  10.618  13.172
10491W        W11356  15.195  10.347  13.042
10492W        W11357  16.216   8.399  14.252
10493W        W11358  16.667  10.565  11.763
10494W        W11359  15.975   9.820  14.401
10495W        W11360  16.101  10.058  11.778
10496W        W11361  15.322   8.798  11.037
10497W        W11362  14.661  10.884  17.936
10498W        W11363  15.037   9.777  17.459
10499W        W11364  17.742   9.507  15.229
10500W        W11365  17.872  10.592  17.256
10501W        W11366  15.790  10.583  14.782
10502W        W11367  15.873   8.735  15.765
10503W        W11368  15.388   8.583  15.929
10504W        W11369  16.379   9.398  15.363
10505W        W11370  16.054  10.490  17.718
10506W        W11371  14.703   8.051  17.681
10507W        W11372  15.465   7.331  17.483
10508W        W11373  17.159   7.719  16.370
10509W        W11374  16.808   8.590  14.940
10510W        W11375  17.378   8.024  18.031
10511W        W11376  14.744   7.816  17.156
10512W        W11377  14.843  10.435  18.177
10513W        W11378  16.365   9.825  14.909
10514W        W11379  14.797   8.608  16.602
10515W        W11380  15.690   8.499  17.839
10516W        W11381  18.149   8.358  16.338
10517W        W11382  17.913   9.401  17.197
10518W        W11383  16.221   8.734  16.224
10519W        W11384  16.767  10.073  16.593
10520W        W11385  15.267   9.507  16.825
10521W        W11386  14.626   9.035  16.396
10522W        W11387  15.662   9.007  17.588
10523W        W11388  17.933   8.790  17.842
10524W        W11389  15.549  10.234  16.287
10525W        W11390  16.670   9.923  17.421
10526W        W11391  15.890   8.563  16.646
10527W        W11392  16.182   9.347  16.289
10528W        W11393  17.179  10.120  18.137
10529W        W11394  16.258   9.440  18.147
10530W        W11395  16.239   9.156  17.625
10531W        W11396  14.648   8.547  18.147
10532W        W11397  17.480  10.082  17.746
10533W        W11398  15.061   7.664  15.744
10534W        W11399  15.588   9.922  16.743
10535W        W11400  18.051   9.705  16.033
10536W        W11401  17.464   8.105  16.600
10537W        W11402  17.749   8.058  14.695
10538W        W11403  18.214   8.859  17.001
10539W        W11404  16.181  10.566  16.754
10540W        W11405  17.955  10.032  15.192
10541W        W11406  15.084  10.818  14.946
10542W        W11407  15.477  10.864  15.622
10543W        W11408  15.274   7.618  17.048
10544W        W11409  17.897   8.636  17.323
10545W        W11410  17.302   9.058  15.782
10546W        W11411  17.268   8.746  14.809
10547W        W11412  16.476   9.890  16.949
10548W        W11413  16.282   8.220  16.148
10549W        W11414  16.882  10.307  17.142
10550W        W11415  17.753   9.098  15.564
10551W        W11416  16.655   7.756  15.580
10552W        W11417  15.312  10.450  15.263
10553W        W11418  14.683   7.949  15.862
10554W        W11419  17.469   8.556  16.336
10555W        W11420  14.927  10.173  16.251
10556W        W11421  16.268  10.523  15.121
10557W        W11422  17.660   8.549  14.585
10558W        W11423  14.683  10.307  16.749
10559W        W11424  15.474   9.879  17.229
10560W        W11425  15.847   9.239  15.848
10561W        W11426  15.869   7.644  16.941
10562W        W11427  18.098   7.406  16.238
10563W        W11428  15.317   9.278  14.706
10564W        W11429  14.972   8.311  14.885
10565W        W11430  15.034  10.267  15.679
10566W        W11431  16.165   9.750  15.927
10567W        W11432  17.497  10.609  17.641
10568W        W11433  16.423   8.251  15.325
10569W        W11434  17.806  10.649  16.097
10570W        W11435  17.483   8.502  17.695
10571W        W11436  18.196  10.158  15.829
10572W        W11437  16.823   9.450  17.313
10573W        W11438  14.589   9.001  15.519
10574W        W11439  15.700   9.416  17.092
10575W        W11440  16.904   8.680  15.470
10576W        W11441  16.781   9.170  15.574
10577W        W11442  15.124   8.590  17.048
10578W        W11443  15.109   8.466  17.970
10579W        W11444  14.999   7.383  16.129
10580W        W11445  16.767   7.730  16.690
10581W        W11446  16.415   7.915  17.853
10582W        W11447  16.770   8.064  15.031
10583W        W11448  17.953  10.457  17.785
10584W        W11449  16.920   7.538  17.824
10585W        W11450  17.939   9.839  17.946
10586W        W11451  17.369   8.006  17.542
10587W        W11452  17.169   7.944  15.812
10588W        W11453  17.562   9.078  18.216
10589W        W11454  15.302  10.654  16.202
10590W        W11455  15.960   8.371  15.188
10591W        W11456  15.529   7.655  17.852
10592W        W11457  17.581   8.139  15.533
10593W        W11458  17.948   8.621  15.478
10594W        W11459  15.691  10.838  17.949
10595W        W11460  15.617   7.374  15.184
10596W        W11461  17.938   7.908  16.219
10597W        W11462  18.088  10.157  14.664
10598W        W11463  14.995   9.360  16.366
10599W        W11464  16.912   7.947  14.596
10600W        W11465  18.046  10.279  16.316
10601W        W11466  18.085   7.473  17.066
10602W        W11467  16.530   8.685  17.620
10603W        W11468  16.623  10.024  15.323
10604W        W11469  17.023   9.318  18.063
10605W        W11470  16.697   7.295  16.372
10606W        W11471  15.309   8.198  16.435
10607W        W11472  14.863   9.398  17.209
10608W        W11473  16.722  10.591  15.915
10609W        W11474  17.916   8.188  16.787
10610W        W11475  16.553  10.535  17.554
10611W        W11476  17.896   9.594  14.759
10612W        W11477  16.331   9.077  15.820
10613W        W11478  18.183   7.588  17.561
10614W        W11479  16.332   9.423  17.155
10615W        W11480  16.549   8.309  16.600
10616W        W11481  17.401   8.607  15.438
10617W        W11482  17.688   8.340  15.080
10618W        W11483  17.497  10.380  15.469
10619W        W11484  17.331   9.983  16.265
10620W        W11485  17.227   9.062  15.243
10621W        W11486  16.660   9.272  16.229
10622W        W11487  17.541   9.060  16.296
10623W        W11488  14.916   8.075  16.720
10624W        W11489  17.694   9.127  17.547
10625W        W11490  18.045  10.745  16.693
10626W        W11491  15.975  10.189  16.095
10627W        W11492  16.982  10.722  17.419
10628W        W11493  16.976   8.052  17.183
10629W        W11494  16.183  10.760  17.244
10630W        W11495  17.880   7.714  15.710
10631W        W11496  17.671   9.033  17.011
10632W        W11497  14.654   8.354  17.049
10633W        W11498  17.514   8.149  16.067
10634W        W11499  17.925   8.300  17.844
10635W        W11500  16.810   9.999  16.062
10636W        W11501  16.066  10.590  15.675
10637W        W11502  15.181   7.770  14.933
10638W        W11503  16.285   7.424  16.743
10639W        W11504  15.313  10.544  14.591
10640W        W11505  15.687   9.010  15.342
10641W        W11506  16.341   9.639  17.655
10642W        W11507  16.171   7.997  15.645
10643W        W11508  17.527   7.594  16.073
10644W        W11509  17.247  10.876  16.401
10645W        W11510  16.659  10.524  16.741
10646W        W11511  16.055   9.561  16.702
10647W        W11512  17.825  10.284  16.828
10648W        W11513  15.519   7.787  15.597
10649W        W11514  16.041  10.084  16.557
10650W        W11515  15.524   8.015  14.622
10651W        W11516  16.325   8.624  17.016
10652W        W11517  17.173   7.490  16.886
10653W        W11518  14.593   9.333  16.771
10654W        W11519  16.297   9.151  14.929
10655W        W11520  15.565   7.466  14.699
10656W        W11521  16.303   8.547  15.750
10657W        W11522  17.273   7.523  17.449
10658W        W11523  15.861   9.535  17.558
10659W        W11524  16.665   9.317  17.775
10660W        W11525  17.282   9.347  17.668
10661W        W11526  16.566   7.487  18.173
10662W        W11527  15.788   8.103  16.566
10663W        W11528  15.214   8.059  15.964
10664W        W11529  15.000  10.771  15.640
10665W        W11530  16.332  10.101  17.765
10666W        W11531  15.367   9.586  15.124
10667W        W11532  17.047   8.971  16.345
10668W        W11533  17.327   8.770  16.744
10669W        W11534  16.532   9.444  16.678
10670W        W11535  17.002   9.818  14.810
10671W        W11536  16.674   7.839  16.138
10672W        W11537  18.153   8.117  15.406
10673W        W11538  14.647  10.706  17.437
10674W        W11539  15.064   9.932  16.969
10675W        W11540  14.631  10.778  15.201
10676W        W11541  16.530   8.048  17.007
10677W        W11542  15.893  10.071  14.856
10678W        W11543  17.798  10.453  15.042
10679W        W11544  16.773   9.106  15.056
10680W        W11545  15.616   8.297  15.573
10681W        W11546  16.448   8.207  14.625
10682W        W11547  17.032   9.772  17.803
10683W        W11548  17.385   7.678  15.420
10684W        W11549  14.715   7.526  14.868
10685W        W11550  16.001   9.845  17.158
10686W        W11551  15.800   9.761  16.250
10687W        W11552  15.542   9.713  14.648
10688W        W11553  14.783   9.954  15.416
10689W        W11554  15.287   9.024  17.858
10690W        W11555  15.991   7.584  18.044
10691W        W11556  16.700   7.726  17.400
10692W        W11557  15.895   7.494  15.681
10693W        W11558  16.954   7.571  15.186
10694W        W11559  14.899   7.503  16.763
10695W        W11560  14.947   8.466  16.133
10696W        W11561  17.636   7.574  16.539
10697W        W11562  15.058   8.072  15.353
10698W        W11563  17.629   7.760  16.969
10699W        W11564  18.025   8.963  14.654
10700W        W11565  15.317   7.721  16.473
10701W        W11566  16.431   8.293  17.413
10702W        W11567  14.579   7.983  14.891
10703W        W11568  15.365   9.372  17.452
10704W        W11569  16.723   8.770  16.631
10705W        W11570  16.590  10.849  14.927
10706W        W11571  14.736   9.356  14.624
10707W        W11572  15.471   9.767  17.750
10708W        W11573  14.992   8.934  17.381
10709W        W11574  15.983   9.039  17.175
10710W        W11575  17.751   7.398  17.437
10711W        W11576  18.149   9.008  17.428
10712W        W11577  18.137   9.208  15.114
10713W        W11578  17.000   9.540  15.213
10714W        W11579  17.474  10.840  14.908
10715W        W11580  16.651   8.830  18.050
10716W        W11581  14.981   9.797  18.090
10717W        W11582  18.187   7.719  18.042
10718W        W11583  17.905   8.647  16.663
10719W        W11584  16.213  10.777  18.140
10720W        W11585  16.068   7.406  14.867
10721W        W11586  17.607  10.005  14.810
10722W        W11587  15.376   8.098  17.696
10723W        W11588  15.810  10.092  17.558
10724W        W11589  17.936   8.083  17.356
10725W        W11590  17.147  10.742  15.324
10726W        W11591  17.386   9.361  16.691
10727W        W11592  15.636   7.777  17.358
10728W        W11593  16.105   8.846  18.115
10729W        W11594  15.608  10.025  15.309
10730W        W11595  17.363   9.523  15.573
10731W        W11596  15.131   8.149  17.297
10732W        W11597  16.460  10.211  15.761
10733W        W11598  18.210   8.771  15.942
10734W        W11599  16.432   7.404  17.661
10735W        W11600  17.212  10.109  16.740
10736W        W11601  17.515  10.453  16.448
10737W        W11602  16.734  10.255  14.876
10738W        W11603  14.744  10.147  17.718
10739W        W11604  15.487   8.139  16.956
10740W        W11605  15.457   7.487  16.066
10741W        W11606  17.078   8.329  16.758
10742W        W11607  15.876   9.500  14.958
10743W        W11608  17.874   9.442  16.457
10744W        W11609  15.201  10.200  17.880
10745W        W11610  17.588  10.882  15.677
10746W        W11611  15.687   7.902  16.122
10747W        W11612  15.456   9.395  16.212
10748W        W11613  15.769  10.806  16.962
10749W        W11614  17.836  10.902  17.994
10750W        W11615  16.995   9.090  16.927
10751W        W11616  14.844   8.888  14.842
10752W        W11617  17.978  10.546  15.539
10753W        W11618  17.815   7.870  15.158
10754W        W11619  15.954   7.389  17.561
10755W        W11620  17.660  10.191  16.019
10756W        W11621  17.689   8.747  15.924
10757W        W11622  15.806   8.420  16.140
10758W        W11623  16.051   8.682  17.464
10759W        W11624  17.162   9.835  17.327
10760W        W11625  15.812   8.289  17.439
10761W        W11626  15.791  10.755  16.055
10762W        W11627  15.108  10.714  17.689
10763W        W11628  15.220  10.075  14.819
10764W        W11629  17.737   9.833  15.629
10765W        W11630  15.341   8.625  17.515
10766W        W11631  18.114   8.555  14.996
10767W        W11632  15.859   9.612  15.467
10768W        W11633  16.958   8.994  17.548
10769W        W11634  16.849   8.622  17.092
10770W        W11635  15.409   8.994  17.121
10771W        W11636  17.619  10.882  16.950
10772W        W11637  17.410   7.516  17.944
10773W        W11638  15.074   7.666  17.531
10774W        W11639  15.413   8.689  16.584
10775W        W11640  15.782   8.503  14.706
10776W        W11641  14.585  10.262  17.251
10777W        W11642  16.170   8.971  16.694
10778W        W11643  15.993   7.996  14.799
10779W        W11644  15.128   8.812  15.580
10780W        W11645  14.899  10.664  17.017
10781W        W11646  17.694   8.890  15.125
10782W        W11647  17.789   7.806  17.811
10783W        W11648  17.225  10.015  15.774
10784W        W11649  14.823   8.939  17.951
10785W        W11650  17.789   7.403  15.247
10786W        W11651  17.309   9.878  15.258
10787W        W11652  16.211   8.936  15.343
10788W        W11653  17.398   7.740  14.866
10789W        W11654  17.463   8.347  17.052
10790W        W11655  15.172   8.940  16.259
10791W        W11656  15.466   9.879  15.908
10792W        W11657  17.229   8.499  15.873
10793W        W11658  16.252   7.878  16.569
10794W        W11659  18.214   9.789  17.080
10795W        W11660  18.132   7.776  16.641
10796W        W11661  14.671  10.606  16.017
10797W        W11662  15.180   9.793  15.553
10798W        W11663  15.095   7.410  18.106
10799W        W11664  16.214  10.263  18.208
10800W        W11665  17.969   9.231  15.998
10801W        W11666  17.323   9.408  14.878
10802W        W11667  16.618  10.929  17.090
10803W        W11668  17.475   9.651  18.127
10804W        W11669  16.290   7.361  15.407
10805W        W11670  17.003   8.230  16.266
10806W        W11671  14.689   9.817  16.598
10807W        W11672  15.942   7.779  15.239
10808W        W11673  15.746   9.263  18.088
10809W        W11674  16.740   8.244  15.802
10810W        W11675  16.945   9.654  16.924
10811W        W11676  15.099  10.259  17.359
10812W        W11677  15.690  10.242  18.082
10813W        W11678  15.541   8.039  15.096
10814W        W11679  17.058   8.181  15.421
10815W        W11680  17.016  10.289  17.658
10816W        W11681  15.701   8.881  16.257
10817W        W11682  15.356  10.579  17.122
10818W        W11683  18.101  10.696  14.723
10819W        W11684  14.964   9.368  17.719
10820W        W11685  16.959   9.630  16.407
10821W        W11686  15.395   9.279  15.649
10822W        W11687  15.766  10.286  17.044
10823W        W11688  16.144   7.705  16.085
10824W        W11689  14.755   9.689  15.015
10825W        W11690  16.274   8.640  14.885
10826W        W11691  14.920   9.189  15.904
10827W        W11692  16.210   7.831  17.368
10828W        W11693  17.882   7.540  14.795
10829W        W11694  17.975   9.286  17.894
10830W        W11695  16.629  10.543  18.046
10831W        W11696  18.187   9.637  17.568
10832W        W11697  17.595  10.435  18.179
10833W        W11698  15.334  10.891  16.657
10834W        W11699  18.193   9.513  15.531
10835W        W11700  16.723   8.780  16.044
10836W        W11701  16.490   7.392  15.934
10837W        W11702  15.549  10.376  15.771
10838W        W11703  16.048   8.117  16.996
10839W        W11704  15.748   7.486  16.465
10840W        W11705  14.811  10.308  15.013
10841W        W11706  16.627   9.672  15.731
10842W        W11707  15.502  10.467  17.610
10843W        W11708  14.979   9.290  15.306
10844W        W11709  14.864   7.833  16.305
10845W        W11710  16.412   9.798  16.362
10846W        W11711  14.664   7.652  15.382
10847W        W11712  17.328   8.858  17.309
10848W        W11713  17.205   8.244  14.881
10849W        W11714  17.722   9.916  16.529
10850W        W11715  16.383  10.400  16.360
10851W        W11716  15.795  10.504  15.271
10852W        W11717  17.077   7.407  14.701
10853W        W11718  14.877  10.667  16.442
10854W        W11719  17.074   8.425  18.077
10855W        W11720  15.057   7.955  18.076
10856W        W11721  14.788   8.555  15.409
10857W        W11722  15.479   8.544  15.134
10858W        W11723  17.242   8.871  17.951
10859W        W11724  15.585   9.152  16.660
10860W        W11725  17.059   7.438  15.780
10861W        W11726  16.190  10.869  16.283
10862W        W11727  17.404  10.331  17.220
10863W        W11728  16.988  10.480  16.331
10864W        W11729  17.007   9.460  15.925
10865W        W11730  16.469   7.685  14.996
10866W        W11731  18.150   7.313  15.718
10867W        W11732  15.838   8.948  14.881
10868W        W11733  18.004   8.285  15.871
10869W        W11734  16.696   9.455  14.748
10870W        W11735  17.632   9.655  17.496
10871W        W11736  17.286  10.356  14.963
10872W        W11737  15.901   8.031  17.869
10873W        W11738  15.721   8.615  17.110
10874W        W11739  17.813  10.110  17.387
10875W        W11740  16.913   8.060  17.764
10876W        W11741  14.757   8.531  17.541
10877W        W11742  16.517   9.008  17.267
10878W        W11743  14.874   9.766  15.924
10879W        W11744  15.021   9.063  16.814
10880W        W11745  17.338   9.349  17.164
10881W        W11746  17.110  10.729  17.975
10882W        W11747  17.006   8.468  17.528
10883W        W11748  17.283  10.522  15.933
10884W        W11749  16.285  10.242  17.256
10885W        W11750  15.770  10.597  16.525
10886W        W11751  17.575   9.768  16.944
10887W        W11752  16.625   9.840  18.081
10888W        W11753  15.230   9.793  16.420
10889W        W11754  17.576   9.552  16.065
10890W        W11755  17.217  10.618  16.816
10891W        W11756  15.195  10.347  16.686
10892W        W11757  16.216   8.399  17.896
10893W        W11758  16.667  10.565  15.407
10894W        W11759  15.975   9.820  18.045
10895W        W11760  16.101  10.058  15.422
10896W        W11761  15.322   8.798  14.681
10897W        W11762  14.661  10.884  21.580
10898W        W11763  15.037   9.777  21.103
10899W        W11764  17.742   9.507  18.873
10900W        W11765  17.872  10.592  20.900
10901W        W11766  15.790  10.583  18.426
10902W        W11767  15.873   8.735  19.409
10903W        W11768  15.388   8.583  19.573
10904W        W11769  16.379   9.398  19.007
10905W        W11770  16.054  10.490  21.362
10906W        W11771  14.703   8.051  21.325
10907W        W11772  15.465   7.331  21.127
10908W        W11773  17.159   7.719  20.014
10909W        W11774  16.808   8.590  18.584
10910W        W11775  17.378   8.024  21.675
10911W        W11776  14.744   7.816  20.800
10912W        W11777  14.843  10.435  21.821
10913W        W11778  16.365   9.825  18.553
10914W        W11779  14.797   8.608  20.246
10915W        W11780  15.690   8.499  21.483
10916W        W11781  18.149   8.358  19.982
10917W        W11782  17.913   9.401  20.841
10918W        W11783  16.221   8.734  19.868
10919W        W11784  16.767  10.073  20.237
10920W        W11785  15.267   9.507  20.469
10921W        W11786  14.626   9.035  20.040
10922W        W11787  15.662   9.007  21.232
10923W        W11788  17.933   8.790  21.486
10924W        W11789  15.549  10.234  19.931
10925W        W11790  16.670   9.923  21.065
10926W        W11791  15.890   8.563  20.290
10927W        W11792  16.182   9.347  19.933
10928W        W11793  17.179  10.120  21.781
10929W        W11794  16.258   9.440  21.791
10930W        W11795  16.239   9.156  21.269
10931W        W11796  14.648   8.547  21.791
10932W        W11797  17.480  10.082  21.390
10933W        W11798  15.061   7.664  19.388
10934W        W11799  15.588   9.922  20.387
10935W        W11800  18.051   9.705  19.677
10936W        W11801  17.464   8.105  20.244
10937W        W11802  17.749   8.058  18.339
10938W        W11803  18.214   8.859  20.645
10939W        W11804  16.181  10.566  20.398
10940W        W11805  17.955  10.032  18.836
10941W        W11806  15.084  10.818  18.590
10942W        W11807  15.477  10.864  19.266
10943W        W11808  15.274   7.618  20.692
10944W        W11809  17.897   8.636  20.967
10945W        W11810  17.302   9.058  19.426
10946W        W11811  17.268   8.746  18.453
10947W        W11812  16.476   9.890  20.593
10948W        W11813  16.282   8.220  19.792
10949W        W11814  16.882  10.307  20.786
10950W        W11815  17.753   9.098  19.208
10951W        W11816  16.655   7.756  19.224
10952W        W11817  15.312  10.450  18.907
10953W        W11818  14.683   7.949  19.506
10954W        W11819  17.469   8.556  19.980
10955W        W11820  14.927  10.173  19.895
10956W        W11821  16.268  10.523  18.765
10957W        W11822  17.660   8.549  18.229
10958W        W11823  14.683  10.307  20.393
10959W        W11824  15.474   9.879  20.873
10960W        W11825  15.847   9.239  19.492
10961W        W11826  15.869   7.644  20.585
10962W        W11827  18.098   7.406  19.882
10963W        W11828  15.317   9.278  18.350
10964W        W11829  14.972   8.311  18.529
10965W        W11830  15.034  10.267  19.323
10966W        W11831  16.165   9.750  19.571
10967W        W11832  17.497  10.609  21.285
10968W        W11833  16.423   8.251  18.969
10969W        W11834  17.806  10.649  19.741
10970W        W11835  17.483   8.502  21.339
10971W        W11836  18.196  10.158  19.473
10972W        W11837  16.823   9.450  20.957
10973W        W11838  14.589   9.001  19.163
10974W        W11839  15.700   9.416  20.736
10975W        W11840  16.904   8.680  19.114
10976W        W11841  16.781   9.170  19.218
10977W        W11842  15.124   8.590  20.692
10978W        W11843  15.109   8.466  21.614
10979W        W11844  14.999   7.383  19.773
10980W        W11845  16.767   7.730  20.334
10981W        W11846  16.415   7.915  21.497
10982W        W11847  16.770   8.064  18.675
10983W        W11848  17.953  10.457  21.429
10984W        W11849  16.920   7.538  21.468
10985W        W11850  17.939   9.839  21.590
10986W        W11851  17.369   8.006  21.186
10987W        W11852  17.169   7.944  19.456
10988W        W11853  17.562   9.078  21.860
10989W        W11854  15.302  10.654  19.846
10990W        W11855  15.960   8.371  18.832
10991W        W11856  15.529   7.655  21.496
10992W        W11857  17.581   8.139  19.177
10993W        W11858  17.948   8.621  19.122
10994W        W11859  15.691  10.838  21.593
10995W        W11860  15.617   7.374  18.828
10996W        W11861  17.938   7.908  19.863
10997W        W11862  18.088  10.157  18.308
10998W        W11863  14.995   9.360  20.010
10999W        W11864  16.912   7.947  18.240
11000W        W11865  18.046  10.279  19.960
11001W        W11866  18.085   7.473  20.710
11002W        W11867  16.530   8.685  21.264
11003W        W11868  16.623  10.024  18.967
11004W        W11869  17.023   9.318  21.707
11005W        W11870  16.697   7.295  20.016
11006W        W11871  15.309   8.198  20.079
11007W        W11872  14.863   9.398  20.853
11008W        W11873  16.722  10.591  19.559
11009W        W11874  17.916   8.188  20.431
11010W        W11875  16.553  10.535  21.198
11011W        W11876  17.896   9.594  18.403
11012W        W11877  16.331   9.077  19.464
11013W        W11878  18.183   7.588  21.205
11014W        W11879  16.332   9.423  20.799
11015W        W11880  16.549   8.309  20.244
11016W        W11881  17.401   8.607  19.082
11017W        W11882  17.688   8.340  18.724
11018W        W11883  17.497  10.380  19.113
11019W        W11884  17.331   9.983  19.909
11020W        W11885  17.227   9.062  18.887
11021W        W11886  16.660   9.272  19.873
11022W        W11887  17.541   9.060  19.940
11023W        W11888  14.916   8.075  20.364
11024W        W11889  17.694   9.127  21.191
11025W        W11890  18.045  10.745  20.337
11026W        W11891  15.975  10.189  19.739
11027W        W11892  16.982  10.722  21.063
11028W        W11893  16.976   8.052  20.827
11029W        W11894  16.183  10.760  20.888
11030W        W11895  17.880   7.714  19.354
11031W        W11896  17.671   9.033  20.655
11032W        W11897  14.654   8.354  20.693
11033W        W11898  17.514   8.149  19.711
11034W        W11899  17.925   8.300  21.488
11035W        W11900  16.810   9.999  19.706
11036W        W11901  16.066  10.590  19.319
11037W        W11902  15.181   7.770  18.577
11038W        W11903  16.285   7.424  20.387
11039W        W11904  15.313  10.544  18.235
11040W        W11905  15.687   9.010  18.986
11041W        W11906  16.341   9.639  21.299
11042W        W11907  16.171   7.997  19.289
11043W        W11908  17.527   7.594  19.717
11044W        W11909  17.247  10.876  20.045
11045W        W11910  16.659  10.524  20.385
11046W        W11911  16.055   9.561  20.346
11047W        W11912  17.825  10.284  20.472
11048W        W11913  15.519   7.787  19.241
11049W        W11914  16.041  10.084  20.201
11050W        W11915  15.524   8.015  18.266
11051W        W11916  16.325   8.624  20.660
11052W        W11917  17.173   7.490  20.530
11053W        W11918  14.593   9.333  20.415
11054W        W11919  16.297   9.151  18.573
11055W        W11920  15.565   7.466  18.343
11056W        W11921  16.303   8.547  19.394
11057W        W11922  17.273   7.523  21.093
11058W        W11923  15.861   9.535  21.202
11059W        W11924  16.665   9.317  21.419
11060W        W11925  17.282   9.347  21.312
11061W        W11926  16.566   7.487  21.817
11062W        W11927  15.788   8.103  20.210
11063W        W11928  15.214   8.059  19.608
11064W        W11929  15.000  10.771  19.284
11065W        W11930  16.332  10.101  21.409
11066W        W11931  15.367   9.586  18.768
11067W        W11932  17.047   8.971  19.989
11068W        W11933  17.327   8.770  20.388
11069W        W11934  16.532   9.444  20.322
11070W        W11935  17.002   9.818  18.454
11071W        W11936  16.674   7.839  19.782
11072W        W11937  18.153   8.117  19.050
11073W        W11938  14.647  10.706  21.081
11074W        W11939  15.064   9.932  20.613
11075W        W11940  14.631  10.778  18.845
11076W        W11941  16.530   8.048  20.651
11077W        W11942  15.893  10.071  18.500
11078W        W11943  17.798  10.453  18.686
11079W        W11944  16.773   9.106  18.700
11080W        W11945  15.616   8.297  19.217
11081W        W11946  16.448   8.207  18.269
11082W        W11947  17.032   9.772  21.447
11083W        W11948  17.385   7.678  19.064
11084W        W11949  14.715   7.526  18.512
11085W        W11950  16.001   9.845  20.802
11086W        W11951  15.800   9.761  19.894
11087W        W11952  15.542   9.713  18.292
11088W        W11953  14.783   9.954  19.060
11089W        W11954  15.287   9.024  21.502
11090W        W11955  15.991   7.584  21.688
11091W        W11956  16.700   7.726  21.044
11092W        W11957  15.895   7.494  19.325
11093W        W11958  16.954   7.571  18.830
11094W        W11959  14.899   7.503  20.407
11095W        W11960  14.947   8.466  19.777
11096W        W11961  17.636   7.574  20.183
11097W        W11962  15.058   8.072  18.997
11098W        W11963  17.629   7.760  20.613
11099W        W11964  18.025   8.963  18.298
11100W        W11965  15.317   7.721  20.117
11101W        W11966  16.431   8.293  21.057
11102W        W11967  14.579   7.983  18.535
11103W        W11968  15.365   9.372  21.096
11104W        W11969  16.723   8.770  20.275
11105W        W11970  16.590  10.849  18.571
11106W        W11971  14.736   9.356  18.268
11107W        W11972  15.471   9.767  21.394
11108W        W11973  14.992   8.934  21.025
11109W        W11974  15.983   9.039  20.819
11110W        W11975  17.751   7.398  21.081
11111W        W11976  18.149   9.008  21.072
11112W        W11977  18.137   9.208  18.758
11113W        W11978  17.000   9.540  18.857
11114W        W11979  17.474  10.840  18.552
11115W        W11980  16.651   8.830  21.694
11116W        W11981  14.981   9.797  21.734
11117W        W11982  18.187   7.719  21.686
11118W        W11983  17.905   8.647  20.307
11119W        W11984  16.213  10.777  21.784
11120W        W11985  16.068   7.406  18.511
11121W        W11986  17.607  10.005  18.454
11122W        W11987  15.376   8.098  21.340
11123W        W11988  15.810  10.092  21.202
11124W        W11989  17.936   8.083  21.000
11125W        W11990  17.147  10.742  18.968
11126W        W11991  17.386   9.361  20.335
11127W        W11992  15.636   7.777  21.002
11128W        W11993  16.105   8.846  21.759
11129W        W11994  15.608  10.025  18.953
11130W        W11995  17.363   9.523  19.217
11131W        W11996  15.131   8.149  20.941
11132W        W11997  16.460  10.211  19.405
11133W        W11998  18.210   8.771  19.586
11134W        W11999  16.432   7.404  21.305
11135W        W12000  17.212  10.109  20.384
11136W        W12001  17.515  10.453  20.092
11137W        W12002  16.734  10.255  18.520
11138W        W12003  14.744  10.147  21.362
11139W        W12004  15.487   8.139  20.600
11140W        W12005  15.457   7.487  19.710
11141W        W12006  17.078   8.329  20.402
11142W        W12007  15.876   9.500  18.602
11143W        W12008  17.874   9.442  20.101
11144W        W12009  15.201  10.200  21.524
11145W        W12010  17.588  10.882  19.321
11146W        W12011  15.687   7.902  19.766
11147W        W12012  15.456   9.395  19.856
11148W        W12013  15.769  10.806  20.606
11149W        W12014  17.836  10.902  21.638
11150W        W12015  16.995   9.090  20.571
11151W        W12016  14.844   8.888  18.486
11152W        W12017  17.978  10.546  19.183
11153W        W12018  17.815   7.870  18.802
11154W        W12019  15.954   7.389  21.205
11155W        W12020  17.660  10.191  19.663
11156W        W12021  17.689   8.747  19.568
11157W        W12022  15.806   8.420  19.784
11158W        W12023  16.051   8.682  21.108
11159W        W12024  17.162   9.835  20.971
11160W        W12025  15.812   8.289  21.083
11161W        W12026  15.791  10.755  19.699
11162W        W12027  15.108  10.714  21.333
11163W        W12028  15.220  10.075  18.463
11164W        W12029  17.737   9.833  19.273
11165W        W12030  15.341   8.625  21.159
11166W        W12031  18.114   8.555  18.640
11167W        W12032  15.859   9.612  19.111
11168W        W12033  16.958   8.994  21.192
11169W        W12034  16.849   8.622  20.736
11170W        W12035  15.409   8.994  20.765
11171W        W12036  17.619  10.882  20.594
11172W        W12037  17.410   7.516  21.588
11173W        W12038  15.074   7.666  21.175
11174W        W12039  15.413   8.689  20.228
11175W        W12040  15.782   8.503  18.350
11176W        W12041  14.585  10.262  20.895
11177W        W12042  16.170   8.971  20.338
11178W        W12043  15.993   7.996  18.443
11179W        W12044  15.128   8.812  19.224
11180W        W12045  14.899  10.664  20.661
11181W        W12046  17.694   8.890  18.769
11182W        W12047  17.789   7.806  21.455
11183W        W12048  17.225  10.015  19.418
11184W        W12049  14.823   8.939  21.595
11185W        W12050  17.789   7.403  18.891
11186W        W12051  17.309   9.878  18.902
11187W        W12052  16.211   8.936  18.987
11188W        W12053  17.398   7.740  18.510
11189W        W12054  17.463   8.347  20.696
11190W        W12055  15.172   8.940  19.903
11191W        W12056  15.466   9.879  19.552
11192W        W12057  17.229   8.499  19.517
11193W        W12058  16.252   7.878  20.213
11194W        W12059  18.214   9.789  20.724
11195W        W12060  18.132   7.776  20.285
11196W        W12061  14.671  10.606  19.661
11197W        W12062  15.180   9.793  19.197
11198W        W12063  15.095   7.410  21.750
11199W        W12064  16.214  10.263  21.852
11200W        W12065  17.969   9.231  19.642
11201W        W12066  17.323   9.408  18.522
11202W        W12067  16.618  10.929  20.734
11203W        W12068  17.475   9.651  21.771
11204W        W12069  16.290   7.361  19.051
11205W        W12070  17.003   8.230  19.910
11206W        W12071  14.689   9.817  20.242
11207W        W12072  15.942   7.779  18.883
11208W        W12073  15.746   9.263  21.732
11209W        W12074  16.740   8.244  19.446
11210W        W12075  16.945   9.654  20.568
11211W        W12076  15.099  10.259  21.003
11212W        W12077  15.690  10.242  21.726
11213W        W12078  15.541   8.039  18.740
11214W        W12079  17.058   8.181  19.065
11215W        W12080  17.016  10.289  21.302
11216W        W12081  15.701   8.881  19.901
11217W        W12082  15.356  10.579  20.766
11218W        W12083  18.101  10.696  18.367
11219W        W12084  14.964   9.368  21.363
11220W        W12085  16.959   9.630  20.051
11221W        W12086  15.395   9.279  19.293
11222W        W12087  15.766  10.286  20.688
11223W        W12088  16.144   7.705  19.729
11224W        W12089  14.755   9.689  18.659
11225W        W12090  16.274   8.640  18.529
11226W        W12091  14.920   9.189  19.548
11227W        W12092  16.210   7.831  21.012
11228W        W12093  17.882   7.540  18.439
11229W        W12094  17.975   9.286  21.538
11230W        W12095  16.629  10.543  21.690
11231W        W12096  18.187   9.637  21.212
11232W        W12097  17.595  10.435  21.823
11233W        W12098  15.334  10.891  20.301
11234W        W12099  18.193   9.513  19.175
11235W        W12100  16.723   8.780  19.688
11236W        W12101  16.490   7.392  19.578
11237W        W12102  15.549  10.376  19.415
11238W        W12103  16.048   8.117  20.640
11239W        W12104  15.748   7.486  20.109
11240W        W12105  14.811  10.308  18.657
11241W        W12106  16.627   9.672  19.375
11242W        W12107  15.502  10.467  21.254
11243W        W12108  14.979   9.290  18.950
11244W        W12109  14.864   7.833  19.949
11245W        W12110  16.412   9.798  20.006
11246W        W12111  14.664   7.652  19.026
11247W        W12112  17.328   8.858  20.953
11248W        W12113  17.205   8.244  18.525
11249W        W12114  17.722   9.916  20.173
11250W        W12115  16.383  10.400  20.004
11251W        W12116  15.795  10.504  18.915
11252W        W12117  17.077   7.407  18.345
11253W        W12118  14.877  10.667  20.086
11254W        W12119  17.074   8.425  21.721
11255W        W12120  15.057   7.955  21.720
11256W        W12121  14.788   8.555  19.053
11257W        W12122  15.479   8.544  18.778
11258W        W12123  17.242   8.871  21.595
11259W        W12124  15.585   9.152  20.304
11260W        W12125  17.059   7.438  19.424
11261W        W12126  16.190  10.869  19.927
11262W        W12127  17.404  10.331  20.864
11263W        W12128  16.988  10.480  19.975
11264W        W12129  17.007   9.460  19.569
11265W        W12130  16.469   7.685  18.640
11266W        W12131  18.150   7.313  19.362
11267W        W12132  15.838   8.948  18.525
11268W        W12133  18.004   8.285  19.515
11269W        W12134  16.696   9.455  18.392
11270W        W12135  17.632   9.655  21.140
11271W        W12136  17.286  10.356  18.607
11272W        W12137  15.901   8.031  21.513
11273W        W12138  15.721   8.615  20.754
11274W        W12139  17.813  10.110  21.031
11275W        W12140  16.913   8.060  21.408
11276W        W12141  14.757   8.531  21.185
11277W        W12142  16.517   9.008  20.911
11278W        W12143  14.874   9.766  19.568
11279W        W12144  15.021   9.063  20.458
11280W        W12145  17.338   9.349  20.808
11281W        W12146  17.110  10.729  21.619
11282W        W12147  17.006   8.468  21.172
11283W        W12148  17.283  10.522  19.577
11284W        W12149  16.285  10.242  20.900
11285W        W12150  15.770  10.597  20.169
11286W        W12151  17.575   9.768  20.588
11287W        W12152  16.625   9.840  21.725
11288W        W12153  15.230   9.793  20.064
11289W        W12154  17.576   9.552  19.709
11290W        W12155  17.217  10.618  20.460
11291W        W12156  15.195  10.347  20.330
11292W        W12157  16.216   8.399  21.540
11293W        W12158  16.667  10.565  19.051
11294W        W12159  15.975   9.820  21.689
11295W        W12160  16.101  10.058  19.066
11296W        W12161  15.322   8.798  18.325
11297W        W12162  14.661  10.884  25.225
11298W        W12163  15.037   9.777  24.748
11299W        W12164  17.742   9.507  22.518
11300W        W12165  17.872  10.592  24.545
11301W        W12166  15.790  10.583  22.071
11302W        W12167  15.873   8.735  23.054
11303W        W12168  15.388   8.583  23.218
11304W        W12169  16.379   9.398  22.652
11305W        W12170  16.054  10.490  25.007
11306W        W12171  14.703   8.051  24.970
11307W        W12172  15.465   7.331  24.772
11308W        W12173  17.159   7.719  23.659
11309W        W12174  16.808   8.590  22.229
11310W        W12175  17.378   8.024  25.320
11311W        W12176  14.744   7.816  24.445
11312W        W12177  14.843  10.435  25.466
11313W        W12178  16.365   9.825  22.198
11314W        W12179  14.797   8.608  23.891
11315W        W12180  15.690   8.499  25.128
11316W        W12181  18.149   8.358  23.627
11317W        W12182  17.913   9.401  24.486
11318W        W12183  16.221   8.734  23.513
11319W        W12184  16.767  10.073  23.882
11320W        W12185  15.267   9.507  24.114
11321W        W12186  14.626   9.035  23.685
11322W        W12187  15.662   9.007  24.877
11323W        W12188  17.933   8.790  25.131
11324W        W12189  15.549  10.234  23.576
11325W        W12190  16.670   9.923  24.710
11326W        W12191  15.890   8.563  23.935
11327W        W12192  16.182   9.347  23.578
11328W        W12193  17.179  10.120  25.426
11329W        W12194  16.258   9.440  25.436
11330W        W12195  16.239   9.156  24.914
11331W        W12196  14.648   8.547  25.436
11332W        W12197  17.480  10.082  25.035
11333W        W12198  15.061   7.664  23.033
11334W        W12199  15.588   9.922  24.032
11335W        W12200  18.051   9.705  23.322
11336W        W12201  17.464   8.105  23.889
11337W        W12202  17.749   8.058  21.984
11338W        W12203  18.214   8.859  24.290
11339W        W12204  16.181  10.566  24.043
11340W        W12205  17.955  10.032  22.481
11341W        W12206  15.084  10.818  22.235
11342W        W12207  15.477  10.864  22.911
11343W        W12208  15.274   7.618  24.337
11344W        W12209  17.897   8.636  24.612
11345W        W12210  17.302   9.058  23.071
11346W        W12211  17.268   8.746  22.098
11347W        W12212  16.476   9.890  24.238
11348W        W12213  16.282   8.220  23.437
11349W        W12214  16.882  10.307  24.431
11350W        W12215  17.753   9.098  22.853
11351W        W12216  16.655   7.756  22.869
11352W        W12217  15.312  10.450  22.552
11353W        W12218  14.683   7.949  23.151
11354W        W12219  17.469   8.556  23.625
11355W        W12220  14.927  10.173  23.540
11356W        W12221  16.268  10.523  22.410
11357W        W12222  17.660   8.549  21.874
11358W        W12223  14.683  10.307  24.038
11359W        W12224  15.474   9.879  24.518
11360W        W12225  15.847   9.239  23.137
11361W        W12226  15.869   7.644  24.230
11362W        W12227  18.098   7.406  23.527
11363W        W12228  15.317   9.278  21.995
11364W        W12229  14.972   8.311  22.174
11365W        W12230  15.034  10.267  22.968
11366W        W12231  16.165   9.750  23.216
11367W        W12232  17.497  10.609  24.930
11368W        W12233  16.423   8.251  22.614
11369W        W12234  17.806  10.649  23.386
11370W        W12235  17.483   8.502  24.984
11371W        W12236  18.196  10.158  23.118
11372W        W12237  16.823   9.450  24.602
11373W        W12238  14.589   9.001  22.808
11374W        W12239  15.700   9.416  24.381
11375W        W12240  16.904   8.680  22.759
11376W        W12241  16.781   9.170  22.863
11377W        W12242  15.124   8.590  24.337
11378W        W12243  15.109   8.466  25.259
11379W        W12244  14.999   7.383  23.418
11380W        W12245  16.767   7.730  23.979
11381W        W12246  16.415   7.915  25.142
11382W        W12247  16.770   8.064  22.320
11383W        W12248  17.953  10.457  25.074
11384W        W12249  16.920   7.538  25.113
11385W        W12250  17.939   9.839  25.235
11386W        W12251  17.369   8.006  24.831
11387W        W12252  17.169   7.944  23.101
11388W        W12253  17.562   9.078  25.505
11389W        W12254  15.302  10.654  23.491
11390W        W12255  15.960   8.371  22.477
11391W        W12256  15.529   7.655  25.141
11392W        W12257  17.581   8.139  22.822
11393W        W12258  17.948   8.621  22.767
11394W        W12259  15.691  10.838  25.238
11395W        W12260  15.617   7.374  22.473
11396W        W12261  17.938   7.908  23.508
11397W        W12262  18.088  10.157  21.953
11398W        W12263  14.995   9.360  23.655
11399W        W12264  16.912   7.947  21.885
11400W        W12265  18.046  10.279  23.605
11401W        W12266  18.085   7.473  24.355
11402W        W12267  16.530   8.685  24.909
11403W        W12268  16.623  10.024  22.612
11404W        W12269  17.023   9.318  25.352
11405W        W12270  16.697   7.295  23.661
11406W        W12271  15.309   8.198  23.724
11407W        W12272  14.863   9.398  24.498
11408W        W12273  16.722  10.591  23.204
11409W        W12274  17.916   8.188  24.076
11410W        W12275  16.553  10.535  24.843
11411W        W12276  17.896   9.594  22.048
11412W        W12277  16.331   9.077  23.109
11413W        W12278  18.183   7.588  24.850
11414W        W12279  16.332   9.423  24.444
11415W        W12280  16.549   8.309  23.889
11416W        W12281  17.401   8.607  22.727
11417W        W12282  17.688   8.340  22.369
11418W        W12283  17.497  10.380  22.758
11419W        W12284  17.331   9.983  23.554
11420W        W12285  17.227   9.062  22.532
11421W        W12286  16.660   9.272  23.518
11422W        W12287  17.541   9.060  23.585
11423W        W12288  14.916   8.075  24.009
11424W        W12289  17.694   9.127  24.836
11425W        W12290  18.045  10.745  23.982
11426W        W12291  15.975  10.189  23.384
11427W        W12292  16.982  10.722  24.708
11428W        W12293  16.976   8.052  24.472
11429W        W12294  16.183  10.760  24.533
11430W        W12295  17.880   7.714  22.999
11431W        W12296  17.671   9.033  24.300
11432W        W12297  14.654   8.354  24.338
11433W        W12298  17.514   8.149  23.356
11434W        W12299  17.925   8.300  25.133
11435W        W12300  16.810   9.999  23.351
11436W        W12301  16.066  10.590  22.964
11437W        W12302  15.181   7.770  22.222
11438W        W12303  16.285   7.424  24.032
11439W        W12304  15.313  10.544  21.880
11440W        W12305  15.687   9.010  22.631
11441W        W12306  16.341   9.639  24.944
11442W        W12307  16.171   7.997  22.934
11443W        W12308  17.527   7.594  23.362
11444W        W12309  17.247  10.876  23.690
11445W        W12310  16.659  10.524  24.030
11446W        W12311  16.055   9.561  23.991
11447W        W12312  17.825  10.284  24.117
11448W        W12313  15.519   7.787  22.886
11449W        W12314  16.041  10.084  23.846
11450W        W12315  15.524   8.015  21.911
11451W        W12316  16.325   8.624  24.305
11452W        W12317  17.173   7.490  24.175
11453W        W12318  14.593   9.333  24.060
11454W        W12319  16.297   9.151  22.218
11455W        W12320  15.565   7.466  21.988
11456W        W12321  16.303   8.547  23.039
11457W        W12322  17.273   7.523  24.738
11458W        W12323  15.861   9.535  24.847
11459W        W12324  16.665   9.317  25.064
11460W        W12325  17.282   9.347  24.957
11461W        W12326  16.566   7.487  25.462
11462W        W12327  15.788   8.103  23.855
11463W        W12328  15.214   8.059  23.253
11464W        W12329  15.000  10.771  22.929
11465W        W12330  16.332  10.101  25.054
11466W        W12331  15.367   9.586  22.413
11467W        W12332  17.047   8.971  23.634
11468W        W12333  17.327   8.770  24.033
11469W        W12334  16.532   9.444  23.967
11470W        W12335  17.002   9.818  22.099
11471W        W12336  16.674   7.839  23.427
11472W        W12337  18.153   8.117  22.695
11473W        W12338  14.647  10.706  24.726
11474W        W12339  15.064   9.932  24.258
11475W        W12340  14.631  10.778  22.490
11476W        W12341  16.530   8.048  24.296
11477W        W12342  15.893  10.071  22.145
11478W        W12343  17.798  10.453  22.331
11479W        W12344  16.773   9.106  22.345
11480W        W12345  15.616   8.297  22.862
11481W        W12346  16.448   8.207  21.914
11482W        W12347  17.032   9.772  25.092
11483W        W12348  17.385   7.678  22.709
11484W        W12349  14.715   7.526  22.157
11485W        W12350  16.001   9.845  24.447
11486W        W12351  15.800   9.761  23.539
11487W        W12352  15.542   9.713  21.937
11488W        W12353  14.783   9.954  22.705
11489W        W12354  15.287   9.024  25.147
11490W        W12355  15.991   7.584  25.333
11491W        W12356  16.700   7.726  24.689
11492W        W12357  15.895   7.494  22.970
11493W        W12358  16.954   7.571  22.475
11494W        W12359  14.899   7.503  24.052
11495W        W12360  14.947   8.466  23.422
11496W        W12361  17.636   7.574  23.828
11497W        W12362  15.058   8.072  22.642
11498W        W12363  17.629   7.760  24.258
11499W        W12364  18.025   8.963  21.943
11500W        W12365  15.317   7.721  23.762
11501W        W12366  16.431   8.293  24.702
11502W        W12367  14.579   7.983  22.180
11503W        W12368  15.365   9.372  24.741
11504W        W12369  16.723   8.770  23.920
11505W        W12370  16.590  10.849  22.216
11506W        W12371  14.736   9.356  21.913
11507W        W12372  15.471   9.767  25.039
11508W        W12373  14.992   8.934  24.670
11509W        W12374  15.983   9.039  24.464
11510W        W12375  17.751   7.398  24.726
11511W        W12376  18.149   9.008  24.717
11512W        W12377  18.137   9.208  22.403
11513W        W12378  17.000   9.540  22.502
11514W        W12379  17.474  10.840  22.197
11515W        W12380  16.651   8.830  25.339
11516W        W12381  14.981   9.797  25.379
11517W        W12382  18.187   7.719  25.331
11518W        W12383  17.905   8.647  23.952
11519W        W12384  16.213  10.777  25.429
11520W        W12385  16.068   7.406  22.156
11521W        W12386  17.607  10.005  22.099
11522W        W12387  15.376   8.098  24.985
11523W        W12388  15.810  10.092  24.847
11524W        W12389  17.936   8.083  24.645
11525W        W12390  17.147  10.742  22.613
11526W        W12391  17.386   9.361  23.980
11527W        W12392  15.636   7.777  24.647
11528W        W12393  16.105   8.846  25.404
11529W        W12394  15.608  10.025  22.598
11530W        W12395  17.363   9.523  22.862
11531W        W12396  15.131   8.149  24.586
11532W        W12397  16.460  10.211  23.050
11533W        W12398  18.210   8.771  23.231
11534W        W12399  16.432   7.404  24.950
11535W        W12400  17.212  10.109  24.029
11536W        W12401  17.515  10.453  23.737
11537W        W12402  16.734  10.255  22.165
11538W        W12403  14.744  10.147  25.007
11539W        W12404  15.487   8.139  24.245
11540W        W12405  15.457   7.487  23.355
11541W        W12406  17.078   8.329  24.047
11542W        W12407  15.876   9.500  22.247
11543W        W12408  17.874   9.442  23.746
11544W        W12409  15.201  10.200  25.169
11545W        W12410  17.588  10.882  22.966
11546W        W12411  15.687   7.902  23.411
11547W        W12412  15.456   9.395  23.501
11548W        W12413  15.769  10.806  24.251
11549W        W12414  17.836  10.902  25.283
11550W        W12415  16.995   9.090  24.216
11551W        W12416  14.844   8.888  22.131
11552W        W12417  17.978  10.546  22.828
11553W        W12418  17.815   7.870  22.447
11554W        W12419  15.954   7.389  24.850
11555W        W12420  17.660  10.191  23.308
11556W        W12421  17.689   8.747  23.213
11557W        W12422  15.806   8.420  23.429
11558W        W12423  16.051   8.682  24.753
11559W        W12424  17.162   9.835  24.616
11560W        W12425  15.812   8.289  24.728
11561W        W12426  15.791  10.755  23.344
11562W        W12427  15.108  10.714  24.978
11563W        W12428  15.220  10.075  22.108
11564W        W12429  17.737   9.833  22.918
11565W        W12430  15.341   8.625  24.804
11566W        W12431  18.114   8.555  22.285
11567W        W12432  15.859   9.612  22.756
11568W        W12433  16.958   8.994  24.837
11569W        W12434  16.849   8.622  24.381
11570W        W12435  15.409   8.994  24.410
11571W        W12436  17.619  10.882  24.239
11572W        W12437  17.410   7.516  25.233
11573W        W12438  15.074   7.666  24.820
11574W        W12439  15.413   8.689  23.873
11575W        W12440  15.782   8.503  21.995
11576W        W12441  14.585  10.262  24.540
11577W        W12442  16.170   8.971  23.983
11578W        W12443  15.993   7.996  22.088
11579W        W12444  15.128   8.812  22.869
11580W        W12445  14.899  10.664  24.306
11581W        W12446  17.694   8.890  22.414
11582W        W12447  17.789   7.806  25.100
11583W        W12448  17.225  10.015  23.063
11584W        W12449  14.823   8.939  25.240
11585W        W12450  17.789   7.403  22.536
11586W        W12451  17.309   9.878  22.547
11587W        W12452  16.211   8.936  22.632
11588W        W12453  17.398   7.740  22.155
11589W        W12454  17.463   8.347  24.341
11590W        W12455  15.172   8.940  23.548
11591W        W12456  15.466   9.879  23.197
11592W        W12457  17.229   8.499  23.162
11593W        W12458  16.252   7.878  23.858
11594W        W12459  18.214   9.789  24.369
11595W        W12460  18.132   7.776  23.930
11596W        W12461  14.671  10.606  23.306
11597W        W12462  15.180   9.793  22.842
11598W        W12463  15.095   7.410  25.395
11599W        W12464  16.214  10.263  25.497
11600W        W12465  17.969   9.231  23.287
11601W        W12466  17.323   9.408  22.167
11602W        W12467  16.618  10.929  24.379
11603W        W12468  17.475   9.651  25.416
11604W        W12469  16.290   7.361  22.696
11605W        W12470  17.003   8.230  23.555
11606W        W12471  14.689   9.817  23.887
11607W        W12472  15.942   7.779  22.528
11608W        W12473  15.746   9.263  25.377
11609W        W12474  16.740   8.244  23.091
11610W        W12475  16.945   9.654  24.213
11611W        W12476  15.099  10.259  24.648
11612W        W12477  15.690  10.242  25.371
11613W        W12478  15.541   8.039  22.385
11614W        W12479  17.058   8.181  22.710
11615W        W12480  17.016  10.289  24.947
11616W        W12481  15.701   8.881  23.546
11617W        W12482  15.356  10.579  24.411
11618W        W12483  18.101  10.696  22.012
11619W        W12484  14.964   9.368  25.008
11620W        W12485  16.959   9.630  23.696
11621W        W12486  15.395   9.279  22.938
11622W        W12487  15.766  10.286  24.333
11623W        W12488  16.144   7.705  23.374
11624W        W12489  14.755   9.689  22.304
11625W        W12490  16.274   8.640  22.174
11626W        W12491  14.920   9.189  23.193
11627W        W12492  16.210   7.831  24.657
11628W        W12493  17.882   7.540  22.084
11629W        W12494  17.975   9.286  25.183
11630W        W12495  16.629  10.543  25.335
11631W        W12496  18.187   9.637  24.857
11632W        W12497  17.595  10.435  25.468
11633W        W12498  15.334  10.891  23.946
11634W        W12499  18.193   9.513  22.820
11635W        W12500  16.723   8.780  23.333
11636W        W12501  16.490   7.392  23.223
11637W        W12502  15.549  10.376  23.060
11638W        W12503  16.048   8.117  24.285
11639W        W12504  15.748   7.486  23.754
11640W        W12505  14.811  10.308  22.302
11641W        W12506  16.627   9.672  23.020
11642W        W12507  15.502  10.467  24.899
11643W        W12508  14.979   9.290  22.595
11644W        W12509  14.864   7.833  23.594
11645W        W12510  16.412   9.798  23.651
11646W        W12511  14.664   7.652  22.671
11647W        W12512  17.328   8.858  24.598
11648W        W12513  17.205   8.244  22.170
11649W        W12514  17.722   9.916  23.818
11650W        W12515  16.383  10.400  23.649
11651W        W12516  15.795  10.504  22.560
11652W        W12517  17.077   7.407  21.990
11653W        W12518  14.877  10.667  23.731
11654W        W12519  17.074   8.425  25.366
11655W        W12520  15.057   7.955  25.365
11656W        W12521  14.788   8.555  22.698
11657W        W12522  15.479   8.544  22.423
11658W        W12523  17.242   8.871  25.240
11659W        W12524  15.585   9.152  23.949
11660W        W12525  17.059   7.438  23.069
11661W        W12526  16.190  10.869  23.572
11662W        W12527  17.404  10.331  24.509
11663W        W12528  16.988  10.480  23.620
11664W        W12529  17.007   9.460  23.214
11665W        W12530  16.469   7.685  22.285
11666W        W12531  18.150   7.313  23.007
11667W        W12532  15.838   8.948  22.170
11668W        W12533  18.004   8.285  23.160
11669W        W12534  16.696   9.455  22.037
11670W        W12535  17.632   9.655  24.785
11671W        W12536  17.286  10.356  22.252
11672W        W12537  15.901   8.031  25.158
11673W        W12538  15.721   8.615  24.399
11674W        W12539  17.813  10.110  24.676
11675W        W12540  16.913   8.060  25.053
11676W        W12541  14.757   8.531  24.830
11677W        W12542  16.517   9.008  24.556
11678W        W12543  14.874   9.766  23.213
11679W        W12544  15.021   9.063  24.103
11680W        W12545  17.338   9.349  24.453
11681W        W12546  17.110  10.729  25.264
11682W        W12547  17.006   8.468  24.817
11683W        W12548  17.283  10.522  23.222
11684W        W12549  16.285  10.242  24.545
11685W        W12550  15.770  10.597  23.814
11686W        W12551  17.575   9.768  24.233
11687W        W12552  16.625   9.840  25.370
11688W        W12553  15.230   9.793  23.709
11689W        W12554  17.576   9.552  23.354
11690W        W12555  17.217  10.618  24.105
11691W        W12556  15.195  10.347  23.975
11692W        W12557  16.216   8.399  25.185
11693W        W12558  16.667  10.565  22.696
11694W        W12559  15.975   9.820  25.334
11695W        W12560  16.101  10.058  22.711
11696W        W12561  15.322   8.798  21.970
11697W        W12562  14.661  10.884  28.869
11698W        W12563  15.037   9.777  28.392
11699W        W12564  17.742   9.507  26.162
11700W        W12565  17.872  10.592  28.189
11701W        W12566  15.790  10.583  25.715
11702W        W12567  15.873   8.735  26.698
11703W        W12568  15.388   8.583  26.862
11704W        W12569  16.379   9.398  26.296
11705W        W12570  16.054  10.490  28.651
11706W        W12571  14.703   8.051  28.614
11707W        W12572  15.465   7.331  28.416
11708W        W12573  17.159   7.719  27.303
11709W        W12574  16.808   8.590  25.873
11710W        W12575  17.378   8.024  28.964
11711W        W12576  14.744   7.816  28.089
11712W        W12577  14.843  10.435  29.110
11713W        W12578  16.365   9.825  25.842
11714W        W12579  14.797   8.608  27.535
11715W        W12580  15.690   8.499  28.772
11716W        W12581  18.149   8.358  27.271
11717W        W12582  17.913   9.401  28.130
11718W        W12583  16.221   8.734  27.157
11719W        W12584  16.767  10.073  27.526
11720W        W12585  15.267   9.507  27.758
11721W        W12586  14.626   9.035  27.329
11722W        W12587  15.662   9.007  28.521
11723W        W12588  17.933   8.790  28.775
11724W        W12589  15.549  10.234  27.220
11725W        W12590  16.670   9.923  28.354
11726W        W12591  15.890   8.563  27.579
11727W        W12592  16.182   9.347  27.222
11728W        W12593  17.179  10.120  29.070
11729W        W12594  16.258   9.440  29.080
11730W        W12595  16.239   9.156  28.558
11731W        W12596  14.648   8.547  29.080
11732W        W12597  17.480  10.082  28.679
11733W        W12598  15.061   7.664  26.677
11734W        W12599  15.588   9.922  27.676
11735W        W12600  18.051   9.705  26.966
11736W        W12601  17.464   8.105  27.533
11737W        W12602  17.749   8.058  25.628
11738W        W12603  18.214   8.859  27.934
11739W        W12604  16.181  10.566  27.687
11740W        W12605  17.955  10.032  26.125
11741W        W12606  15.084  10.818  25.879
11742W        W12607  15.477  10.864  26.555
11743W        W12608  15.274   7.618  27.981
11744W        W12609  17.897   8.636  28.256
11745W        W12610  17.302   9.058  26.715
11746W        W12611  17.268   8.746  25.742
11747W        W12612  16.476   9.890  27.882
11748W        W12613  16.282   8.220  27.081
11749W        W12614  16.882  10.307  28.075
11750W        W12615  17.753   9.098  26.497
11751W        W12616  16.655   7.756  26.513
11752W        W12617  15.312  10.450  26.196
11753W        W12618  14.683   7.949  26.795
11754W        W12619  17.469   8.556  27.269
11755W        W12620  14.927  10.173  27.184
11756W        W12621  16.268  10.523  26.054
11757W        W12622  17.660   8.549  25.518
11758W        W12623  14.683  10.307  27.682
11759W        W12624  15.474   9.879  28.162
11760W        W12625  15.847   9.239  26.781
11761W        W12626  15.869   7.644  27.874
11762W        W12627  18.098   7.406  27.171
11763W        W12628  15.317   9.278  25.639
11764W        W12629  14.972   8.311  25.818
11765W        W12630  15.034  10.267  26.612
11766W        W12631  16.165   9.750  26.860
11767W        W12632  17.497  10.609  28.574
11768W        W12633  16.423   8.251  26.258
11769W        W12634  17.806  10.649  27.030
11770W        W12635  17.483   8.502  28.628
11771W        W12636  18.196  10.158  26.762
11772W        W12637  16.823   9.450  28.246
11773W        W12638  14.589   9.001  26.452
11774W        W12639  15.700   9.416  28.025
11775W        W12640  16.904   8.680  26.403
11776W        W12641  16.781   9.170  26.507
11777W        W12642  15.124   8.590  27.981
11778W        W12643  15.109   8.466  28.903
11779W        W12644  14.999   7.383  27.062
11780W        W12645  16.767   7.730  27.623
11781W        W12646  16.415   7.915  28.786
11782W        W12647  16.770   8.064  25.964
11783W        W12648  17.953  10.457  28.718
11784W        W12649  16.920   7.538  28.757
11785W        W12650  17.939   9.839  28.879
11786W        W12651  17.369   8.006  28.475
11787W        W12652  17.169   7.944  26.745
11788W        W12653  17.562   9.078  29.149
11789W        W12654  15.302  10.654  27.135
11790W        W12655  15.960   8.371  26.121
11791W        W12656  15.529   7.655  28.785
11792W        W12657  17.581   8.139  26.466
11793W        W12658  17.948   8.621  26.411
11794W        W12659  15.691  10.838  28.882
11795W        W12660  15.617   7.374  26.117
11796W        W12661  17.938   7.908  27.152
11797W        W12662  18.088  10.157  25.597
11798W        W12663  14.995   9.360  27.299
11799W        W12664  16.912   7.947  25.529
11800W        W12665  18.046  10.279  27.249
11801W        W12666  18.085   7.473  27.999
11802W        W12667  16.530   8.685  28.553
11803W        W12668  16.623  10.024  26.256
11804W        W12669  17.023   9.318  28.996
11805W        W12670  16.697   7.295  27.305
11806W        W12671  15.309   8.198  27.368
11807W        W12672  14.863   9.398  28.142
11808W        W12673  16.722  10.591  26.848
11809W        W12674  17.916   8.188  27.720
11810W        W12675  16.553  10.535  28.487
11811W        W12676  17.896   9.594  25.692
11812W        W12677  16.331   9.077  26.753
11813W        W12678  18.183   7.588  28.494
11814W        W12679  16.332   9.423  28.088
11815W        W12680  16.549   8.309  27.533
11816W        W12681  17.401   8.607  26.371
11817W        W12682  17.688   8.340  26.013
11818W        W12683  17.497  10.380  26.402
11819W        W12684  17.331   9.983  27.198
11820W        W12685  17.227   9.062  26.176
11821W        W12686  16.660   9.272  27.162
11822W        W12687  17.541   9.060  27.229
11823W        W12688  14.916   8.075  27.653
11824W        W12689  17.694   9.127  28.480
11825W        W12690  18.045  10.745  27.626
11826W        W12691  15.975  10.189  27.028
11827W        W12692  16.982  10.722  28.352
11828W        W12693  16.976   8.052  28.116
11829W        W12694  16.183  10.760  28.177
11830W        W12695  17.880   7.714  26.643
11831W        W12696  17.671   9.033  27.944
11832W        W12697  14.654   8.354  27.982
11833W        W12698  17.514   8.149  27.000
11834W        W12699  17.925   8.300  28.777
11835W        W12700  16.810   9.999  26.995
11836W        W12701  16.066  10.590  26.608
11837W        W12702  15.181   7.770  25.866
11838W        W12703  16.285   7.424  27.676
11839W        W12704  15.313  10.544  25.524
11840W        W12705  15.687   9.010  26.275
11841W        W12706  16.341   9.639  28.588
11842W        W12707  16.171   7.997  26.578
11843W        W12708  17.527   7.594  27.006
11844W        W12709  17.247  10.876  27.334
11845W        W12710  16.659  10.524  27.674
11846W        W12711  16.055   9.561  27.635
11847W        W12712  17.825  10.284  27.761
11848W        W12713  15.519   7.787  26.530
11849W        W12714  16.041  10.084  27.490
11850W        W12715  15.524   8.015  25.555
11851W        W12716  16.325   8.624  27.949
11852W        W12717  17.173   7.490  27.819
11853W        W12718  14.593   9.333  27.704
11854W        W12719  16.297   9.151  25.862
11855W        W12720  15.565   7.466  25.632
11856W        W12721  16.303   8.547  26.683
11857W        W12722  17.273   7.523  28.382
11858W        W12723  15.861   9.535  28.491
11859W        W12724  16.665   9.317  28.708
11860W        W12725  17.282   9.347  28.601
11861W        W12726  16.566   7.487  29.106
11862W        W12727  15.788   8.103  27.499
11863W        W12728  15.214   8.059  26.897
11864W        W12729  15.000  10.771  26.573
11865W        W12730  16.332  10.101  28.698
11866W        W12731  15.367   9.586  26.057
11867W        W12732  17.047   8.971  27.278
11868W        W12733  17.327   8.770  27.677
11869W        W12734  16.532   9.444  27.611
11870W        W12735  17.002   9.818  25.743
11871W        W12736  16.674   7.839  27.071
11872W        W12737  18.153   8.117  26.339
11873W        W12738  14.647  10.706  28.370
11874W        W12739  15.064   9.932  27.902
11875W        W12740  14.631  10.778  26.134
11876W        W12741  16.530   8.048  27.940
11877W        W12742  15.893  10.071  25.789
11878W        W12743  17.798  10.453  25.975
11879W        W12744  16.773   9.106  25.989
11880W        W12745  15.616   8.297  26.506
11881W        W12746  16.448   8.207  25.558
11882W        W12747  17.032   9.772  28.736
11883W        W12748  17.385   7.678  26.353
11884W        W12749  14.715   7.526  25.801
11885W        W12750  16.001   9.845  28.091
11886W        W12751  15.800   9.761  27.183
11887W        W12752  15.542   9.713  25.581
11888W        W12753  14.783   9.954  26.349
11889W        W12754  15.287   9.024  28.791
11890W        W12755  15.991   7.584  28.977
11891W        W12756  16.700   7.726  28.333
11892W        W12757  15.895   7.494  26.614
11893W        W12758  16.954   7.571  26.119
11894W        W12759  14.899   7.503  27.696
11895W        W12760  14.947   8.466  27.066
11896W        W12761  17.636   7.574  27.472
11897W        W12762  15.058   8.072  26.286
11898W        W12763  17.629   7.760  27.902
11899W        W12764  18.025   8.963  25.587
11900W        W12765  15.317   7.721  27.406
11901W        W12766  16.431   8.293  28.346
11902W        W12767  14.579   7.983  25.824
11903W        W12768  15.365   9.372  28.385
11904W        W12769  16.723   8.770  27.564
11905W        W12770  16.590  10.849  25.860
11906W        W12771  14.736   9.356  25.557
11907W        W12772  15.471   9.767  28.683
11908W        W12773  14.992   8.934  28.314
11909W        W12774  15.983   9.039  28.108
11910W        W12775  17.751   7.398  28.370
11911W        W12776  18.149   9.008  28.361
11912W        W12777  18.137   9.208  26.047
11913W        W12778  17.000   9.540  26.146
11914W        W12779  17.474  10.840  25.841
11915W        W12780  16.651   8.830  28.983
11916W        W12781  14.981   9.797  29.023
11917W        W12782  18.187   7.719  28.975
11918W        W12783  17.905   8.647  27.596
11919W        W12784  16.213  10.777  29.073
11920W        W12785  16.068   7.406  25.800
11921W        W12786  17.607  10.005  25.743
11922W        W12787  15.376   8.098  28.629
11923W        W12788  15.810  10.092  28.491
11924W        W12789  17.936   8.083  28.289
11925W        W12790  17.147  10.742  26.257
11926W        W12791  17.386   9.361  27.624
11927W        W12792  15.636   7.777  28.291
11928W        W12793  16.105   8.846  29.048
11929W        W12794  15.608  10.025  26.242
11930W        W12795  17.363   9.523  26.506
11931W        W12796  15.131   8.149  28.230
11932W        W12797  16.460  10.211  26.694
11933W        W12798  18.210   8.771  26.875
11934W        W12799  16.432   7.404  28.594
11935W        W12800  17.212  10.109  27.673
11936W        W12801  17.515  10.453  27.381
11937W        W12802  16.734  10.255  25.809
11938W        W12803  14.744  10.147  28.651
11939W        W12804  15.487   8.139  27.889
11940W        W12805  15.457   7.487  26.999
11941W        W12806  17.078   8.329  27.691
11942W        W12807  15.876   9.500  25.891
11943W        W12808  17.874   9.442  27.390
11944W        W12809  15.201  10.200  28.813
11945W        W12810  17.588  10.882  26.610
11946W        W12811  15.687   7.902  27.055
11947W        W12812  15.456   9.395  27.145
11948W        W12813  15.769  10.806  27.895
11949W        W12814  17.836  10.902  28.927
11950W        W12815  16.995   9.090  27.860
11951W        W12816  14.844   8.888  25.775
11952W        W12817  17.978  10.546  26.472
11953W        W12818  17.815   7.870  26.091
11954W        W12819  15.954   7.389  28.494
11955W        W12820  17.660  10.191  26.952
11956W        W12821  17.689   8.747  26.857
11957W        W12822  15.806   8.420  27.073
11958W        W12823  16.051   8.682  28.397
11959W        W12824  17.162   9.835  28.260
11960W        W12825  15.812   8.289  28.372
11961W        W12826  15.791  10.755  26.988
11962W        W12827  15.108  10.714  28.622
11963W        W12828  15.220  10.075  25.752
11964W        W12829  17.737   9.833  26.562
11965W        W12830  15.341   8.625  28.448
11966W        W12831  18.114   8.555  25.929
11967W        W12832  15.859   9.612  26.400
11968W        W12833  16.958   8.994  28.481
11969W        W12834  16.849   8.622  28.025
11970W        W12835  15.409   8.994  28.054
11971W        W12836  17.619  10.882  27.883
11972W        W12837  17.410   7.516  28.877
11973W        W12838  15.074   7.666  28.464
11974W        W12839  15.413   8.689  27.517
11975W        W12840  15.782   8.503  25.639
11976W        W12841  14.585  10.262  28.184
11977W        W12842  16.170   8.971  27.627
11978W        W12843  15.993   7.996  25.732
11979W        W12844  15.128   8.812  26.513
11980W        W12845  14.899  10.664  27.950
11981W        W12846  17.694   8.890  26.058
11982W        W12847  17.789   7.806  28.744
11983W        W12848  17.225  10.015  26.707
11984W        W12849  14.823   8.939  28.884
11985W        W12850  17.789   7.403  26.180
11986W        W12851  17.309   9.878  26.191
11987W        W12852  16.211   8.936  26.276
11988W        W12853  17.398   7.740  25.799
11989W        W12854  17.463   8.347  27.985
11990W        W12855  15.172   8.940  27.192
11991W        W12856  15.466   9.879  26.841
11992W        W12857  17.229   8.499  26.806
11993W        W12858  16.252   7.878  27.502
11994W        W12859  18.214   9.789  28.013
11995W        W12860  18.132   7.776  27.574
11996W        W12861  14.671  10.606  26.950
11997W        W12862  15.180   9.793  26.486
11998W        W12863  15.095   7.410  29.039
11999W        W12864  16.214  10.263  29.141
12000W        W12865  17.969   9.231  26.931
12001W        W12866  17.323   9.408  25.811
12002W        W12867  16.618  10.929  28.023
12003W        W12868  17.475   9.651  29.060
12004W        W12869  16.290   7.361  26.340
12005W        W12870  17.003   8.230  27.199
12006W        W12871  14.689   9.817  27.531
12007W        W12872  15.942   7.779  26.172
12008W        W12873  15.746   9.263  29.021
12009W        W12874  16.740   8.244  26.735
12010W        W12875  16.945   9.654  27.857
12011W        W12876  15.099  10.259  28.292
12012W        W12877  15.690  10.242  29.015
12013W        W12878  15.541   8.039  26.029
12014W        W12879  17.058   8.181  26.354
12015W        W12880  17.016  10.289  28.591
12016W        W12881  15.701   8.881  27.190
12017W        W12882  15.356  10.579  28.055
12018W        W12883  18.101  10.696  25.656
12019W        W12884  14.964   9.368  28.652
12020W        W12885  16.959   9.630  27.340
12021W        W12886  15.395   9.279  26.582
12022W        W12887  15.766  10.286  27.977
12023W        W12888  16.144   7.705  27.018
12024W        W12889  14.755   9.689  25.948
12025W        W12890  16.274   8.640  25.818
12026W        W12891  14.920   9.189  26.837
12027W        W12892  16.210   7.831  28.301
12028W        W12893  17.882   7.540  25.728
12029W        W12894  17.975   9.286  28.827
12030W        W12895  16.629  10.543  28.979
12031W        W12896  18.187   9.637  28.501
12032W        W12897  17.595  10.435  29.112
12033W        W12898  15.334  10.891  27.590
12034W        W12899  18.193   9.513  26.464
12035W        W12900  16.723   8.780  26.977
12036W        W12901  16.490   7.392  26.867
12037W        W12902  15.549  10.376  26.704
12038W        W12903  16.048   8.117  27.929
12039W        W12904  15.748   7.486  27.398
12040W        W12905  14.811  10.308  25.946
12041W        W12906  16.627   9.672  26.664
12042W        W12907  15.502  10.467  28.543
12043W        W12908  14.979   9.290  26.239
12044W        W12909  14.864   7.833  27.238
12045W        W12910  16.412   9.798  27.295
12046W        W12911  14.664   7.652  26.315
12047W        W12912  17.328   8.858  28.242
12048W        W12913  17.205   8.244  25.814
12049W        W12914  17.722   9.916  27.462
12050W        W12915  16.383  10.400  27.293
12051W        W12916  15.795  10.504  26.204
12052W        W12917  17.077   7.407  25.634
12053W        W12918  14.877  10.667  27.375
12054W        W12919  17.074   8.425  29.010
12055W        W12920  15.057   7.955  29.009
12056W        W12921  14.788   8.555  26.342
12057W        W12922  15.479   8.544  26.067
12058W        W12923  17.242   8.871  28.884
12059W        W12924  15.585   9.152  27.593
12060W        W12925  17.059   7.438  26.713
12061W        W12926  16.190  10.869  27.216
12062W        W12927  17.404  10.331  28.153
12063W        W12928  16.988  10.480  27.264
12064W        W12929  17.007   9.460  26.858
12065W        W12930  16.469   7.685  25.929
12066W        W12931  18.150   7.313  26.651
12067W        W12932  15.838   8.948  25.814
12068W        W12933  18.004   8.285  26.804
12069W        W12934  16.696   9.455  25.681
12070W        W12935  17.632   9.655  28.429
12071W        W12936  17.286  10.356  25.896
12072W        W12937  15.901   8.031  28.802
12073W        W12938  15.721   8.615  28.043
12074W        W12939  17.813  10.110  28.320
12075W        W12940  16.913   8.060  28.697
12076W        W12941  14.757   8.531  28.474
12077W        W12942  16.517   9.008  28.200
12078W        W12943  14.874   9.766  26.857
12079W        W12944  15.021   9.063  27.747
12080W        W12945  17.338   9.349  28.097
12081W        W12946  17.110  10.729  28.908
12082W        W12947  17.006   8.468  28.461
12083W        W12948  17.283  10.522  26.866
12084W        W12949  16.285  10.242  28.189
12085W        W12950  15.770  10.597  27.458
12086W        W12951  17.575   9.768  27.877
12087W        W12952  16.625   9.840  29.014
12088W        W12953  15.230   9.793  27.353
12089W        W12954  17.576   9.552  26.998
12090W        W12955  17.217  10.618  27.749
12091W        W12956  15.195  10.347  27.619
12092W        W12957  16.216   8.399  28.829
12093W        W12958  16.667  10.565  26.340
12094W        W12959  15.975   9.820  28.978
12095W        W12960  16.101  10.058  26.355
12096W        W12961  15.322   8.798  25.614
12097W        W12962  14.661  14.528   3.359
12098W        W12963  15.037  13.421   2.882
12099W        W12964  17.742  13.151   0.652
12100W        W12965  17.872  14.236   2.679
12101W        W12966  15.790  14.227   0.205
12102W        W12967  15.873  12.379   1.188
12103W        W12968  15.388  12.227   1.352
12104W        W12969  16.379  13.042   0.786
12105W        W12970  16.054  14.134   3.141
12106W        W12971  14.703  11.695   3.104
12107W        W12972  15.465  10.975   2.906
12108W        W12973  17.159  11.363   1.793
12109W        W12974  16.808  12.234   0.363
12110W        W12975  17.378  11.668   3.454
12111W        W12976  14.744  11.460   2.579
12112W        W12977  14.843  14.079   3.600
12113W        W12978  16.365  13.469   0.332
12114W        W12979  14.797  12.252   2.025
12115W        W12980  15.690  12.143   3.262
12116W        W12981  18.149  12.002   1.761
12117W        W12982  17.913  13.045   2.620
12118W        W12983  16.221  12.378   1.647
12119W        W12984  16.767  13.717   2.016
12120W        W12985  15.267  13.151   2.248
12121W        W12986  14.626  12.679   1.819
12122W        W12987  15.662  12.651   3.011
12123W        W12988  17.933  12.434   3.265
12124W        W12989  15.549  13.878   1.710
12125W        W12990  16.670  13.567   2.844
12126W        W12991  15.890  12.207   2.069
12127W        W12992  16.182  12.991   1.712
12128W        W12993  17.179  13.764   3.560
12129W        W12994  16.258  13.084   3.570
12130W        W12995  16.239  12.800   3.048
12131W        W12996  14.648  12.191   3.570
12132W        W12997  17.480  13.726   3.169
12133W        W12998  15.061  11.308   1.167
12134W        W12999  15.588  13.566   2.166
12135W        W13000  18.051  13.349   1.456
12136W        W13001  17.464  11.749   2.023
12137W        W13002  17.749  11.702   0.118
12138W        W13003  18.214  12.503   2.424
12139W        W13004  16.181  14.210   2.177
12140W        W13005  17.955  13.676   0.615
12141W        W13006  15.084  14.462   0.369
12142W        W13007  15.477  14.508   1.045
12143W        W13008  15.274  11.262   2.471
12144W        W13009  17.897  12.280   2.746
12145W        W13010  17.302  12.702   1.205
12146W        W13011  17.268  12.390   0.232
12147W        W13012  16.476  13.534   2.372
12148W        W13013  16.282  11.864   1.571
12149W        W13014  16.882  13.951   2.565
12150W        W13015  17.753  12.742   0.987
12151W        W13016  16.655  11.400   1.003
12152W        W13017  15.312  14.094   0.686
12153W        W13018  14.683  11.593   1.285
12154W        W13019  17.469  12.200   1.759
12155W        W13020  14.927  13.817   1.674
12156W        W13021  16.268  14.167   0.544
12157W        W13022  17.660  12.193   0.008
12158W        W13023  14.683  13.951   2.172
12159W        W13024  15.474  13.523   2.652
12160W        W13025  15.847  12.883   1.271
12161W        W13026  15.869  11.288   2.364
12162W        W13027  18.098  11.050   1.661
12163W        W13028  15.317  12.922   0.129
12164W        W13029  14.972  11.955   0.308
12165W        W13030  15.034  13.911   1.102
12166W        W13031  16.165  13.394   1.350
12167W        W13032  17.497  14.253   3.064
12168W        W13033  16.423  11.895   0.748
12169W        W13034  17.806  14.293   1.520
12170W        W13035  17.483  12.146   3.118
12171W        W13036  18.196  13.802   1.252
12172W        W13037  16.823  13.094   2.736
12173W        W13038  14.589  12.645   0.942
12174W        W13039  15.700  13.060   2.515
12175W        W13040  16.904  12.324   0.893
12176W        W13041  16.781  12.814   0.997
12177W        W13042  15.124  12.234   2.471
12178W        W13043  15.109  12.110   3.393
12179W        W13044  14.999  11.027   1.552
12180W        W13045  16.767  11.374   2.113
12181W        W13046  16.415  11.559   3.276
12182W        W13047  16.770  11.708   0.454
12183W        W13048  17.953  14.101   3.208
12184W        W13049  16.920  11.182   3.247
12185W        W13050  17.939  13.483   3.369
12186W        W13051  17.369  11.650   2.965
12187W        W13052  17.169  11.588   1.235
12188W        W13053  17.562  12.722   3.639
12189W        W13054  15.302  14.298   1.625
12190W        W13055  15.960  12.015   0.611
12191W        W13056  15.529  11.299   3.275
12192W        W13057  17.581  11.783   0.956
12193W        W13058  17.948  12.265   0.901
12194W        W13059  15.691  14.482   3.372
12195W        W13060  15.617  11.018   0.607
12196W        W13061  17.938  11.552   1.642
12197W        W13062  18.088  13.801   0.087
12198W        W13063  14.995  13.004   1.789
12199W        W13064  16.912  11.591   0.019
12200W        W13065  18.046  13.923   1.739
12201W        W13066  18.085  11.117   2.489
12202W        W13067  16.530  12.329   3.043
12203W        W13068  16.623  13.668   0.746
12204W        W13069  17.023  12.962   3.486
12205W        W13070  16.697  10.939   1.795
12206W        W13071  15.309  11.842   1.858
12207W        W13072  14.863  13.042   2.632
12208W        W13073  16.722  14.235   1.338
12209W        W13074  17.916  11.832   2.210
12210W        W13075  16.553  14.179   2.977
12211W        W13076  17.896  13.238   0.182
12212W        W13077  16.331  12.721   1.243
12213W        W13078  18.183  11.232   2.984
12214W        W13079  16.332  13.067   2.578
12215W        W13080  16.549  11.953   2.023
12216W        W13081  17.401  12.251   0.861
12217W        W13082  17.688  11.984   0.503
12218W        W13083  17.497  14.024   0.892
12219W        W13084  17.331  13.627   1.688
12220W        W13085  17.227  12.706   0.666
12221W        W13086  16.660  12.916   1.652
12222W        W13087  17.541  12.704   1.719
12223W        W13088  14.916  11.719   2.143
12224W        W13089  17.694  12.771   2.970
12225W        W13090  18.045  14.389   2.116
12226W        W13091  15.975  13.833   1.518
12227W        W13092  16.982  14.366   2.842
12228W        W13093  16.976  11.696   2.606
12229W        W13094  16.183  14.404   2.667
12230W        W13095  17.880  11.358   1.133
12231W        W13096  17.671  12.677   2.434
12232W        W13097  14.654  11.998   2.472
12233W        W13098  17.514  11.793   1.490
12234W        W13099  17.925  11.944   3.267
12235W        W13100  16.810  13.643   1.485
12236W        W13101  16.066  14.234   1.098
12237W        W13102  15.181  11.414   0.356
12238W        W13103  16.285  11.068   2.166
12239W        W13104  15.313  14.188   0.014
12240W        W13105  15.687  12.654   0.765
12241W        W13106  16.341  13.283   3.078
12242W        W13107  16.171  11.641   1.068
12243W        W13108  17.527  11.238   1.496
12244W        W13109  17.247  14.520   1.824
12245W        W13110  16.659  14.168   2.164
12246W        W13111  16.055  13.205   2.125
12247W        W13112  17.825  13.928   2.251
12248W        W13113  15.519  11.431   1.020
12249W        W13114  16.041  13.728   1.980
12250W        W13115  15.524  11.659   0.045
12251W        W13116  16.325  12.268   2.439
12252W        W13117  17.173  11.134   2.309
12253W        W13118  14.593  12.977   2.194
12254W        W13119  16.297  12.795   0.352
12255W        W13120  15.565  11.110   0.122
12256W        W13121  16.303  12.191   1.173
12257W        W13122  17.273  11.167   2.872
12258W        W13123  15.861  13.179   2.981
12259W        W13124  16.665  12.961   3.198
12260W        W13125  17.282  12.991   3.091
12261W        W13126  16.566  11.131   3.596
12262W        W13127  15.788  11.747   1.989
12263W        W13128  15.214  11.703   1.387
12264W        W13129  15.000  14.415   1.063
12265W        W13130  16.332  13.745   3.188
12266W        W13131  15.367  13.230   0.547
12267W        W13132  17.047  12.615   1.768
12268W        W13133  17.327  12.414   2.167
12269W        W13134  16.532  13.088   2.101
12270W        W13135  17.002  13.462   0.233
12271W        W13136  16.674  11.483   1.561
12272W        W13137  18.153  11.761   0.829
12273W        W13138  14.647  14.350   2.860
12274W        W13139  15.064  13.576   2.392
12275W        W13140  14.631  14.422   0.624
12276W        W13141  16.530  11.692   2.430
12277W        W13142  15.893  13.715   0.279
12278W        W13143  17.798  14.097   0.465
12279W        W13144  16.773  12.750   0.479
12280W        W13145  15.616  11.941   0.996
12281W        W13146  16.448  11.851   0.048
12282W        W13147  17.032  13.416   3.226
12283W        W13148  17.385  11.322   0.843
12284W        W13149  14.715  11.170   0.291
12285W        W13150  16.001  13.489   2.581
12286W        W13151  15.800  13.405   1.673
12287W        W13152  15.542  13.357   0.071
12288W        W13153  14.783  13.598   0.839
12289W        W13154  15.287  12.668   3.281
12290W        W13155  15.991  11.228   3.467
12291W        W13156  16.700  11.370   2.823
12292W        W13157  15.895  11.138   1.104
12293W        W13158  16.954  11.215   0.609
12294W        W13159  14.899  11.147   2.186
12295W        W13160  14.947  12.110   1.556
12296W        W13161  17.636  11.218   1.962
12297W        W13162  15.058  11.716   0.776
12298W        W13163  17.629  11.404   2.392
12299W        W13164  18.025  12.607   0.077
12300W        W13165  15.317  11.365   1.896
12301W        W13166  16.431  11.937   2.836
12302W        W13167  14.579  11.627   0.314
12303W        W13168  15.365  13.016   2.875
12304W        W13169  16.723  12.414   2.054
12305W        W13170  16.590  14.493   0.350
12306W        W13171  14.736  13.000   0.047
12307W        W13172  15.471  13.411   3.173
12308W        W13173  14.992  12.578   2.804
12309W        W13174  15.983  12.683   2.598
12310W        W13175  17.751  11.042   2.860
12311W        W13176  18.149  12.652   2.851
12312W        W13177  18.137  12.852   0.537
12313W        W13178  17.000  13.184   0.636
12314W        W13179  17.474  14.484   0.331
12315W        W13180  16.651  12.474   3.473
12316W        W13181  14.981  13.441   3.513
12317W        W13182  18.187  11.363   3.465
12318W        W13183  17.905  12.291   2.086
12319W        W13184  16.213  14.421   3.563
12320W        W13185  16.068  11.050   0.290
12321W        W13186  17.607  13.649   0.233
12322W        W13187  15.376  11.742   3.119
12323W        W13188  15.810  13.736   2.981
12324W        W13189  17.936  11.727   2.779
12325W        W13190  17.147  14.386   0.747
12326W        W13191  17.386  13.005   2.114
12327W        W13192  15.636  11.421   2.781
12328W        W13193  16.105  12.490   3.538
12329W        W13194  15.608  13.669   0.732
12330W        W13195  17.363  13.167   0.996
12331W        W13196  15.131  11.793   2.720
12332W        W13197  16.460  13.855   1.184
12333W        W13198  18.210  12.415   1.365
12334W        W13199  16.432  11.048   3.084
12335W        W13200  17.212  13.753   2.163
12336W        W13201  17.515  14.097   1.871
12337W        W13202  16.734  13.899   0.299
12338W        W13203  14.744  13.791   3.141
12339W        W13204  15.487  11.783   2.379
12340W        W13205  15.457  11.131   1.489
12341W        W13206  17.078  11.973   2.181
12342W        W13207  15.876  13.144   0.381
12343W        W13208  17.874  13.086   1.880
12344W        W13209  15.201  13.844   3.303
12345W        W13210  17.588  14.526   1.100
12346W        W13211  15.687  11.546   1.545
12347W        W13212  15.456  13.039   1.635
12348W        W13213  15.769  14.450   2.385
12349W        W13214  17.836  14.546   3.417
12350W        W13215  16.995  12.734   2.350
12351W        W13216  14.844  12.532   0.265
12352W        W13217  17.978  14.190   0.962
12353W        W13218  17.815  11.514   0.581
12354W        W13219  15.954  11.033   2.984
12355W        W13220  17.660  13.835   1.442
12356W        W13221  17.689  12.391   1.347
12357W        W13222  15.806  12.064   1.563
12358W        W13223  16.051  12.326   2.887
12359W        W13224  17.162  13.479   2.750
12360W        W13225  15.812  11.933   2.862
12361W        W13226  15.791  14.399   1.478
12362W        W13227  15.108  14.358   3.112
12363W        W13228  15.220  13.719   0.242
12364W        W13229  17.737  13.477   1.052
12365W        W13230  15.341  12.269   2.938
12366W        W13231  18.114  12.199   0.419
12367W        W13232  15.859  13.256   0.890
12368W        W13233  16.958  12.638   2.971
12369W        W13234  16.849  12.266   2.515
12370W        W13235  15.409  12.638   2.544
12371W        W13236  17.619  14.526   2.373
12372W        W13237  17.410  11.160   3.367
12373W        W13238  15.074  11.310   2.954
12374W        W13239  15.413  12.333   2.007
12375W        W13240  15.782  12.147   0.129
12376W        W13241  14.585  13.906   2.674
12377W        W13242  16.170  12.615   2.117
12378W        W13243  15.993  11.640   0.222
12379W        W13244  15.128  12.456   1.003
12380W        W13245  14.899  14.308   2.440
12381W        W13246  17.694  12.534   0.548
12382W        W13247  17.789  11.450   3.234
12383W        W13248  17.225  13.659   1.197
12384W        W13249  14.823  12.583   3.374
12385W        W13250  17.789  11.047   0.670
12386W        W13251  17.309  13.522   0.681
12387W        W13252  16.211  12.580   0.766
12388W        W13253  17.398  11.384   0.289
12389W        W13254  17.463  11.991   2.475
12390W        W13255  15.172  12.584   1.682
12391W        W13256  15.466  13.523   1.331
12392W        W13257  17.229  12.143   1.296
12393W        W13258  16.252  11.522   1.992
12394W        W13259  18.214  13.433   2.503
12395W        W13260  18.132  11.420   2.064
12396W        W13261  14.671  14.250   1.440
12397W        W13262  15.180  13.437   0.976
12398W        W13263  15.095  11.054   3.529
12399W        W13264  16.214  13.907   3.631
12400W        W13265  17.969  12.875   1.421
12401W        W13266  17.323  13.052   0.301
12402W        W13267  16.618  14.573   2.513
12403W        W13268  17.475  13.295   3.550
12404W        W13269  16.290  11.005   0.830
12405W        W13270  17.003  11.874   1.689
12406W        W13271  14.689  13.461   2.021
12407W        W13272  15.942  11.423   0.662
12408W        W13273  15.746  12.907   3.511
12409W        W13274  16.740  11.888   1.225
12410W        W13275  16.945  13.298   2.347
12411W        W13276  15.099  13.903   2.782
12412W        W13277  15.690  13.886   3.505
12413W        W13278  15.541  11.683   0.519
12414W        W13279  17.058  11.825   0.844
12415W        W13280  17.016  13.933   3.081
12416W        W13281  15.701  12.525   1.680
12417W        W13282  15.356  14.223   2.545
12418W        W13283  18.101  14.340   0.146
12419W        W13284  14.964  13.012   3.142
12420W        W13285  16.959  13.274   1.830
12421W        W13286  15.395  12.923   1.072
12422W        W13287  15.766  13.930   2.467
12423W        W13288  16.144  11.349   1.508
12424W        W13289  14.755  13.333   0.438
12425W        W13290  16.274  12.284   0.308
12426W        W13291  14.920  12.833   1.327
12427W        W13292  16.210  11.475   2.791
12428W        W13293  17.882  11.184   0.218
12429W        W13294  17.975  12.930   3.317
12430W        W13295  16.629  14.187   3.469
12431W        W13296  18.187  13.281   2.991
12432W        W13297  17.595  14.079   3.602
12433W        W13298  15.334  14.535   2.080
12434W        W13299  18.193  13.157   0.954
12435W        W13300  16.723  12.424   1.467
12436W        W13301  16.490  11.036   1.357
12437W        W13302  15.549  14.020   1.194
12438W        W13303  16.048  11.761   2.419
12439W        W13304  15.748  11.130   1.888
12440W        W13305  14.811  13.952   0.436
12441W        W13306  16.627  13.316   1.154
12442W        W13307  15.502  14.111   3.033
12443W        W13308  14.979  12.934   0.729
12444W        W13309  14.864  11.477   1.728
12445W        W13310  16.412  13.442   1.785
12446W        W13311  14.664  11.296   0.805
12447W        W13312  17.328  12.502   2.732
12448W        W13313  17.205  11.888   0.304
12449W        W13314  17.722  13.560   1.952
12450W        W13315  16.383  14.044   1.783
12451W        W13316  15.795  14.148   0.694
12452W        W13317  17.077  11.051   0.124
12453W        W13318  14.877  14.311   1.865
12454W        W13319  17.074  12.069   3.500
12455W        W13320  15.057  11.599   3.499
12456W        W13321  14.788  12.199   0.832
12457W        W13322  15.479  12.188   0.557
12458W        W13323  17.242  12.515   3.374
12459W        W13324  15.585  12.796   2.083
12460W        W13325  17.059  11.082   1.203
12461W        W13326  16.190  14.513   1.706
12462W        W13327  17.404  13.975   2.643
12463W        W13328  16.988  14.124   1.754
12464W        W13329  17.007  13.104   1.348
12465W        W13330  16.469  11.329   0.419
12466W        W13331  18.150  10.957   1.141
12467W        W13332  15.838  12.592   0.304
12468W        W13333  18.004  11.929   1.294
12469W        W13334  16.696  13.099   0.171
12470W        W13335  17.632  13.299   2.919
12471W        W13336  17.286  14.000   0.386
12472W        W13337  15.901  11.675   3.292
12473W        W13338  15.721  12.259   2.533
12474W        W13339  17.813  13.754   2.810
12475W        W13340  16.913  11.704   3.187
12476W        W13341  14.757  12.175   2.964
12477W        W13342  16.517  12.652   2.690
12478W        W13343  14.874  13.410   1.347
12479W        W13344  15.021  12.707   2.237
12480W        W13345  17.338  12.993   2.587
12481W        W13346  17.110  14.373   3.398
12482W        W13347  17.006  12.112   2.951
12483W        W13348  17.283  14.166   1.356
12484W        W13349  16.285  13.886   2.679
12485W        W13350  15.770  14.241   1.948
12486W        W13351  17.575  13.412   2.367
12487W        W13352  16.625  13.484   3.504
12488W        W13353  15.230  13.437   1.843
12489W        W13354  17.576  13.196   1.488
12490W        W13355  17.217  14.262   2.239
12491W        W13356  15.195  13.991   2.109
12492W        W13357  16.216  12.043   3.319
12493W        W13358  16.667  14.209   0.830
12494W        W13359  15.975  13.464   3.468
12495W        W13360  16.101  13.702   0.845
12496W        W13361  15.322  12.442   0.104
12497W        W13362  14.661  14.528   7.003
12498W        W13363  15.037  13.421   6.526
12499W        W13364  17.742  13.151   4.296
12500W        W13365  17.872  14.236   6.323
12501W        W13366  15.790  14.227   3.849
12502W        W13367  15.873  12.379   4.832
12503W        W13368  15.388  12.227   4.996
12504W        W13369  16.379  13.042   4.430
12505W        W13370  16.054  14.134   6.785
12506W        W13371  14.703  11.695   6.748
12507W        W13372  15.465  10.975   6.550
12508W        W13373  17.159  11.363   5.437
12509W        W13374  16.808  12.234   4.007
12510W        W13375  17.378  11.668   7.098
12511W        W13376  14.744  11.460   6.223
12512W        W13377  14.843  14.079   7.244
12513W        W13378  16.365  13.469   3.976
12514W        W13379  14.797  12.252   5.669
12515W        W13380  15.690  12.143   6.906
12516W        W13381  18.149  12.002   5.405
12517W        W13382  17.913  13.045   6.264
12518W        W13383  16.221  12.378   5.291
12519W        W13384  16.767  13.717   5.660
12520W        W13385  15.267  13.151   5.892
12521W        W13386  14.626  12.679   5.463
12522W        W13387  15.662  12.651   6.655
12523W        W13388  17.933  12.434   6.909
12524W        W13389  15.549  13.878   5.354
12525W        W13390  16.670  13.567   6.488
12526W        W13391  15.890  12.207   5.713
12527W        W13392  16.182  12.991   5.356
12528W        W13393  17.179  13.764   7.204
12529W        W13394  16.258  13.084   7.214
12530W        W13395  16.239  12.800   6.692
12531W        W13396  14.648  12.191   7.214
12532W        W13397  17.480  13.726   6.813
12533W        W13398  15.061  11.308   4.811
12534W        W13399  15.588  13.566   5.810
12535W        W13400  18.051  13.349   5.100
12536W        W13401  17.464  11.749   5.667
12537W        W13402  17.749  11.702   3.762
12538W        W13403  18.214  12.503   6.068
12539W        W13404  16.181  14.210   5.821
12540W        W13405  17.955  13.676   4.259
12541W        W13406  15.084  14.462   4.013
12542W        W13407  15.477  14.508   4.689
12543W        W13408  15.274  11.262   6.115
12544W        W13409  17.897  12.280   6.390
12545W        W13410  17.302  12.702   4.849
12546W        W13411  17.268  12.390   3.876
12547W        W13412  16.476  13.534   6.016
12548W        W13413  16.282  11.864   5.215
12549W        W13414  16.882  13.951   6.209
12550W        W13415  17.753  12.742   4.631
12551W        W13416  16.655  11.400   4.647
12552W        W13417  15.312  14.094   4.330
12553W        W13418  14.683  11.593   4.929
12554W        W13419  17.469  12.200   5.403
12555W        W13420  14.927  13.817   5.318
12556W        W13421  16.268  14.167   4.188
12557W        W13422  17.660  12.193   3.652
12558W        W13423  14.683  13.951   5.816
12559W        W13424  15.474  13.523   6.296
12560W        W13425  15.847  12.883   4.915
12561W        W13426  15.869  11.288   6.008
12562W        W13427  18.098  11.050   5.305
12563W        W13428  15.317  12.922   3.773
12564W        W13429  14.972  11.955   3.952
12565W        W13430  15.034  13.911   4.746
12566W        W13431  16.165  13.394   4.994
12567W        W13432  17.497  14.253   6.708
12568W        W13433  16.423  11.895   4.392
12569W        W13434  17.806  14.293   5.164
12570W        W13435  17.483  12.146   6.762
12571W        W13436  18.196  13.802   4.896
12572W        W13437  16.823  13.094   6.380
12573W        W13438  14.589  12.645   4.586
12574W        W13439  15.700  13.060   6.159
12575W        W13440  16.904  12.324   4.537
12576W        W13441  16.781  12.814   4.641
12577W        W13442  15.124  12.234   6.115
12578W        W13443  15.109  12.110   7.037
12579W        W13444  14.999  11.027   5.196
12580W        W13445  16.767  11.374   5.757
12581W        W13446  16.415  11.559   6.920
12582W        W13447  16.770  11.708   4.098
12583W        W13448  17.953  14.101   6.852
12584W        W13449  16.920  11.182   6.891
12585W        W13450  17.939  13.483   7.013
12586W        W13451  17.369  11.650   6.609
12587W        W13452  17.169  11.588   4.879
12588W        W13453  17.562  12.722   7.283
12589W        W13454  15.302  14.298   5.269
12590W        W13455  15.960  12.015   4.255
12591W        W13456  15.529  11.299   6.919
12592W        W13457  17.581  11.783   4.600
12593W        W13458  17.948  12.265   4.545
12594W        W13459  15.691  14.482   7.016
12595W        W13460  15.617  11.018   4.251
12596W        W13461  17.938  11.552   5.286
12597W        W13462  18.088  13.801   3.731
12598W        W13463  14.995  13.004   5.433
12599W        W13464  16.912  11.591   3.663
12600W        W13465  18.046  13.923   5.383
12601W        W13466  18.085  11.117   6.133
12602W        W13467  16.530  12.329   6.687
12603W        W13468  16.623  13.668   4.390
12604W        W13469  17.023  12.962   7.130
12605W        W13470  16.697  10.939   5.439
12606W        W13471  15.309  11.842   5.502
12607W        W13472  14.863  13.042   6.276
12608W        W13473  16.722  14.235   4.982
12609W        W13474  17.916  11.832   5.854
12610W        W13475  16.553  14.179   6.621
12611W        W13476  17.896  13.238   3.826
12612W        W13477  16.331  12.721   4.887
12613W        W13478  18.183  11.232   6.628
12614W        W13479  16.332  13.067   6.222
12615W        W13480  16.549  11.953   5.667
12616W        W13481  17.401  12.251   4.505
12617W        W13482  17.688  11.984   4.147
12618W        W13483  17.497  14.024   4.536
12619W        W13484  17.331  13.627   5.332
12620W        W13485  17.227  12.706   4.310
12621W        W13486  16.660  12.916   5.296
12622W        W13487  17.541  12.704   5.363
12623W        W13488  14.916  11.719   5.787
12624W        W13489  17.694  12.771   6.614
12625W        W13490  18.045  14.389   5.760
12626W        W13491  15.975  13.833   5.162
12627W        W13492  16.982  14.366   6.486
12628W        W13493  16.976  11.696   6.250
12629W        W13494  16.183  14.404   6.311
12630W        W13495  17.880  11.358   4.777
12631W        W13496  17.671  12.677   6.078
12632W        W13497  14.654  11.998   6.116
12633W        W13498  17.514  11.793   5.134
12634W        W13499  17.925  11.944   6.911
12635W        W13500  16.810  13.643   5.129
12636W        W13501  16.066  14.234   4.742
12637W        W13502  15.181  11.414   4.000
12638W        W13503  16.285  11.068   5.810
12639W        W13504  15.313  14.188   3.658
12640W        W13505  15.687  12.654   4.409
12641W        W13506  16.341  13.283   6.722
12642W        W13507  16.171  11.641   4.712
12643W        W13508  17.527  11.238   5.140
12644W        W13509  17.247  14.520   5.468
12645W        W13510  16.659  14.168   5.808
12646W        W13511  16.055  13.205   5.769
12647W        W13512  17.825  13.928   5.895
12648W        W13513  15.519  11.431   4.664
12649W        W13514  16.041  13.728   5.624
12650W        W13515  15.524  11.659   3.689
12651W        W13516  16.325  12.268   6.083
12652W        W13517  17.173  11.134   5.953
12653W        W13518  14.593  12.977   5.838
12654W        W13519  16.297  12.795   3.996
12655W        W13520  15.565  11.110   3.766
12656W        W13521  16.303  12.191   4.817
12657W        W13522  17.273  11.167   6.516
12658W        W13523  15.861  13.179   6.625
12659W        W13524  16.665  12.961   6.842
12660W        W13525  17.282  12.991   6.735
12661W        W13526  16.566  11.131   7.240
12662W        W13527  15.788  11.747   5.633
12663W        W13528  15.214  11.703   5.031
12664W        W13529  15.000  14.415   4.707
12665W        W13530  16.332  13.745   6.832
12666W        W13531  15.367  13.230   4.191
12667W        W13532  17.047  12.615   5.412
12668W        W13533  17.327  12.414   5.811
12669W        W13534  16.532  13.088   5.745
12670W        W13535  17.002  13.462   3.877
12671W        W13536  16.674  11.483   5.205
12672W        W13537  18.153  11.761   4.473
12673W        W13538  14.647  14.350   6.504
12674W        W13539  15.064  13.576   6.036
12675W        W13540  14.631  14.422   4.268
12676W        W13541  16.530  11.692   6.074
12677W        W13542  15.893  13.715   3.923
12678W        W13543  17.798  14.097   4.109
12679W        W13544  16.773  12.750   4.123
12680W        W13545  15.616  11.941   4.640
12681W        W13546  16.448  11.851   3.692
12682W        W13547  17.032  13.416   6.870
12683W        W13548  17.385  11.322   4.487
12684W        W13549  14.715  11.170   3.935
12685W        W13550  16.001  13.489   6.225
12686W        W13551  15.800  13.405   5.317
12687W        W13552  15.542  13.357   3.715
12688W        W13553  14.783  13.598   4.483
12689W        W13554  15.287  12.668   6.925
12690W        W13555  15.991  11.228   7.111
12691W        W13556  16.700  11.370   6.467
12692W        W13557  15.895  11.138   4.748
12693W        W13558  16.954  11.215   4.253
12694W        W13559  14.899  11.147   5.830
12695W        W13560  14.947  12.110   5.200
12696W        W13561  17.636  11.218   5.606
12697W        W13562  15.058  11.716   4.420
12698W        W13563  17.629  11.404   6.036
12699W        W13564  18.025  12.607   3.721
12700W        W13565  15.317  11.365   5.540
12701W        W13566  16.431  11.937   6.480
12702W        W13567  14.579  11.627   3.958
12703W        W13568  15.365  13.016   6.519
12704W        W13569  16.723  12.414   5.698
12705W        W13570  16.590  14.493   3.994
12706W        W13571  14.736  13.000   3.691
12707W        W13572  15.471  13.411   6.817
12708W        W13573  14.992  12.578   6.448
12709W        W13574  15.983  12.683   6.242
12710W        W13575  17.751  11.042   6.504
12711W        W13576  18.149  12.652   6.495
12712W        W13577  18.137  12.852   4.181
12713W        W13578  17.000  13.184   4.280
12714W        W13579  17.474  14.484   3.975
12715W        W13580  16.651  12.474   7.117
12716W        W13581  14.981  13.441   7.157
12717W        W13582  18.187  11.363   7.109
12718W        W13583  17.905  12.291   5.730
12719W        W13584  16.213  14.421   7.207
12720W        W13585  16.068  11.050   3.934
12721W        W13586  17.607  13.649   3.877
12722W        W13587  15.376  11.742   6.763
12723W        W13588  15.810  13.736   6.625
12724W        W13589  17.936  11.727   6.423
12725W        W13590  17.147  14.386   4.391
12726W        W13591  17.386  13.005   5.758
12727W        W13592  15.636  11.421   6.425
12728W        W13593  16.105  12.490   7.182
12729W        W13594  15.608  13.669   4.376
12730W        W13595  17.363  13.167   4.640
12731W        W13596  15.131  11.793   6.364
12732W        W13597  16.460  13.855   4.828
12733W        W13598  18.210  12.415   5.009
12734W        W13599  16.432  11.048   6.728
12735W        W13600  17.212  13.753   5.807
12736W        W13601  17.515  14.097   5.515
12737W        W13602  16.734  13.899   3.943
12738W        W13603  14.744  13.791   6.785
12739W        W13604  15.487  11.783   6.023
12740W        W13605  15.457  11.131   5.133
12741W        W13606  17.078  11.973   5.825
12742W        W13607  15.876  13.144   4.025
12743W        W13608  17.874  13.086   5.524
12744W        W13609  15.201  13.844   6.947
12745W        W13610  17.588  14.526   4.744
12746W        W13611  15.687  11.546   5.189
12747W        W13612  15.456  13.039   5.279
12748W        W13613  15.769  14.450   6.029
12749W        W13614  17.836  14.546   7.061
12750W        W13615  16.995  12.734   5.994
12751W        W13616  14.844  12.532   3.909
12752W        W13617  17.978  14.190   4.606
12753W        W13618  17.815  11.514   4.225
12754W        W13619  15.954  11.033   6.628
12755W        W13620  17.660  13.835   5.086
12756W        W13621  17.689  12.391   4.991
12757W        W13622  15.806  12.064   5.207
12758W        W13623  16.051  12.326   6.531
12759W        W13624  17.162  13.479   6.394
12760W        W13625  15.812  11.933   6.506
12761W        W13626  15.791  14.399   5.122
12762W        W13627  15.108  14.358   6.756
12763W        W13628  15.220  13.719   3.886
12764W        W13629  17.737  13.477   4.696
12765W        W13630  15.341  12.269   6.582
12766W        W13631  18.114  12.199   4.063
12767W        W13632  15.859  13.256   4.534
12768W        W13633  16.958  12.638   6.615
12769W        W13634  16.849  12.266   6.159
12770W        W13635  15.409  12.638   6.188
12771W        W13636  17.619  14.526   6.017
12772W        W13637  17.410  11.160   7.011
12773W        W13638  15.074  11.310   6.598
12774W        W13639  15.413  12.333   5.651
12775W        W13640  15.782  12.147   3.773
12776W        W13641  14.585  13.906   6.318
12777W        W13642  16.170  12.615   5.761
12778W        W13643  15.993  11.640   3.866
12779W        W13644  15.128  12.456   4.647
12780W        W13645  14.899  14.308   6.084
12781W        W13646  17.694  12.534   4.192
12782W        W13647  17.789  11.450   6.878
12783W        W13648  17.225  13.659   4.841
12784W        W13649  14.823  12.583   7.018
12785W        W13650  17.789  11.047   4.314
12786W        W13651  17.309  13.522   4.325
12787W        W13652  16.211  12.580   4.410
12788W        W13653  17.398  11.384   3.933
12789W        W13654  17.463  11.991   6.119
12790W        W13655  15.172  12.584   5.326
12791W        W13656  15.466  13.523   4.975
12792W        W13657  17.229  12.143   4.940
12793W        W13658  16.252  11.522   5.636
12794W        W13659  18.214  13.433   6.147
12795W        W13660  18.132  11.420   5.708
12796W        W13661  14.671  14.250   5.084
12797W        W13662  15.180  13.437   4.620
12798W        W13663  15.095  11.054   7.173
12799W        W13664  16.214  13.907   7.275
12800W        W13665  17.969  12.875   5.065
12801W        W13666  17.323  13.052   3.945
12802W        W13667  16.618  14.573   6.157
12803W        W13668  17.475  13.295   7.194
12804W        W13669  16.290  11.005   4.474
12805W        W13670  17.003  11.874   5.333
12806W        W13671  14.689  13.461   5.665
12807W        W13672  15.942  11.423   4.306
12808W        W13673  15.746  12.907   7.155
12809W        W13674  16.740  11.888   4.869
12810W        W13675  16.945  13.298   5.991
12811W        W13676  15.099  13.903   6.426
12812W        W13677  15.690  13.886   7.149
12813W        W13678  15.541  11.683   4.163
12814W        W13679  17.058  11.825   4.488
12815W        W13680  17.016  13.933   6.725
12816W        W13681  15.701  12.525   5.324
12817W        W13682  15.356  14.223   6.189
12818W        W13683  18.101  14.340   3.790
12819W        W13684  14.964  13.012   6.786
12820W        W13685  16.959  13.274   5.474
12821W        W13686  15.395  12.923   4.716
12822W        W13687  15.766  13.930   6.111
12823W        W13688  16.144  11.349   5.152
12824W        W13689  14.755  13.333   4.082
12825W        W13690  16.274  12.284   3.952
12826W        W13691  14.920  12.833   4.971
12827W        W13692  16.210  11.475   6.435
12828W        W13693  17.882  11.184   3.862
12829W        W13694  17.975  12.930   6.961
12830W        W13695  16.629  14.187   7.113
12831W        W13696  18.187  13.281   6.635
12832W        W13697  17.595  14.079   7.246
12833W        W13698  15.334  14.535   5.724
12834W        W13699  18.193  13.157   4.598
12835W        W13700  16.723  12.424   5.111
12836W        W13701  16.490  11.036   5.001
12837W        W13702  15.549  14.020   4.838
12838W        W13703  16.048  11.761   6.063
12839W        W13704  15.748  11.130   5.532
12840W        W13705  14.811  13.952   4.080
12841W        W13706  16.627  13.316   4.798
12842W        W13707  15.502  14.111   6.677
12843W        W13708  14.979  12.934   4.373
12844W        W13709  14.864  11.477   5.372
12845W        W13710  16.412  13.442   5.429
12846W        W13711  14.664  11.296   4.449
12847W        W13712  17.328  12.502   6.376
12848W        W13713  17.205  11.888   3.948
12849W        W13714  17.722  13.560   5.596
12850W        W13715  16.383  14.044   5.427
12851W        W13716  15.795  14.148   4.338
12852W        W13717  17.077  11.051   3.768
12853W        W13718  14.877  14.311   5.509
12854W        W13719  17.074  12.069   7.144
12855W        W13720  15.057  11.599   7.143
12856W        W13721  14.788  12.199   4.476
12857W        W13722  15.479  12.188   4.201
12858W        W13723  17.242  12.515   7.018
12859W        W13724  15.585  12.796   5.727
12860W        W13725  17.059  11.082   4.847
12861W        W13726  16.190  14.513   5.350
12862W        W13727  17.404  13.975   6.287
12863W        W13728  16.988  14.124   5.398
12864W        W13729  17.007  13.104   4.992
12865W        W13730  16.469  11.329   4.063
12866W        W13731  18.150  10.957   4.785
12867W        W13732  15.838  12.592   3.948
12868W        W13733  18.004  11.929   4.938
12869W        W13734  16.696  13.099   3.815
12870W        W13735  17.632  13.299   6.563
12871W        W13736  17.286  14.000   4.030
12872W        W13737  15.901  11.675   6.936
12873W        W13738  15.721  12.259   6.177
12874W        W13739  17.813  13.754   6.454
12875W        W13740  16.913  11.704   6.831
12876W        W13741  14.757  12.175   6.608
12877W        W13742  16.517  12.652   6.334
12878W        W13743  14.874  13.410   4.991
12879W        W13744  15.021  12.707   5.881
12880W        W13745  17.338  12.993   6.231
12881W        W13746  17.110  14.373   7.042
12882W        W13747  17.006  12.112   6.595
12883W        W13748  17.283  14.166   5.000
12884W        W13749  16.285  13.886   6.323
12885W        W13750  15.770  14.241   5.592
12886W        W13751  17.575  13.412   6.011
12887W        W13752  16.625  13.484   7.148
12888W        W13753  15.230  13.437   5.487
12889W        W13754  17.576  13.196   5.132
12890W        W13755  17.217  14.262   5.883
12891W        W13756  15.195  13.991   5.753
12892W        W13757  16.216  12.043   6.963
12893W        W13758  16.667  14.209   4.474
12894W        W13759  15.975  13.464   7.112
12895W        W13760  16.101  13.702   4.489
12896W        W13761  15.322  12.442   3.748
12897W        W13762  14.661  14.528  10.648
12898W        W13763  15.037  13.421  10.171
12899W        W13764  17.742  13.151   7.941
12900W        W13765  17.872  14.236   9.968
12901W        W13766  15.790  14.227   7.494
12902W        W13767  15.873  12.379   8.477
12903W        W13768  15.388  12.227   8.641
12904W        W13769  16.379  13.042   8.075
12905W        W13770  16.054  14.134  10.430
12906W        W13771  14.703  11.695  10.393
12907W        W13772  15.465  10.975  10.195
12908W        W13773  17.159  11.363   9.082
12909W        W13774  16.808  12.234   7.652
12910W        W13775  17.378  11.668  10.743
12911W        W13776  14.744  11.460   9.868
12912W        W13777  14.843  14.079  10.889
12913W        W13778  16.365  13.469   7.621
12914W        W13779  14.797  12.252   9.314
12915W        W13780  15.690  12.143  10.551
12916W        W13781  18.149  12.002   9.050
12917W        W13782  17.913  13.045   9.909
12918W        W13783  16.221  12.378   8.936
12919W        W13784  16.767  13.717   9.305
12920W        W13785  15.267  13.151   9.537
12921W        W13786  14.626  12.679   9.108
12922W        W13787  15.662  12.651  10.300
12923W        W13788  17.933  12.434  10.554
12924W        W13789  15.549  13.878   8.999
12925W        W13790  16.670  13.567  10.133
12926W        W13791  15.890  12.207   9.358
12927W        W13792  16.182  12.991   9.001
12928W        W13793  17.179  13.764  10.849
12929W        W13794  16.258  13.084  10.859
12930W        W13795  16.239  12.800  10.337
12931W        W13796  14.648  12.191  10.859
12932W        W13797  17.480  13.726  10.458
12933W        W13798  15.061  11.308   8.456
12934W        W13799  15.588  13.566   9.455
12935W        W13800  18.051  13.349   8.745
12936W        W13801  17.464  11.749   9.312
12937W        W13802  17.749  11.702   7.407
12938W        W13803  18.214  12.503   9.713
12939W        W13804  16.181  14.210   9.466
12940W        W13805  17.955  13.676   7.904
12941W        W13806  15.084  14.462   7.658
12942W        W13807  15.477  14.508   8.334
12943W        W13808  15.274  11.262   9.760
12944W        W13809  17.897  12.280  10.035
12945W        W13810  17.302  12.702   8.494
12946W        W13811  17.268  12.390   7.521
12947W        W13812  16.476  13.534   9.661
12948W        W13813  16.282  11.864   8.860
12949W        W13814  16.882  13.951   9.854
12950W        W13815  17.753  12.742   8.276
12951W        W13816  16.655  11.400   8.292
12952W        W13817  15.312  14.094   7.975
12953W        W13818  14.683  11.593   8.574
12954W        W13819  17.469  12.200   9.048
12955W        W13820  14.927  13.817   8.963
12956W        W13821  16.268  14.167   7.833
12957W        W13822  17.660  12.193   7.297
12958W        W13823  14.683  13.951   9.461
12959W        W13824  15.474  13.523   9.941
12960W        W13825  15.847  12.883   8.560
12961W        W13826  15.869  11.288   9.653
12962W        W13827  18.098  11.050   8.950
12963W        W13828  15.317  12.922   7.418
12964W        W13829  14.972  11.955   7.597
12965W        W13830  15.034  13.911   8.391
12966W        W13831  16.165  13.394   8.639
12967W        W13832  17.497  14.253  10.353
12968W        W13833  16.423  11.895   8.037
12969W        W13834  17.806  14.293   8.809
12970W        W13835  17.483  12.146  10.407
12971W        W13836  18.196  13.802   8.541
12972W        W13837  16.823  13.094  10.025
12973W        W13838  14.589  12.645   8.231
12974W        W13839  15.700  13.060   9.804
12975W        W13840  16.904  12.324   8.182
12976W        W13841  16.781  12.814   8.286
12977W        W13842  15.124  12.234   9.760
12978W        W13843  15.109  12.110  10.682
12979W        W13844  14.999  11.027   8.841
12980W        W13845  16.767  11.374   9.402
12981W        W13846  16.415  11.559  10.565
12982W        W13847  16.770  11.708   7.743
12983W        W13848  17.953  14.101  10.497
12984W        W13849  16.920  11.182  10.536
12985W        W13850  17.939  13.483  10.658
12986W        W13851  17.369  11.650  10.254
12987W        W13852  17.169  11.588   8.524
12988W        W13853  17.562  12.722  10.928
12989W        W13854  15.302  14.298   8.914
12990W        W13855  15.960  12.015   7.900
12991W        W13856  15.529  11.299  10.564
12992W        W13857  17.581  11.783   8.245
12993W        W13858  17.948  12.265   8.190
12994W        W13859  15.691  14.482  10.661
12995W        W13860  15.617  11.018   7.896
12996W        W13861  17.938  11.552   8.931
12997W        W13862  18.088  13.801   7.376
12998W        W13863  14.995  13.004   9.078
12999W        W13864  16.912  11.591   7.308
13000W        W13865  18.046  13.923   9.028
13001W        W13866  18.085  11.117   9.778
13002W        W13867  16.530  12.329  10.332
13003W        W13868  16.623  13.668   8.035
13004W        W13869  17.023  12.962  10.775
13005W        W13870  16.697  10.939   9.084
13006W        W13871  15.309  11.842   9.147
13007W        W13872  14.863  13.042   9.921
13008W        W13873  16.722  14.235   8.627
13009W        W13874  17.916  11.832   9.499
13010W        W13875  16.553  14.179  10.266
13011W        W13876  17.896  13.238   7.471
13012W        W13877  16.331  12.721   8.532
13013W        W13878  18.183  11.232  10.273
13014W        W13879  16.332  13.067   9.867
13015W        W13880  16.549  11.953   9.312
13016W        W13881  17.401  12.251   8.150
13017W        W13882  17.688  11.984   7.792
13018W        W13883  17.497  14.024   8.181
13019W        W13884  17.331  13.627   8.977
13020W        W13885  17.227  12.706   7.955
13021W        W13886  16.660  12.916   8.941
13022W        W13887  17.541  12.704   9.008
13023W        W13888  14.916  11.719   9.432
13024W        W13889  17.694  12.771  10.259
13025W        W13890  18.045  14.389   9.405
13026W        W13891  15.975  13.833   8.807
13027W        W13892  16.982  14.366  10.131
13028W        W13893  16.976  11.696   9.895
13029W        W13894  16.183  14.404   9.956
13030W        W13895  17.880  11.358   8.422
13031W        W13896  17.671  12.677   9.723
13032W        W13897  14.654  11.998   9.761
13033W        W13898  17.514  11.793   8.779
13034W        W13899  17.925  11.944  10.556
13035W        W13900  16.810  13.643   8.774
13036W        W13901  16.066  14.234   8.387
13037W        W13902  15.181  11.414   7.645
13038W        W13903  16.285  11.068   9.455
13039W        W13904  15.313  14.188   7.303
13040W        W13905  15.687  12.654   8.054
13041W        W13906  16.341  13.283  10.367
13042W        W13907  16.171  11.641   8.357
13043W        W13908  17.527  11.238   8.785
13044W        W13909  16.659  14.168   9.453
13045W        W13910  16.055  13.205   9.414
13046W        W13911  17.825  13.928   9.540
13047W        W13912  15.519  11.431   8.309
13048W        W13913  16.041  13.728   9.269
13049W        W13914  15.524  11.659   7.334
13050W        W13915  16.325  12.268   9.728
13051W        W13916  17.173  11.134   9.598
13052W        W13917  14.593  12.977   9.483
13053W        W13918  16.297  12.795   7.641
13054W        W13919  15.565  11.110   7.411
13055W        W13920  16.303  12.191   8.462
13056W        W13921  17.273  11.167  10.161
13057W        W13922  15.861  13.179  10.270
13058W        W13923  16.665  12.961  10.487
13059W        W13924  17.282  12.991  10.380
13060W        W13925  16.566  11.131  10.885
13061W        W13926  15.788  11.747   9.278
13062W        W13927  15.214  11.703   8.676
13063W        W13928  15.000  14.415   8.352
13064W        W13929  16.332  13.745  10.477
13065W        W13930  15.367  13.230   7.836
13066W        W13931  17.047  12.615   9.057
13067W        W13932  17.327  12.414   9.456
13068W        W13933  16.532  13.088   9.390
13069W        W13934  17.002  13.462   7.522
13070W        W13935  16.674  11.483   8.850
13071W        W13936  18.153  11.761   8.118
13072W        W13937  14.647  14.350  10.149
13073W        W13938  15.064  13.576   9.681
13074W        W13939  14.631  14.422   7.913
13075W        W13940  16.530  11.692   9.719
13076W        W13941  15.893  13.715   7.568
13077W        W13942  17.798  14.097   7.754
13078W        W13943  16.773  12.750   7.768
13079W        W13944  15.616  11.941   8.285
13080W        W13945  16.448  11.851   7.337
13081W        W13946  17.032  13.416  10.515
13082W        W13947  17.385  11.322   8.132
13083W        W13948  14.715  11.170   7.580
13084W        W13949  16.001  13.489   9.870
13085W        W13950  15.800  13.405   8.962
13086W        W13951  15.542  13.357   7.360
13087W        W13952  14.783  13.598   8.128
13088W        W13953  15.287  12.668  10.570
13089W        W13954  15.991  11.228  10.756
13090W        W13955  16.700  11.370  10.112
13091W        W13956  15.895  11.138   8.393
13092W        W13957  16.954  11.215   7.898
13093W        W13958  14.899  11.147   9.475
13094W        W13959  14.947  12.110   8.845
13095W        W13960  17.636  11.218   9.251
13096W        W13961  15.058  11.716   8.065
13097W        W13962  17.629  11.404   9.681
13098W        W13963  18.025  12.607   7.366
13099W        W13964  15.317  11.365   9.185
13100W        W13965  16.431  11.937  10.125
13101W        W13966  14.579  11.627   7.603
13102W        W13967  15.365  13.016  10.164
13103W        W13968  16.723  12.414   9.343
13104W        W13969  16.590  14.493   7.639
13105W        W13970  14.736  13.000   7.336
13106W        W13971  15.471  13.411  10.462
13107W        W13972  14.992  12.578  10.093
13108W        W13973  15.983  12.683   9.887
13109W        W13974  17.751  11.042  10.149
13110W        W13975  18.149  12.652  10.140
13111W        W13976  18.137  12.852   7.826
13112W        W13977  17.000  13.184   7.925
13113W        W13978  17.474  14.484   7.620
13114W        W13979  16.651  12.474  10.762
13115W        W13980  14.981  13.441  10.802
13116W        W13981  18.187  11.363  10.754
13117W        W13982  17.905  12.291   9.375
13118W        W13983  16.213  14.421  10.852
13119W        W13984  16.068  11.050   7.579
13120W        W13985  17.607  13.649   7.522
13121W        W13986  15.376  11.742  10.408
13122W        W13987  15.810  13.736  10.270
13123W        W13988  17.936  11.727  10.068
13124W        W13989  17.147  14.386   8.036
13125W        W13990  17.386  13.005   9.403
13126W        W13991  15.636  11.421  10.070
13127W        W13992  16.105  12.490  10.827
13128W        W13993  15.608  13.669   8.021
13129W        W13994  17.363  13.167   8.285
13130W        W13995  15.131  11.793  10.009
13131W        W13996  16.460  13.855   8.473
13132W        W13997  18.210  12.415   8.654
13133W        W13998  16.432  11.048  10.373
13134W        W13999  17.212  13.753   9.452
13135W        W14000  17.515  14.097   9.160
13136W        W14001  16.734  13.899   7.588
13137W        W14002  14.744  13.791  10.430
13138W        W14003  15.487  11.783   9.668
13139W        W14004  15.457  11.131   8.778
13140W        W14005  17.078  11.973   9.470
13141W        W14006  15.876  13.144   7.670
13142W        W14007  17.874  13.086   9.169
13143W        W14008  15.201  13.844  10.592
13144W        W14009  17.588  14.526   8.389
13145W        W14010  15.687  11.546   8.834
13146W        W14011  15.456  13.039   8.924
13147W        W14012  15.769  14.450   9.674
13148W        W14013  17.836  14.546  10.706
13149W        W14014  16.995  12.734   9.639
13150W        W14015  14.844  12.532   7.554
13151W        W14016  17.978  14.190   8.251
13152W        W14017  17.815  11.514   7.870
13153W        W14018  15.954  11.033  10.273
13154W        W14019  17.660  13.835   8.731
13155W        W14020  17.689  12.391   8.636
13156W        W14021  15.806  12.064   8.852
13157W        W14022  16.051  12.326  10.176
13158W        W14023  17.162  13.479  10.039
13159W        W14024  15.812  11.933  10.151
13160W        W14025  15.791  14.399   8.767
13161W        W14026  15.108  14.358  10.401
13162W        W14027  15.220  13.719   7.531
13163W        W14028  17.737  13.477   8.341
13164W        W14029  15.341  12.269  10.227
13165W        W14030  18.114  12.199   7.708
13166W        W14031  15.859  13.256   8.179
13167W        W14032  16.958  12.638  10.260
13168W        W14033  16.849  12.266   9.804
13169W        W14034  15.409  12.638   9.833
13170W        W14035  17.619  14.526   9.662
13171W        W14036  17.410  11.160  10.656
13172W        W14037  15.074  11.310  10.243
13173W        W14038  15.413  12.333   9.296
13174W        W14039  15.782  12.147   7.418
13175W        W14040  14.585  13.906   9.963
13176W        W14041  16.170  12.615   9.406
13177W        W14042  15.993  11.640   7.511
13178W        W14043  15.128  12.456   8.292
13179W        W14044  14.899  14.308   9.729
13180W        W14045  17.694  12.534   7.837
13181W        W14046  17.789  11.450  10.523
13182W        W14047  17.225  13.659   8.486
13183W        W14048  14.823  12.583  10.663
13184W        W14049  17.789  11.047   7.959
13185W        W14050  17.309  13.522   7.970
13186W        W14051  16.211  12.580   8.055
13187W        W14052  17.398  11.384   7.578
13188W        W14053  17.463  11.991   9.764
13189W        W14054  15.172  12.584   8.971
13190W        W14055  15.466  13.523   8.620
13191W        W14056  17.229  12.143   8.585
13192W        W14057  16.252  11.522   9.281
13193W        W14058  18.214  13.433   9.792
13194W        W14059  18.132  11.420   9.353
13195W        W14060  14.671  14.250   8.729
13196W        W14061  15.180  13.437   8.265
13197W        W14062  15.095  11.054  10.818
13198W        W14063  16.214  13.907  10.920
13199W        W14064  17.969  12.875   8.710
13200W        W14065  17.323  13.052   7.590
13201W        W14066  16.618  14.573   9.802
13202W        W14067  16.290  11.005   8.119
13203W        W14068  17.003  11.874   8.978
13204W        W14069  14.689  13.461   9.310
13205W        W14070  15.942  11.423   7.951
13206W        W14071  15.746  12.907  10.800
13207W        W14072  16.740  11.888   8.514
13208W        W14073  16.945  13.298   9.636
13209W        W14074  15.099  13.903  10.071
13210W        W14075  15.690  13.886  10.794
13211W        W14076  15.541  11.683   7.808
13212W        W14077  17.058  11.825   8.133
13213W        W14078  17.016  13.933  10.370
13214W        W14079  15.701  12.525   8.969
13215W        W14080  15.356  14.223   9.834
13216W        W14081  18.101  14.340   7.435
13217W        W14082  14.964  13.012  10.431
13218W        W14083  16.959  13.274   9.119
13219W        W14084  15.395  12.923   8.361
13220W        W14085  15.766  13.930   9.756
13221W        W14086  16.144  11.349   8.797
13222W        W14087  14.755  13.333   7.727
13223W        W14088  16.274  12.284   7.597
13224W        W14089  14.920  12.833   8.616
13225W        W14090  16.210  11.475  10.080
13226W        W14091  17.882  11.184   7.507
13227W        W14092  17.975  12.930  10.606
13228W        W14093  16.629  14.187  10.758
13229W        W14094  18.187  13.281  10.280
13230W        W14095  17.595  14.079  10.891
13231W        W14096  15.334  14.535   9.369
13232W        W14097  18.193  13.157   8.243
13233W        W14098  16.723  12.424   8.756
13234W        W14099  16.490  11.036   8.646
13235W        W14100  15.549  14.020   8.483
13236W        W14101  16.048  11.761   9.708
13237W        W14102  15.748  11.130   9.177
13238W        W14103  14.811  13.952   7.725
13239W        W14104  16.627  13.316   8.443
13240W        W14105  15.502  14.111  10.322
13241W        W14106  14.979  12.934   8.018
13242W        W14107  14.864  11.477   9.017
13243W        W14108  16.412  13.442   9.074
13244W        W14109  14.664  11.296   8.094
13245W        W14110  17.328  12.502  10.021
13246W        W14111  17.205  11.888   7.593
13247W        W14112  17.722  13.560   9.241
13248W        W14113  16.383  14.044   9.072
13249W        W14114  15.795  14.148   7.983
13250W        W14115  17.077  11.051   7.413
13251W        W14116  14.877  14.311   9.154
13252W        W14117  17.074  12.069  10.789
13253W        W14118  15.057  11.599  10.788
13254W        W14119  14.788  12.199   8.121
13255W        W14120  15.479  12.188   7.846
13256W        W14121  17.242  12.515  10.663
13257W        W14122  15.585  12.796   9.372
13258W        W14123  17.059  11.082   8.492
13259W        W14124  16.190  14.513   8.995
13260W        W14125  17.404  13.975   9.932
13261W        W14126  16.988  14.124   9.043
13262W        W14127  17.007  13.104   8.637
13263W        W14128  16.469  11.329   7.708
13264W        W14129  18.150  10.957   8.430
13265W        W14130  15.838  12.592   7.593
13266W        W14131  18.004  11.929   8.583
13267W        W14132  16.696  13.099   7.460
13268W        W14133  17.632  13.299  10.208
13269W        W14134  17.286  14.000   7.675
13270W        W14135  15.901  11.675  10.581
13271W        W14136  15.721  12.259   9.822
13272W        W14137  17.813  13.754  10.099
13273W        W14138  16.913  11.704  10.476
13274W        W14139  14.757  12.175  10.253
13275W        W14140  16.517  12.652   9.979
13276W        W14141  14.874  13.410   8.636
13277W        W14142  15.021  12.707   9.526
13278W        W14143  17.338  12.993   9.876
13279W        W14144  17.110  14.373  10.687
13280W        W14145  17.006  12.112  10.240
13281W        W14146  17.283  14.166   8.645
13282W        W14147  16.285  13.886   9.968
13283W        W14148  15.770  14.241   9.237
13284W        W14149  17.575  13.412   9.656
13285W        W14150  16.625  13.484  10.793
13286W        W14151  15.230  13.437   9.132
13287W        W14152  17.576  13.196   8.777
13288W        W14153  17.217  14.262   9.528
13289W        W14154  15.195  13.991   9.398
13290W        W14155  16.216  12.043  10.608
13291W        W14156  16.667  14.209   8.119
13292W        W14157  15.975  13.464  10.757
13293W        W14158  16.101  13.702   8.134
13294W        W14159  15.322  12.442   7.393
13295W        W14160  14.661  14.528  14.292
13296W        W14161  15.037  13.421  13.815
13297W        W14162  17.742  13.151  11.585
13298W        W14163  17.872  14.236  13.612
13299W        W14164  15.790  14.227  11.138
13300W        W14165  15.873  12.379  12.121
13301W        W14166  15.388  12.227  12.285
13302W        W14167  16.379  13.042  11.719
13303W        W14168  16.054  14.134  14.074
13304W        W14169  14.703  11.695  14.037
13305W        W14170  15.465  10.975  13.839
13306W        W14171  17.159  11.363  12.726
13307W        W14172  16.808  12.234  11.296
13308W        W14173  17.378  11.668  14.387
13309W        W14174  14.744  11.460  13.512
13310W        W14175  14.843  14.079  14.533
13311W        W14176  16.365  13.469  11.265
13312W        W14177  14.797  12.252  12.958
13313W        W14178  15.690  12.143  14.195
13314W        W14179  18.149  12.002  12.694
13315W        W14180  17.913  13.045  13.553
13316W        W14181  16.221  12.378  12.580
13317W        W14182  16.767  13.717  12.949
13318W        W14183  15.267  13.151  13.181
13319W        W14184  14.626  12.679  12.752
13320W        W14185  15.662  12.651  13.944
13321W        W14186  17.933  12.434  14.198
13322W        W14187  15.549  13.878  12.643
13323W        W14188  16.670  13.567  13.777
13324W        W14189  15.890  12.207  13.002
13325W        W14190  16.182  12.991  12.645
13326W        W14191  17.179  13.764  14.493
13327W        W14192  16.258  13.084  14.503
13328W        W14193  16.239  12.800  13.981
13329W        W14194  14.648  12.191  14.503
13330W        W14195  17.480  13.726  14.102
13331W        W14196  15.061  11.308  12.100
13332W        W14197  15.588  13.566  13.099
13333W        W14198  18.051  13.349  12.389
13334W        W14199  17.464  11.749  12.956
13335W        W14200  17.749  11.702  11.051
13336W        W14201  18.214  12.503  13.357
13337W        W14202  16.181  14.210  13.110
13338W        W14203  17.955  13.676  11.548
13339W        W14204  15.084  14.462  11.302
13340W        W14205  15.477  14.508  11.978
13341W        W14206  15.274  11.262  13.404
13342W        W14207  17.897  12.280  13.679
13343W        W14208  17.302  12.702  12.138
13344W        W14209  17.268  12.390  11.165
13345W        W14210  16.476  13.534  13.305
13346W        W14211  16.282  11.864  12.504
13347W        W14212  16.882  13.951  13.498
13348W        W14213  17.753  12.742  11.920
13349W        W14214  16.655  11.400  11.936
13350W        W14215  15.312  14.094  11.619
13351W        W14216  14.683  11.593  12.218
13352W        W14217  17.469  12.200  12.692
13353W        W14218  14.927  13.817  12.607
13354W        W14219  16.268  14.167  11.477
13355W        W14220  17.660  12.193  10.941
13356W        W14221  14.683  13.951  13.105
13357W        W14222  15.474  13.523  13.585
13358W        W14223  15.847  12.883  12.204
13359W        W14224  15.869  11.288  13.297
13360W        W14225  18.098  11.050  12.594
13361W        W14226  15.317  12.922  11.062
13362W        W14227  14.972  11.955  11.241
13363W        W14228  15.034  13.911  12.035
13364W        W14229  16.165  13.394  12.283
13365W        W14230  17.497  14.253  13.997
13366W        W14231  16.423  11.895  11.681
13367W        W14232  17.806  14.293  12.453
13368W        W14233  17.483  12.146  14.051
13369W        W14234  18.196  13.802  12.185
13370W        W14235  16.823  13.094  13.669
13371W        W14236  14.589  12.645  11.875
13372W        W14237  15.700  13.060  13.448
13373W        W14238  16.904  12.324  11.826
13374W        W14239  16.781  12.814  11.930
13375W        W14240  15.124  12.234  13.404
13376W        W14241  15.109  12.110  14.326
13377W        W14242  14.999  11.027  12.485
13378W        W14243  16.767  11.374  13.046
13379W        W14244  16.415  11.559  14.209
13380W        W14245  16.770  11.708  11.387
13381W        W14246  17.953  14.101  14.141
13382W        W14247  16.920  11.182  14.180
13383W        W14248  17.939  13.483  14.302
13384W        W14249  17.369  11.650  13.898
13385W        W14250  17.169  11.588  12.168
13386W        W14251  17.562  12.722  14.572
13387W        W14252  15.302  14.298  12.558
13388W        W14253  15.960  12.015  11.544
13389W        W14254  15.529  11.299  14.208
13390W        W14255  17.581  11.783  11.889
13391W        W14256  17.948  12.265  11.834
13392W        W14257  15.691  14.482  14.305
13393W        W14258  15.617  11.018  11.540
13394W        W14259  17.938  11.552  12.575
13395W        W14260  18.088  13.801  11.020
13396W        W14261  14.995  13.004  12.722
13397W        W14262  16.912  11.591  10.952
13398W        W14263  18.046  13.923  12.672
13399W        W14264  18.085  11.117  13.422
13400W        W14265  16.530  12.329  13.976
13401W        W14266  16.623  13.668  11.679
13402W        W14267  17.023  12.962  14.419
13403W        W14268  16.697  10.939  12.728
13404W        W14269  15.309  11.842  12.791
13405W        W14270  14.863  13.042  13.565
13406W        W14271  16.722  14.235  12.271
13407W        W14272  17.916  11.832  13.143
13408W        W14273  16.553  14.179  13.910
13409W        W14274  17.896  13.238  11.115
13410W        W14275  16.331  12.721  12.176
13411W        W14276  18.183  11.232  13.917
13412W        W14277  16.332  13.067  13.511
13413W        W14278  16.549  11.953  12.956
13414W        W14279  17.401  12.251  11.794
13415W        W14280  17.688  11.984  11.436
13416W        W14281  17.497  14.024  11.825
13417W        W14282  17.331  13.627  12.621
13418W        W14283  17.227  12.706  11.599
13419W        W14284  16.660  12.916  12.585
13420W        W14285  17.541  12.704  12.652
13421W        W14286  14.916  11.719  13.076
13422W        W14287  17.694  12.771  13.903
13423W        W14288  18.045  14.389  13.049
13424W        W14289  15.975  13.833  12.451
13425W        W14290  16.982  14.366  13.775
13426W        W14291  16.976  11.696  13.539
13427W        W14292  16.183  14.404  13.600
13428W        W14293  17.880  11.358  12.066
13429W        W14294  17.671  12.677  13.367
13430W        W14295  14.654  11.998  13.405
13431W        W14296  17.514  11.793  12.423
13432W        W14297  17.925  11.944  14.200
13433W        W14298  16.810  13.643  12.418
13434W        W14299  16.066  14.234  12.031
13435W        W14300  15.181  11.414  11.289
13436W        W14301  16.285  11.068  13.099
13437W        W14302  15.313  14.188  10.947
13438W        W14303  15.687  12.654  11.698
13439W        W14304  16.341  13.283  14.011
13440W        W14305  16.171  11.641  12.001
13441W        W14306  17.527  11.238  12.429
13442W        W14307  17.247  14.520  12.757
13443W        W14308  16.659  14.168  13.097
13444W        W14309  16.055  13.205  13.058
13445W        W14310  17.825  13.928  13.184
13446W        W14311  15.519  11.431  11.953
13447W        W14312  16.041  13.728  12.913
13448W        W14313  15.524  11.659  10.978
13449W        W14314  16.325  12.268  13.372
13450W        W14315  17.173  11.134  13.242
13451W        W14316  14.593  12.977  13.127
13452W        W14317  16.297  12.795  11.285
13453W        W14318  15.565  11.110  11.055
13454W        W14319  16.303  12.191  12.106
13455W        W14320  17.273  11.167  13.805
13456W        W14321  15.861  13.179  13.914
13457W        W14322  16.665  12.961  14.131
13458W        W14323  17.282  12.991  14.024
13459W        W14324  16.566  11.131  14.529
13460W        W14325  15.788  11.747  12.922
13461W        W14326  15.214  11.703  12.320
13462W        W14327  15.000  14.415  11.996
13463W        W14328  16.332  13.745  14.121
13464W        W14329  15.367  13.230  11.480
13465W        W14330  17.047  12.615  12.701
13466W        W14331  17.327  12.414  13.100
13467W        W14332  16.532  13.088  13.034
13468W        W14333  17.002  13.462  11.166
13469W        W14334  16.674  11.483  12.494
13470W        W14335  18.153  11.761  11.762
13471W        W14336  14.647  14.350  13.793
13472W        W14337  15.064  13.576  13.325
13473W        W14338  14.631  14.422  11.557
13474W        W14339  16.530  11.692  13.363
13475W        W14340  15.893  13.715  11.212
13476W        W14341  17.798  14.097  11.398
13477W        W14342  16.773  12.750  11.412
13478W        W14343  15.616  11.941  11.929
13479W        W14344  16.448  11.851  10.981
13480W        W14345  17.032  13.416  14.159
13481W        W14346  17.385  11.322  11.776
13482W        W14347  14.715  11.170  11.224
13483W        W14348  16.001  13.489  13.514
13484W        W14349  15.800  13.405  12.606
13485W        W14350  15.542  13.357  11.004
13486W        W14351  14.783  13.598  11.772
13487W        W14352  15.287  12.668  14.214
13488W        W14353  15.991  11.228  14.400
13489W        W14354  16.700  11.370  13.756
13490W        W14355  15.895  11.138  12.037
13491W        W14356  16.954  11.215  11.542
13492W        W14357  14.899  11.147  13.119
13493W        W14358  14.947  12.110  12.489
13494W        W14359  17.636  11.218  12.895
13495W        W14360  15.058  11.716  11.709
13496W        W14361  17.629  11.404  13.325
13497W        W14362  18.025  12.607  11.010
13498W        W14363  15.317  11.365  12.829
13499W        W14364  16.431  11.937  13.769
13500W        W14365  14.579  11.627  11.247
13501W        W14366  15.365  13.016  13.808
13502W        W14367  16.723  12.414  12.987
13503W        W14368  16.590  14.493  11.283
13504W        W14369  14.736  13.000  10.980
13505W        W14370  15.471  13.411  14.106
13506W        W14371  14.992  12.578  13.737
13507W        W14372  15.983  12.683  13.531
13508W        W14373  17.751  11.042  13.793
13509W        W14374  18.149  12.652  13.784
13510W        W14375  18.137  12.852  11.470
13511W        W14376  17.000  13.184  11.569
13512W        W14377  17.474  14.484  11.264
13513W        W14378  16.651  12.474  14.406
13514W        W14379  14.981  13.441  14.446
13515W        W14380  18.187  11.363  14.398
13516W        W14381  17.905  12.291  13.019
13517W        W14382  16.213  14.421  14.496
13518W        W14383  16.068  11.050  11.223
13519W        W14384  17.607  13.649  11.166
13520W        W14385  15.376  11.742  14.052
13521W        W14386  15.810  13.736  13.914
13522W        W14387  17.936  11.727  13.712
13523W        W14388  17.147  14.386  11.680
13524W        W14389  17.386  13.005  13.047
13525W        W14390  15.636  11.421  13.714
13526W        W14391  16.105  12.490  14.471
13527W        W14392  15.608  13.669  11.665
13528W        W14393  17.363  13.167  11.929
13529W        W14394  15.131  11.793  13.653
13530W        W14395  16.460  13.855  12.117
13531W        W14396  18.210  12.415  12.298
13532W        W14397  16.432  11.048  14.017
13533W        W14398  17.212  13.753  13.096
13534W        W14399  17.515  14.097  12.804
13535W        W14400  16.734  13.899  11.232
13536W        W14401  14.744  13.791  14.074
13537W        W14402  15.487  11.783  13.312
13538W        W14403  15.457  11.131  12.422
13539W        W14404  17.078  11.973  13.114
13540W        W14405  15.876  13.144  11.314
13541W        W14406  17.874  13.086  12.813
13542W        W14407  15.201  13.844  14.236
13543W        W14408  17.588  14.526  12.033
13544W        W14409  15.687  11.546  12.478
13545W        W14410  15.456  13.039  12.568
13546W        W14411  15.769  14.450  13.318
13547W        W14412  17.836  14.546  14.350
13548W        W14413  16.995  12.734  13.283
13549W        W14414  14.844  12.532  11.198
13550W        W14415  17.978  14.190  11.895
13551W        W14416  17.815  11.514  11.514
13552W        W14417  15.954  11.033  13.917
13553W        W14418  17.660  13.835  12.375
13554W        W14419  17.689  12.391  12.280
13555W        W14420  15.806  12.064  12.496
13556W        W14421  16.051  12.326  13.820
13557W        W14422  17.162  13.479  13.683
13558W        W14423  15.812  11.933  13.795
13559W        W14424  15.791  14.399  12.411
13560W        W14425  15.108  14.358  14.045
13561W        W14426  15.220  13.719  11.175
13562W        W14427  17.737  13.477  11.985
13563W        W14428  15.341  12.269  13.871
13564W        W14429  18.114  12.199  11.352
13565W        W14430  15.859  13.256  11.823
13566W        W14431  16.958  12.638  13.904
13567W        W14432  16.849  12.266  13.448
13568W        W14433  15.409  12.638  13.477
13569W        W14434  17.619  14.526  13.306
13570W        W14435  17.410  11.160  14.300
13571W        W14436  15.074  11.310  13.887
13572W        W14437  15.413  12.333  12.940
13573W        W14438  15.782  12.147  11.062
13574W        W14439  14.585  13.906  13.607
13575W        W14440  16.170  12.615  13.050
13576W        W14441  15.993  11.640  11.155
13577W        W14442  15.128  12.456  11.936
13578W        W14443  14.899  14.308  13.373
13579W        W14444  17.694  12.534  11.481
13580W        W14445  17.789  11.450  14.167
13581W        W14446  17.225  13.659  12.130
13582W        W14447  14.823  12.583  14.307
13583W        W14448  17.789  11.047  11.603
13584W        W14449  17.309  13.522  11.614
13585W        W14450  16.211  12.580  11.699
13586W        W14451  17.398  11.384  11.222
13587W        W14452  17.463  11.991  13.408
13588W        W14453  15.172  12.584  12.615
13589W        W14454  15.466  13.523  12.264
13590W        W14455  17.229  12.143  12.229
13591W        W14456  16.252  11.522  12.925
13592W        W14457  18.214  13.433  13.436
13593W        W14458  18.132  11.420  12.997
13594W        W14459  14.671  14.250  12.373
13595W        W14460  15.180  13.437  11.909
13596W        W14461  15.095  11.054  14.462
13597W        W14462  16.214  13.907  14.564
13598W        W14463  17.969  12.875  12.354
13599W        W14464  17.323  13.052  11.234
13600W        W14465  16.618  14.573  13.446
13601W        W14466  17.475  13.295  14.483
13602W        W14467  16.290  11.005  11.763
13603W        W14468  17.003  11.874  12.622
13604W        W14469  14.689  13.461  12.954
13605W        W14470  15.942  11.423  11.595
13606W        W14471  15.746  12.907  14.444
13607W        W14472  16.740  11.888  12.158
13608W        W14473  16.945  13.298  13.280
13609W        W14474  15.099  13.903  13.715
13610W        W14475  15.690  13.886  14.438
13611W        W14476  15.541  11.683  11.452
13612W        W14477  17.058  11.825  11.777
13613W        W14478  17.016  13.933  14.014
13614W        W14479  15.701  12.525  12.613
13615W        W14480  18.101  14.340  11.079
13616W        W14481  14.964  13.012  14.075
13617W        W14482  16.959  13.274  12.763
13618W        W14483  15.395  12.923  12.005
13619W        W14484  16.144  11.349  12.441
13620W        W14485  14.755  13.333  11.371
13621W        W14486  16.274  12.284  11.241
13622W        W14487  14.920  12.833  12.260
13623W        W14488  16.210  11.475  13.724
13624W        W14489  17.882  11.184  11.151
13625W        W14490  17.975  12.930  14.250
13626W        W14491  16.629  14.187  14.402
13627W        W14492  18.187  13.281  13.924
13628W        W14493  17.595  14.079  14.535
13629W        W14494  15.334  14.535  13.013
13630W        W14495  18.193  13.157  11.887
13631W        W14496  16.723  12.424  12.400
13632W        W14497  16.490  11.036  12.290
13633W        W14498  15.549  14.020  12.127
13634W        W14499  16.048  11.761  13.352
13635W        W14500  15.748  11.130  12.821
13636W        W14501  14.811  13.952  11.369
13637W        W14502  16.627  13.316  12.087
13638W        W14503  15.502  14.111  13.966
13639W        W14504  14.979  12.934  11.662
13640W        W14505  14.864  11.477  12.661
13641W        W14506  16.412  13.442  12.718
13642W        W14507  14.664  11.296  11.738
13643W        W14508  17.328  12.502  13.665
13644W        W14509  17.205  11.888  11.237
13645W        W14510  17.722  13.560  12.885
13646W        W14511  16.383  14.044  12.716
13647W        W14512  15.795  14.148  11.627
13648W        W14513  17.077  11.051  11.057
13649W        W14514  14.877  14.311  12.798
13650W        W14515  17.074  12.069  14.433
13651W        W14516  15.057  11.599  14.432
13652W        W14517  14.788  12.199  11.765
13653W        W14518  15.479  12.188  11.490
13654W        W14519  17.242  12.515  14.307
13655W        W14520  15.585  12.796  13.016
13656W        W14521  17.059  11.082  12.136
13657W        W14522  16.190  14.513  12.639
13658W        W14523  17.404  13.975  13.576
13659W        W14524  16.988  14.124  12.687
13660W        W14525  17.007  13.104  12.281
13661W        W14526  16.469  11.329  11.352
13662W        W14527  18.150  10.957  12.074
13663W        W14528  15.838  12.592  11.237
13664W        W14529  18.004  11.929  12.227
13665W        W14530  16.696  13.099  11.104
13666W        W14531  17.632  13.299  13.852
13667W        W14532  17.286  14.000  11.319
13668W        W14533  15.901  11.675  14.225
13669W        W14534  15.721  12.259  13.466
13670W        W14535  17.813  13.754  13.743
13671W        W14536  16.913  11.704  14.120
13672W        W14537  14.757  12.175  13.897
13673W        W14538  16.517  12.652  13.623
13674W        W14539  14.874  13.410  12.280
13675W        W14540  15.021  12.707  13.170
13676W        W14541  17.338  12.993  13.520
13677W        W14542  17.110  14.373  14.331
13678W        W14543  17.006  12.112  13.884
13679W        W14544  17.283  14.166  12.289
13680W        W14545  16.285  13.886  13.612
13681W        W14546  15.770  14.241  12.881
13682W        W14547  17.575  13.412  13.300
13683W        W14548  16.625  13.484  14.437
13684W        W14549  15.230  13.437  12.776
13685W        W14550  17.576  13.196  12.421
13686W        W14551  17.217  14.262  13.172
13687W        W14552  15.195  13.991  13.042
13688W        W14553  16.216  12.043  14.252
13689W        W14554  16.667  14.209  11.763
13690W        W14555  15.975  13.464  14.401
13691W        W14556  16.101  13.702  11.778
13692W        W14557  15.322  12.442  11.037
13693W        W14558  14.661  14.528  17.936
13694W        W14559  15.037  13.421  17.459
13695W        W14560  17.742  13.151  15.229
13696W        W14561  17.872  14.236  17.256
13697W        W14562  15.790  14.227  14.782
13698W        W14563  15.873  12.379  15.765
13699W        W14564  15.388  12.227  15.929
13700W        W14565  16.379  13.042  15.363
13701W        W14566  16.054  14.134  17.718
13702W        W14567  14.703  11.695  17.681
13703W        W14568  15.465  10.975  17.483
13704W        W14569  17.159  11.363  16.370
13705W        W14570  16.808  12.234  14.940
13706W        W14571  17.378  11.668  18.031
13707W        W14572  14.744  11.460  17.156
13708W        W14573  14.843  14.079  18.177
13709W        W14574  16.365  13.469  14.909
13710W        W14575  14.797  12.252  16.602
13711W        W14576  15.690  12.143  17.839
13712W        W14577  18.149  12.002  16.338
13713W        W14578  17.913  13.045  17.197
13714W        W14579  16.221  12.378  16.224
13715W        W14580  16.767  13.717  16.593
13716W        W14581  15.267  13.151  16.825
13717W        W14582  14.626  12.679  16.396
13718W        W14583  15.662  12.651  17.588
13719W        W14584  17.933  12.434  17.842
13720W        W14585  15.549  13.878  16.287
13721W        W14586  16.670  13.567  17.421
13722W        W14587  15.890  12.207  16.646
13723W        W14588  16.182  12.991  16.289
13724W        W14589  17.179  13.764  18.137
13725W        W14590  16.258  13.084  18.147
13726W        W14591  16.239  12.800  17.625
13727W        W14592  14.648  12.191  18.147
13728W        W14593  17.480  13.726  17.746
13729W        W14594  15.061  11.308  15.744
13730W        W14595  15.588  13.566  16.743
13731W        W14596  18.051  13.349  16.033
13732W        W14597  17.464  11.749  16.600
13733W        W14598  17.749  11.702  14.695
13734W        W14599  18.214  12.503  17.001
13735W        W14600  16.181  14.210  16.754
13736W        W14601  17.955  13.676  15.192
13737W        W14602  15.084  14.462  14.946
13738W        W14603  15.477  14.508  15.622
13739W        W14604  15.274  11.262  17.048
13740W        W14605  17.897  12.280  17.323
13741W        W14606  17.302  12.702  15.782
13742W        W14607  17.268  12.390  14.809
13743W        W14608  16.476  13.534  16.949
13744W        W14609  16.282  11.864  16.148
13745W        W14610  16.882  13.951  17.142
13746W        W14611  17.753  12.742  15.564
13747W        W14612  16.655  11.400  15.580
13748W        W14613  15.312  14.094  15.263
13749W        W14614  14.683  11.593  15.862
13750W        W14615  17.469  12.200  16.336
13751W        W14616  14.927  13.817  16.251
13752W        W14617  16.268  14.167  15.121
13753W        W14618  17.660  12.193  14.585
13754W        W14619  14.683  13.951  16.749
13755W        W14620  15.474  13.523  17.229
13756W        W14621  15.847  12.883  15.848
13757W        W14622  15.869  11.288  16.941
13758W        W14623  18.098  11.050  16.238
13759W        W14624  15.317  12.922  14.706
13760W        W14625  14.972  11.955  14.885
13761W        W14626  15.034  13.911  15.679
13762W        W14627  16.165  13.394  15.927
13763W        W14628  17.497  14.253  17.641
13764W        W14629  16.423  11.895  15.325
13765W        W14630  17.806  14.293  16.097
13766W        W14631  17.483  12.146  17.695
13767W        W14632  18.196  13.802  15.829
13768W        W14633  16.823  13.094  17.313
13769W        W14634  14.589  12.645  15.519
13770W        W14635  15.700  13.060  17.092
13771W        W14636  16.904  12.324  15.470
13772W        W14637  16.781  12.814  15.574
13773W        W14638  15.124  12.234  17.048
13774W        W14639  15.109  12.110  17.970
13775W        W14640  14.999  11.027  16.129
13776W        W14641  16.767  11.374  16.690
13777W        W14642  16.415  11.559  17.853
13778W        W14643  16.770  11.708  15.031
13779W        W14644  17.953  14.101  17.785
13780W        W14645  16.920  11.182  17.824
13781W        W14646  17.939  13.483  17.946
13782W        W14647  17.369  11.650  17.542
13783W        W14648  17.169  11.588  15.812
13784W        W14649  17.562  12.722  18.216
13785W        W14650  15.302  14.298  16.202
13786W        W14651  15.960  12.015  15.188
13787W        W14652  15.529  11.299  17.852
13788W        W14653  17.581  11.783  15.533
13789W        W14654  17.948  12.265  15.478
13790W        W14655  15.691  14.482  17.949
13791W        W14656  15.617  11.018  15.184
13792W        W14657  17.938  11.552  16.219
13793W        W14658  18.088  13.801  14.664
13794W        W14659  14.995  13.004  16.366
13795W        W14660  16.912  11.591  14.596
13796W        W14661  18.046  13.923  16.316
13797W        W14662  18.085  11.117  17.066
13798W        W14663  16.530  12.329  17.620
13799W        W14664  16.623  13.668  15.323
13800W        W14665  17.023  12.962  18.063
13801W        W14666  16.697  10.939  16.372
13802W        W14667  15.309  11.842  16.435
13803W        W14668  14.863  13.042  17.209
13804W        W14669  16.722  14.235  15.915
13805W        W14670  17.916  11.832  16.787
13806W        W14671  16.553  14.179  17.554
13807W        W14672  17.896  13.238  14.759
13808W        W14673  16.331  12.721  15.820
13809W        W14674  18.183  11.232  17.561
13810W        W14675  16.332  13.067  17.155
13811W        W14676  16.549  11.953  16.600
13812W        W14677  17.401  12.251  15.438
13813W        W14678  17.688  11.984  15.080
13814W        W14679  17.497  14.024  15.469
13815W        W14680  17.331  13.627  16.265
13816W        W14681  17.227  12.706  15.243
13817W        W14682  16.660  12.916  16.229
13818W        W14683  17.541  12.704  16.296
13819W        W14684  14.916  11.719  16.720
13820W        W14685  17.694  12.771  17.547
13821W        W14686  18.045  14.389  16.693
13822W        W14687  15.975  13.833  16.095
13823W        W14688  16.982  14.366  17.419
13824W        W14689  16.183  14.404  17.244
13825W        W14690  17.880  11.358  15.710
13826W        W14691  17.671  12.677  17.011
13827W        W14692  14.654  11.998  17.049
13828W        W14693  17.514  11.793  16.067
13829W        W14694  17.925  11.944  17.844
13830W        W14695  16.810  13.643  16.062
13831W        W14696  16.066  14.234  15.675
13832W        W14697  15.181  11.414  14.933
13833W        W14698  16.285  11.068  16.743
13834W        W14699  15.313  14.188  14.591
13835W        W14700  15.687  12.654  15.342
13836W        W14701  16.341  13.283  17.655
13837W        W14702  16.171  11.641  15.645
13838W        W14703  17.527  11.238  16.073
13839W        W14704  17.247  14.520  16.401
13840W        W14705  16.659  14.168  16.741
13841W        W14706  16.055  13.205  16.702
13842W        W14707  17.825  13.928  16.828
13843W        W14708  15.519  11.431  15.597
13844W        W14709  16.041  13.728  16.557
13845W        W14710  15.524  11.659  14.622
13846W        W14711  16.325  12.268  17.016
13847W        W14712  17.173  11.134  16.886
13848W        W14713  14.593  12.977  16.771
13849W        W14714  16.297  12.795  14.929
13850W        W14715  15.565  11.110  14.699
13851W        W14716  16.303  12.191  15.750
13852W        W14717  17.273  11.167  17.449
13853W        W14718  15.861  13.179  17.558
13854W        W14719  16.665  12.961  17.775
13855W        W14720  17.282  12.991  17.668
13856W        W14721  16.566  11.131  18.173
13857W        W14722  15.788  11.747  16.566
13858W        W14723  15.214  11.703  15.964
13859W        W14724  15.000  14.415  15.640
13860W        W14725  16.332  13.745  17.765
13861W        W14726  15.367  13.230  15.124
13862W        W14727  17.047  12.615  16.345
13863W        W14728  17.327  12.414  16.744
13864W        W14729  16.532  13.088  16.678
13865W        W14730  17.002  13.462  14.810
13866W        W14731  16.674  11.483  16.138
13867W        W14732  18.153  11.761  15.406
13868W        W14733  14.647  14.350  17.437
13869W        W14734  15.064  13.576  16.969
13870W        W14735  14.631  14.422  15.201
13871W        W14736  16.530  11.692  17.007
13872W        W14737  15.893  13.715  14.856
13873W        W14738  17.798  14.097  15.042
13874W        W14739  16.773  12.750  15.056
13875W        W14740  15.616  11.941  15.573
13876W        W14741  16.448  11.851  14.625
13877W        W14742  17.032  13.416  17.803
13878W        W14743  17.385  11.322  15.420
13879W        W14744  14.715  11.170  14.868
13880W        W14745  16.001  13.489  17.158
13881W        W14746  15.800  13.405  16.250
13882W        W14747  15.542  13.357  14.648
13883W        W14748  14.783  13.598  15.416
13884W        W14749  15.287  12.668  17.858
13885W        W14750  15.991  11.228  18.044
13886W        W14751  16.700  11.370  17.400
13887W        W14752  15.895  11.138  15.681
13888W        W14753  16.954  11.215  15.186
13889W        W14754  14.899  11.147  16.763
13890W        W14755  14.947  12.110  16.133
13891W        W14756  17.636  11.218  16.539
13892W        W14757  15.058  11.716  15.353
13893W        W14758  17.629  11.404  16.969
13894W        W14759  18.025  12.607  14.654
13895W        W14760  15.317  11.365  16.473
13896W        W14761  16.431  11.937  17.413
13897W        W14762  14.579  11.627  14.891
13898W        W14763  15.365  13.016  17.452
13899W        W14764  16.723  12.414  16.631
13900W        W14765  16.590  14.493  14.927
13901W        W14766  14.736  13.000  14.624
13902W        W14767  15.471  13.411  17.750
13903W        W14768  14.992  12.578  17.381
13904W        W14769  15.983  12.683  17.175
13905W        W14770  17.751  11.042  17.437
13906W        W14771  18.149  12.652  17.428
13907W        W14772  18.137  12.852  15.114
13908W        W14773  17.000  13.184  15.213
13909W        W14774  17.474  14.484  14.908
13910W        W14775  16.651  12.474  18.050
13911W        W14776  14.981  13.441  18.090
13912W        W14777  18.187  11.363  18.042
13913W        W14778  17.905  12.291  16.663
13914W        W14779  16.213  14.421  18.140
13915W        W14780  16.068  11.050  14.867
13916W        W14781  17.607  13.649  14.810
13917W        W14782  15.376  11.742  17.696
13918W        W14783  15.810  13.736  17.558
13919W        W14784  17.936  11.727  17.356
13920W        W14785  17.147  14.386  15.324
13921W        W14786  17.386  13.005  16.691
13922W        W14787  15.636  11.421  17.358
13923W        W14788  16.105  12.490  18.115
13924W        W14789  15.608  13.669  15.309
13925W        W14790  17.363  13.167  15.573
13926W        W14791  15.131  11.793  17.297
13927W        W14792  16.460  13.855  15.761
13928W        W14793  18.210  12.415  15.942
13929W        W14794  16.432  11.048  17.661
13930W        W14795  17.212  13.753  16.740
13931W        W14796  17.515  14.097  16.448
13932W        W14797  16.734  13.899  14.876
13933W        W14798  14.744  13.791  17.718
13934W        W14799  15.487  11.783  16.956
13935W        W14800  15.457  11.131  16.066
13936W        W14801  17.078  11.973  16.758
13937W        W14802  15.876  13.144  14.958
13938W        W14803  17.874  13.086  16.457
13939W        W14804  15.201  13.844  17.880
13940W        W14805  17.588  14.526  15.677
13941W        W14806  15.687  11.546  16.122
13942W        W14807  15.456  13.039  16.212
13943W        W14808  15.769  14.450  16.962
13944W        W14809  17.836  14.546  17.994
13945W        W14810  16.995  12.734  16.927
13946W        W14811  14.844  12.532  14.842
13947W        W14812  17.978  14.190  15.539
13948W        W14813  17.815  11.514  15.158
13949W        W14814  15.954  11.033  17.561
13950W        W14815  17.660  13.835  16.019
13951W        W14816  17.689  12.391  15.924
13952W        W14817  15.806  12.064  16.140
13953W        W14818  16.051  12.326  17.464
13954W        W14819  17.162  13.479  17.327
13955W        W14820  15.812  11.933  17.439
13956W        W14821  15.791  14.399  16.055
13957W        W14822  15.108  14.358  17.689
13958W        W14823  15.220  13.719  14.819
13959W        W14824  17.737  13.477  15.629
13960W        W14825  15.341  12.269  17.515
13961W        W14826  18.114  12.199  14.996
13962W        W14827  15.859  13.256  15.467
13963W        W14828  16.958  12.638  17.548
13964W        W14829  16.849  12.266  17.092
13965W        W14830  15.409  12.638  17.121
13966W        W14831  17.619  14.526  16.950
13967W        W14832  17.410  11.160  17.944
13968W        W14833  15.074  11.310  17.531
13969W        W14834  15.413  12.333  16.584
13970W        W14835  15.782  12.147  14.706
13971W        W14836  14.585  13.906  17.251
13972W        W14837  16.170  12.615  16.694
13973W        W14838  15.993  11.640  14.799
13974W        W14839  15.128  12.456  15.580
13975W        W14840  14.899  14.308  17.017
13976W        W14841  17.694  12.534  15.125
13977W        W14842  17.789  11.450  17.811
13978W        W14843  17.225  13.659  15.774
13979W        W14844  14.823  12.583  17.951
13980W        W14845  17.789  11.047  15.247
13981W        W14846  17.309  13.522  15.258
13982W        W14847  16.211  12.580  15.343
13983W        W14848  17.398  11.384  14.866
13984W        W14849  17.463  11.991  17.052
13985W        W14850  15.172  12.584  16.259
13986W        W14851  15.466  13.523  15.908
13987W        W14852  17.229  12.143  15.873
13988W        W14853  16.252  11.522  16.569
13989W        W14854  18.214  13.433  17.080
13990W        W14855  18.132  11.420  16.641
13991W        W14856  14.671  14.250  16.017
13992W        W14857  15.180  13.437  15.553
13993W        W14858  15.095  11.054  18.106
13994W        W14859  16.214  13.907  18.208
13995W        W14860  17.969  12.875  15.998
13996W        W14861  17.323  13.052  14.878
13997W        W14862  16.618  14.573  17.090
13998W        W14863  17.475  13.295  18.127
13999W        W14864  16.290  11.005  15.407
14000W        W14865  17.003  11.874  16.266
14001W        W14866  14.689  13.461  16.598
14002W        W14867  15.942  11.423  15.239
14003W        W14868  15.746  12.907  18.088
14004W        W14869  16.740  11.888  15.802
14005W        W14870  16.945  13.298  16.924
14006W        W14871  15.099  13.903  17.359
14007W        W14872  15.690  13.886  18.082
14008W        W14873  15.541  11.683  15.096
14009W        W14874  17.058  11.825  15.421
14010W        W14875  17.016  13.933  17.658
14011W        W14876  15.701  12.525  16.257
14012W        W14877  15.356  14.223  17.122
14013W        W14878  18.101  14.340  14.723
14014W        W14879  14.964  13.012  17.719
14015W        W14880  16.959  13.274  16.407
14016W        W14881  15.395  12.923  15.649
14017W        W14882  15.766  13.930  17.044
14018W        W14883  16.144  11.349  16.085
14019W        W14884  14.755  13.333  15.015
14020W        W14885  16.274  12.284  14.885
14021W        W14886  14.920  12.833  15.904
14022W        W14887  16.210  11.475  17.368
14023W        W14888  17.882  11.184  14.795
14024W        W14889  17.975  12.930  17.894
14025W        W14890  16.629  14.187  18.046
14026W        W14891  18.187  13.281  17.568
14027W        W14892  17.595  14.079  18.179
14028W        W14893  15.334  14.535  16.657
14029W        W14894  18.193  13.157  15.531
14030W        W14895  16.723  12.424  16.044
14031W        W14896  16.490  11.036  15.934
14032W        W14897  15.549  14.020  15.771
14033W        W14898  16.048  11.761  16.996
14034W        W14899  15.748  11.130  16.465
14035W        W14900  14.811  13.952  15.013
14036W        W14901  16.627  13.316  15.731
14037W        W14902  15.502  14.111  17.610
14038W        W14903  14.979  12.934  15.306
14039W        W14904  14.864  11.477  16.305
14040W        W14905  16.412  13.442  16.362
14041W        W14906  14.664  11.296  15.382
14042W        W14907  17.328  12.502  17.309
14043W        W14908  17.205  11.888  14.881
14044W        W14909  17.722  13.560  16.529
14045W        W14910  16.383  14.044  16.360
14046W        W14911  15.795  14.148  15.271
14047W        W14912  17.077  11.051  14.701
14048W        W14913  14.877  14.311  16.442
14049W        W14914  17.074  12.069  18.077
14050W        W14915  15.057  11.599  18.076
14051W        W14916  14.788  12.199  15.409
14052W        W14917  15.479  12.188  15.134
14053W        W14918  17.242  12.515  17.951
14054W        W14919  15.585  12.796  16.660
14055W        W14920  17.059  11.082  15.780
14056W        W14921  16.190  14.513  16.283
14057W        W14922  17.404  13.975  17.220
14058W        W14923  16.988  14.124  16.331
14059W        W14924  17.007  13.104  15.925
14060W        W14925  16.469  11.329  14.996
14061W        W14926  18.150  10.957  15.718
14062W        W14927  15.838  12.592  14.881
14063W        W14928  18.004  11.929  15.871
14064W        W14929  16.696  13.099  14.748
14065W        W14930  17.632  13.299  17.496
14066W        W14931  17.286  14.000  14.963
14067W        W14932  15.901  11.675  17.869
14068W        W14933  15.721  12.259  17.110
14069W        W14934  17.813  13.754  17.387
14070W        W14935  16.913  11.704  17.764
14071W        W14936  14.757  12.175  17.541
14072W        W14937  16.517  12.652  17.267
14073W        W14938  14.874  13.410  15.924
14074W        W14939  15.021  12.707  16.814
14075W        W14940  17.338  12.993  17.164
14076W        W14941  17.110  14.373  17.975
14077W        W14942  17.006  12.112  17.528
14078W        W14943  17.283  14.166  15.933
14079W        W14944  16.285  13.886  17.256
14080W        W14945  15.770  14.241  16.525
14081W        W14946  17.575  13.412  16.944
14082W        W14947  16.625  13.484  18.081
14083W        W14948  15.230  13.437  16.420
14084W        W14949  17.576  13.196  16.065
14085W        W14950  17.217  14.262  16.816
14086W        W14951  15.195  13.991  16.686
14087W        W14952  16.216  12.043  17.896
14088W        W14953  16.667  14.209  15.407
14089W        W14954  15.975  13.464  18.045
14090W        W14955  16.101  13.702  15.422
14091W        W14956  15.322  12.442  14.681
14092W        W14957  14.661  14.528  21.580
14093W        W14958  15.037  13.421  21.103
14094W        W14959  17.742  13.151  18.873
14095W        W14960  17.872  14.236  20.900
14096W        W14961  15.790  14.227  18.426
14097W        W14962  15.873  12.379  19.409
14098W        W14963  15.388  12.227  19.573
14099W        W14964  16.379  13.042  19.007
14100W        W14965  16.054  14.134  21.362
14101W        W14966  14.703  11.695  21.325
14102W        W14967  15.465  10.975  21.127
14103W        W14968  17.159  11.363  20.014
14104W        W14969  16.808  12.234  18.584
14105W        W14970  17.378  11.668  21.675
14106W        W14971  14.744  11.460  20.800
14107W        W14972  14.843  14.079  21.821
14108W        W14973  16.365  13.469  18.553
14109W        W14974  14.797  12.252  20.246
14110W        W14975  15.690  12.143  21.483
14111W        W14976  18.149  12.002  19.982
14112W        W14977  17.913  13.045  20.841
14113W        W14978  16.221  12.378  19.868
14114W        W14979  16.767  13.717  20.237
14115W        W14980  15.267  13.151  20.469
14116W        W14981  14.626  12.679  20.040
14117W        W14982  15.662  12.651  21.232
14118W        W14983  17.933  12.434  21.486
14119W        W14984  15.549  13.878  19.931
14120W        W14985  16.670  13.567  21.065
14121W        W14986  15.890  12.207  20.290
14122W        W14987  16.182  12.991  19.933
14123W        W14988  17.179  13.764  21.781
14124W        W14989  16.258  13.084  21.791
14125W        W14990  16.239  12.800  21.269
14126W        W14991  14.648  12.191  21.791
14127W        W14992  17.480  13.726  21.390
14128W        W14993  15.061  11.308  19.388
14129W        W14994  15.588  13.566  20.387
14130W        W14995  18.051  13.349  19.677
14131W        W14996  17.464  11.749  20.244
14132W        W14997  17.749  11.702  18.339
14133W        W14998  18.214  12.503  20.645
14134W        W14999  16.181  14.210  20.398
14135W        W15000  17.955  13.676  18.836
14136W        W15001  15.084  14.462  18.590
14137W        W15002  15.477  14.508  19.266
14138W        W15003  15.274  11.262  20.692
14139W        W15004  17.897  12.280  20.967
14140W        W15005  17.302  12.702  19.426
14141W        W15006  17.268  12.390  18.453
14142W        W15007  16.476  13.534  20.593
14143W        W15008  16.282  11.864  19.792
14144W        W15009  16.882  13.951  20.786
14145W        W15010  17.753  12.742  19.208
14146W        W15011  16.655  11.400  19.224
14147W        W15012  15.312  14.094  18.907
14148W        W15013  14.683  11.593  19.506
14149W        W15014  17.469  12.200  19.980
14150W        W15015  14.927  13.817  19.895
14151W        W15016  16.268  14.167  18.765
14152W        W15017  17.660  12.193  18.229
14153W        W15018  14.683  13.951  20.393
14154W        W15019  15.474  13.523  20.873
14155W        W15020  15.847  12.883  19.492
14156W        W15021  15.869  11.288  20.585
14157W        W15022  18.098  11.050  19.882
14158W        W15023  15.317  12.922  18.350
14159W        W15024  14.972  11.955  18.529
14160W        W15025  15.034  13.911  19.323
14161W        W15026  16.165  13.394  19.571
14162W        W15027  17.497  14.253  21.285
14163W        W15028  16.423  11.895  18.969
14164W        W15029  17.806  14.293  19.741
14165W        W15030  17.483  12.146  21.339
14166W        W15031  18.196  13.802  19.473
14167W        W15032  16.823  13.094  20.957
14168W        W15033  14.589  12.645  19.163
14169W        W15034  15.700  13.060  20.736
14170W        W15035  16.904  12.324  19.114
14171W        W15036  16.781  12.814  19.218
14172W        W15037  15.124  12.234  20.692
14173W        W15038  15.109  12.110  21.614
14174W        W15039  14.999  11.027  19.773
14175W        W15040  16.767  11.374  20.334
14176W        W15041  16.415  11.559  21.497
14177W        W15042  16.770  11.708  18.675
14178W        W15043  17.953  14.101  21.429
14179W        W15044  16.920  11.182  21.468
14180W        W15045  17.939  13.483  21.590
14181W        W15046  17.369  11.650  21.186
14182W        W15047  17.169  11.588  19.456
14183W        W15048  17.562  12.722  21.860
14184W        W15049  15.302  14.298  19.846
14185W        W15050  15.960  12.015  18.832
14186W        W15051  15.529  11.299  21.496
14187W        W15052  17.581  11.783  19.177
14188W        W15053  17.948  12.265  19.122
14189W        W15054  15.691  14.482  21.593
14190W        W15055  15.617  11.018  18.828
14191W        W15056  17.938  11.552  19.863
14192W        W15057  18.088  13.801  18.308
14193W        W15058  14.995  13.004  20.010
14194W        W15059  16.912  11.591  18.240
14195W        W15060  18.046  13.923  19.960
14196W        W15061  18.085  11.117  20.710
14197W        W15062  16.530  12.329  21.264
14198W        W15063  16.623  13.668  18.967
14199W        W15064  17.023  12.962  21.707
14200W        W15065  16.697  10.939  20.016
14201W        W15066  15.309  11.842  20.079
14202W        W15067  14.863  13.042  20.853
14203W        W15068  16.722  14.235  19.559
14204W        W15069  17.916  11.832  20.431
14205W        W15070  16.553  14.179  21.198
14206W        W15071  17.896  13.238  18.403
14207W        W15072  16.331  12.721  19.464
14208W        W15073  18.183  11.232  21.205
14209W        W15074  16.332  13.067  20.799
14210W        W15075  16.549  11.953  20.244
14211W        W15076  17.401  12.251  19.082
14212W        W15077  17.688  11.984  18.724
14213W        W15078  17.497  14.024  19.113
14214W        W15079  17.331  13.627  19.909
14215W        W15080  17.227  12.706  18.887
14216W        W15081  16.660  12.916  19.873
14217W        W15082  17.541  12.704  19.940
14218W        W15083  14.916  11.719  20.364
14219W        W15084  17.694  12.771  21.191
14220W        W15085  18.045  14.389  20.337
14221W        W15086  15.975  13.833  19.739
14222W        W15087  16.982  14.366  21.063
14223W        W15088  16.976  11.696  20.827
14224W        W15089  16.183  14.404  20.888
14225W        W15090  17.880  11.358  19.354
14226W        W15091  17.671  12.677  20.655
14227W        W15092  14.654  11.998  20.693
14228W        W15093  17.514  11.793  19.711
14229W        W15094  17.925  11.944  21.488
14230W        W15095  16.810  13.643  19.706
14231W        W15096  16.066  14.234  19.319
14232W        W15097  15.181  11.414  18.577
14233W        W15098  16.285  11.068  20.387
14234W        W15099  15.313  14.188  18.235
14235W        W15100  15.687  12.654  18.986
14236W        W15101  16.341  13.283  21.299
14237W        W15102  16.171  11.641  19.289
14238W        W15103  17.527  11.238  19.717
14239W        W15104  17.247  14.520  20.045
14240W        W15105  16.659  14.168  20.385
14241W        W15106  16.055  13.205  20.346
14242W        W15107  17.825  13.928  20.472
14243W        W15108  15.519  11.431  19.241
14244W        W15109  16.041  13.728  20.201
14245W        W15110  15.524  11.659  18.266
14246W        W15111  16.325  12.268  20.660
14247W        W15112  17.173  11.134  20.530
14248W        W15113  14.593  12.977  20.415
14249W        W15114  16.297  12.795  18.573
14250W        W15115  15.565  11.110  18.343
14251W        W15116  16.303  12.191  19.394
14252W        W15117  17.273  11.167  21.093
14253W        W15118  15.861  13.179  21.202
14254W        W15119  16.665  12.961  21.419
14255W        W15120  17.282  12.991  21.312
14256W        W15121  16.566  11.131  21.817
14257W        W15122  15.788  11.747  20.210
14258W        W15123  15.214  11.703  19.608
14259W        W15124  15.000  14.415  19.284
14260W        W15125  16.332  13.745  21.409
14261W        W15126  15.367  13.230  18.768
14262W        W15127  17.047  12.615  19.989
14263W        W15128  17.327  12.414  20.388
14264W        W15129  16.532  13.088  20.322
14265W        W15130  17.002  13.462  18.454
14266W        W15131  16.674  11.483  19.782
14267W        W15132  18.153  11.761  19.050
14268W        W15133  14.647  14.350  21.081
14269W        W15134  15.064  13.576  20.613
14270W        W15135  14.631  14.422  18.845
14271W        W15136  16.530  11.692  20.651
14272W        W15137  15.893  13.715  18.500
14273W        W15138  17.798  14.097  18.686
14274W        W15139  16.773  12.750  18.700
14275W        W15140  15.616  11.941  19.217
14276W        W15141  16.448  11.851  18.269
14277W        W15142  17.032  13.416  21.447
14278W        W15143  17.385  11.322  19.064
14279W        W15144  14.715  11.170  18.512
14280W        W15145  16.001  13.489  20.802
14281W        W15146  15.800  13.405  19.894
14282W        W15147  15.542  13.357  18.292
14283W        W15148  14.783  13.598  19.060
14284W        W15149  15.287  12.668  21.502
14285W        W15150  15.991  11.228  21.688
14286W        W15151  16.700  11.370  21.044
14287W        W15152  15.895  11.138  19.325
14288W        W15153  16.954  11.215  18.830
14289W        W15154  14.899  11.147  20.407
14290W        W15155  14.947  12.110  19.777
14291W        W15156  17.636  11.218  20.183
14292W        W15157  15.058  11.716  18.997
14293W        W15158  18.025  12.607  18.298
14294W        W15159  15.317  11.365  20.117
14295W        W15160  16.431  11.937  21.057
14296W        W15161  14.579  11.627  18.535
14297W        W15162  15.365  13.016  21.096
14298W        W15163  16.723  12.414  20.275
14299W        W15164  16.590  14.493  18.571
14300W        W15165  14.736  13.000  18.268
14301W        W15166  15.471  13.411  21.394
14302W        W15167  14.992  12.578  21.025
14303W        W15168  15.983  12.683  20.819
14304W        W15169  17.751  11.042  21.081
14305W        W15170  18.149  12.652  21.072
14306W        W15171  18.137  12.852  18.758
14307W        W15172  17.000  13.184  18.857
14308W        W15173  17.474  14.484  18.552
14309W        W15174  16.651  12.474  21.694
14310W        W15175  14.981  13.441  21.734
14311W        W15176  18.187  11.363  21.686
14312W        W15177  17.905  12.291  20.307
14313W        W15178  16.213  14.421  21.784
14314W        W15179  16.068  11.050  18.511
14315W        W15180  17.607  13.649  18.454
14316W        W15181  15.376  11.742  21.340
14317W        W15182  15.810  13.736  21.202
14318W        W15183  17.936  11.727  21.000
14319W        W15184  17.147  14.386  18.968
14320W        W15185  17.386  13.005  20.335
14321W        W15186  15.636  11.421  21.002
14322W        W15187  16.105  12.490  21.759
14323W        W15188  15.608  13.669  18.953
14324W        W15189  17.363  13.167  19.217
14325W        W15190  15.131  11.793  20.941
14326W        W15191  16.460  13.855  19.405
14327W        W15192  18.210  12.415  19.586
14328W        W15193  16.432  11.048  21.305
14329W        W15194  17.212  13.753  20.384
14330W        W15195  17.515  14.097  20.092
14331W        W15196  16.734  13.899  18.520
14332W        W15197  14.744  13.791  21.362
14333W        W15198  15.487  11.783  20.600
14334W        W15199  15.457  11.131  19.710
14335W        W15200  17.078  11.973  20.402
14336W        W15201  15.876  13.144  18.602
14337W        W15202  17.874  13.086  20.101
14338W        W15203  15.201  13.844  21.524
14339W        W15204  17.588  14.526  19.321
14340W        W15205  15.687  11.546  19.766
14341W        W15206  15.456  13.039  19.856
14342W        W15207  15.769  14.450  20.606
14343W        W15208  17.836  14.546  21.638
14344W        W15209  16.995  12.734  20.571
14345W        W15210  14.844  12.532  18.486
14346W        W15211  17.978  14.190  19.183
14347W        W15212  17.815  11.514  18.802
14348W        W15213  15.954  11.033  21.205
14349W        W15214  17.660  13.835  19.663
14350W        W15215  17.689  12.391  19.568
14351W        W15216  15.806  12.064  19.784
14352W        W15217  16.051  12.326  21.108
14353W        W15218  17.162  13.479  20.971
14354W        W15219  15.812  11.933  21.083
14355W        W15220  15.791  14.399  19.699
14356W        W15221  15.108  14.358  21.333
14357W        W15222  15.220  13.719  18.463
14358W        W15223  17.737  13.477  19.273
14359W        W15224  15.341  12.269  21.159
14360W        W15225  18.114  12.199  18.640
14361W        W15226  15.859  13.256  19.111
14362W        W15227  16.958  12.638  21.192
14363W        W15228  16.849  12.266  20.736
14364W        W15229  15.409  12.638  20.765
14365W        W15230  17.619  14.526  20.594
14366W        W15231  17.410  11.160  21.588
14367W        W15232  15.074  11.310  21.175
14368W        W15233  15.413  12.333  20.228
14369W        W15234  15.782  12.147  18.350
14370W        W15235  14.585  13.906  20.895
14371W        W15236  16.170  12.615  20.338
14372W        W15237  15.993  11.640  18.443
14373W        W15238  15.128  12.456  19.224
14374W        W15239  14.899  14.308  20.661
14375W        W15240  17.694  12.534  18.769
14376W        W15241  17.789  11.450  21.455
14377W        W15242  17.225  13.659  19.418
14378W        W15243  14.823  12.583  21.595
14379W        W15244  17.789  11.047  18.891
14380W        W15245  17.309  13.522  18.902
14381W        W15246  16.211  12.580  18.987
14382W        W15247  17.398  11.384  18.510
14383W        W15248  17.463  11.991  20.696
14384W        W15249  15.172  12.584  19.903
14385W        W15250  15.466  13.523  19.552
14386W        W15251  17.229  12.143  19.517
14387W        W15252  16.252  11.522  20.213
14388W        W15253  18.214  13.433  20.724
14389W        W15254  18.132  11.420  20.285
14390W        W15255  14.671  14.250  19.661
14391W        W15256  15.180  13.437  19.197
14392W        W15257  15.095  11.054  21.750
14393W        W15258  16.214  13.907  21.852
14394W        W15259  17.969  12.875  19.642
14395W        W15260  17.323  13.052  18.522
14396W        W15261  16.618  14.573  20.734
14397W        W15262  17.475  13.295  21.771
14398W        W15263  16.290  11.005  19.051
14399W        W15264  17.003  11.874  19.910
14400W        W15265  14.689  13.461  20.242
14401W        W15266  15.942  11.423  18.883
14402W        W15267  15.746  12.907  21.732
14403W        W15268  16.740  11.888  19.446
14404W        W15269  16.945  13.298  20.568
14405W        W15270  15.099  13.903  21.003
14406W        W15271  15.690  13.886  21.726
14407W        W15272  15.541  11.683  18.740
14408W        W15273  17.058  11.825  19.065
14409W        W15274  17.016  13.933  21.302
14410W        W15275  15.701  12.525  19.901
14411W        W15276  15.356  14.223  20.766
14412W        W15277  18.101  14.340  18.367
14413W        W15278  14.964  13.012  21.363
14414W        W15279  16.959  13.274  20.051
14415W        W15280  15.395  12.923  19.293
14416W        W15281  15.766  13.930  20.688
14417W        W15282  16.144  11.349  19.729
14418W        W15283  14.755  13.333  18.659
14419W        W15284  16.274  12.284  18.529
14420W        W15285  14.920  12.833  19.548
14421W        W15286  16.210  11.475  21.012
14422W        W15287  17.882  11.184  18.439
14423W        W15288  17.975  12.930  21.538
14424W        W15289  16.629  14.187  21.690
14425W        W15290  18.187  13.281  21.212
14426W        W15291  17.595  14.079  21.823
14427W        W15292  15.334  14.535  20.301
14428W        W15293  18.193  13.157  19.175
14429W        W15294  16.723  12.424  19.688
14430W        W15295  16.490  11.036  19.578
14431W        W15296  15.549  14.020  19.415
14432W        W15297  16.048  11.761  20.640
14433W        W15298  15.748  11.130  20.109
14434W        W15299  14.811  13.952  18.657
14435W        W15300  16.627  13.316  19.375
14436W        W15301  15.502  14.111  21.254
14437W        W15302  14.979  12.934  18.950
14438W        W15303  14.864  11.477  19.949
14439W        W15304  16.412  13.442  20.006
14440W        W15305  14.664  11.296  19.026
14441W        W15306  17.328  12.502  20.953
14442W        W15307  17.205  11.888  18.525
14443W        W15308  17.722  13.560  20.173
14444W        W15309  16.383  14.044  20.004
14445W        W15310  15.795  14.148  18.915
14446W        W15311  17.077  11.051  18.345
14447W        W15312  14.877  14.311  20.086
14448W        W15313  17.074  12.069  21.721
14449W        W15314  15.057  11.599  21.720
14450W        W15315  14.788  12.199  19.053
14451W        W15316  15.479  12.188  18.778
14452W        W15317  17.242  12.515  21.595
14453W        W15318  15.585  12.796  20.304
14454W        W15319  17.059  11.082  19.424
14455W        W15320  16.190  14.513  19.927
14456W        W15321  17.404  13.975  20.864
14457W        W15322  16.988  14.124  19.975
14458W        W15323  17.007  13.104  19.569
14459W        W15324  16.469  11.329  18.640
14460W        W15325  18.150  10.957  19.362
14461W        W15326  15.838  12.592  18.525
14462W        W15327  18.004  11.929  19.515
14463W        W15328  16.696  13.099  18.392
14464W        W15329  17.632  13.299  21.140
14465W        W15330  17.286  14.000  18.607
14466W        W15331  15.901  11.675  21.513
14467W        W15332  15.721  12.259  20.754
14468W        W15333  17.813  13.754  21.031
14469W        W15334  16.913  11.704  21.408
14470W        W15335  14.757  12.175  21.185
14471W        W15336  16.517  12.652  20.911
14472W        W15337  14.874  13.410  19.568
14473W        W15338  15.021  12.707  20.458
14474W        W15339  17.338  12.993  20.808
14475W        W15340  17.110  14.373  21.619
14476W        W15341  17.006  12.112  21.172
14477W        W15342  17.283  14.166  19.577
14478W        W15343  16.285  13.886  20.900
14479W        W15344  15.770  14.241  20.169
14480W        W15345  17.575  13.412  20.588
14481W        W15346  16.625  13.484  21.725
14482W        W15347  15.230  13.437  20.064
14483W        W15348  17.576  13.196  19.709
14484W        W15349  17.217  14.262  20.460
14485W        W15350  15.195  13.991  20.330
14486W        W15351  16.216  12.043  21.540
14487W        W15352  16.667  14.209  19.051
14488W        W15353  15.975  13.464  21.689
14489W        W15354  16.101  13.702  19.066
14490W        W15355  15.322  12.442  18.325
14491W        W15356  14.661  14.528  25.225
14492W        W15357  15.037  13.421  24.748
14493W        W15358  17.742  13.151  22.518
14494W        W15359  17.872  14.236  24.545
14495W        W15360  15.790  14.227  22.071
14496W        W15361  15.873  12.379  23.054
14497W        W15362  15.388  12.227  23.218
14498W        W15363  16.379  13.042  22.652
14499W        W15364  16.054  14.134  25.007
14500W        W15365  14.703  11.695  24.970
14501W        W15366  15.465  10.975  24.772
14502W        W15367  17.159  11.363  23.659
14503W        W15368  16.808  12.234  22.229
14504W        W15369  17.378  11.668  25.320
14505W        W15370  14.744  11.460  24.445
14506W        W15371  14.843  14.079  25.466
14507W        W15372  16.365  13.469  22.198
14508W        W15373  14.797  12.252  23.891
14509W        W15374  15.690  12.143  25.128
14510W        W15375  18.149  12.002  23.627
14511W        W15376  17.913  13.045  24.486
14512W        W15377  16.221  12.378  23.513
14513W        W15378  16.767  13.717  23.882
14514W        W15379  15.267  13.151  24.114
14515W        W15380  14.626  12.679  23.685
14516W        W15381  15.662  12.651  24.877
14517W        W15382  17.933  12.434  25.131
14518W        W15383  15.549  13.878  23.576
14519W        W15384  16.670  13.567  24.710
14520W        W15385  15.890  12.207  23.935
14521W        W15386  16.182  12.991  23.578
14522W        W15387  17.179  13.764  25.426
14523W        W15388  16.258  13.084  25.436
14524W        W15389  16.239  12.800  24.914
14525W        W15390  14.648  12.191  25.436
14526W        W15391  17.480  13.726  25.035
14527W        W15392  15.061  11.308  23.033
14528W        W15393  15.588  13.566  24.032
14529W        W15394  18.051  13.349  23.322
14530W        W15395  17.464  11.749  23.889
14531W        W15396  17.749  11.702  21.984
14532W        W15397  18.214  12.503  24.290
14533W        W15398  16.181  14.210  24.043
14534W        W15399  17.955  13.676  22.481
14535W        W15400  15.084  14.462  22.235
14536W        W15401  15.477  14.508  22.911
14537W        W15402  15.274  11.262  24.337
14538W        W15403  17.897  12.280  24.612
14539W        W15404  17.302  12.702  23.071
14540W        W15405  17.268  12.390  22.098
14541W        W15406  16.476  13.534  24.238
14542W        W15407  16.282  11.864  23.437
14543W        W15408  16.882  13.951  24.431
14544W        W15409  17.753  12.742  22.853
14545W        W15410  16.655  11.400  22.869
14546W        W15411  15.312  14.094  22.552
14547W        W15412  14.683  11.593  23.151
14548W        W15413  17.469  12.200  23.625
14549W        W15414  14.927  13.817  23.540
14550W        W15415  16.268  14.167  22.410
14551W        W15416  17.660  12.193  21.874
14552W        W15417  14.683  13.951  24.038
14553W        W15418  15.474  13.523  24.518
14554W        W15419  15.847  12.883  23.137
14555W        W15420  15.869  11.288  24.230
14556W        W15421  18.098  11.050  23.527
14557W        W15422  15.317  12.922  21.995
14558W        W15423  14.972  11.955  22.174
14559W        W15424  15.034  13.911  22.968
14560W        W15425  16.165  13.394  23.216
14561W        W15426  17.497  14.253  24.930
14562W        W15427  16.423  11.895  22.614
14563W        W15428  17.806  14.293  23.386
14564W        W15429  17.483  12.146  24.984
14565W        W15430  18.196  13.802  23.118
14566W        W15431  16.823  13.094  24.602
14567W        W15432  14.589  12.645  22.808
14568W        W15433  15.700  13.060  24.381
14569W        W15434  16.904  12.324  22.759
14570W        W15435  16.781  12.814  22.863
14571W        W15436  15.124  12.234  24.337
14572W        W15437  15.109  12.110  25.259
14573W        W15438  14.999  11.027  23.418
14574W        W15439  16.767  11.374  23.979
14575W        W15440  16.415  11.559  25.142
14576W        W15441  16.770  11.708  22.320
14577W        W15442  17.953  14.101  25.074
14578W        W15443  16.920  11.182  25.113
14579W        W15444  17.939  13.483  25.235
14580W        W15445  17.369  11.650  24.831
14581W        W15446  17.169  11.588  23.101
14582W        W15447  17.562  12.722  25.505
14583W        W15448  15.302  14.298  23.491
14584W        W15449  15.960  12.015  22.477
14585W        W15450  15.529  11.299  25.141
14586W        W15451  17.581  11.783  22.822
14587W        W15452  17.948  12.265  22.767
14588W        W15453  15.691  14.482  25.238
14589W        W15454  15.617  11.018  22.473
14590W        W15455  17.938  11.552  23.508
14591W        W15456  18.088  13.801  21.953
14592W        W15457  14.995  13.004  23.655
14593W        W15458  16.912  11.591  21.885
14594W        W15459  18.046  13.923  23.605
14595W        W15460  18.085  11.117  24.355
14596W        W15461  16.530  12.329  24.909
14597W        W15462  16.623  13.668  22.612
14598W        W15463  17.023  12.962  25.352
14599W        W15464  16.697  10.939  23.661
14600W        W15465  15.309  11.842  23.724
14601W        W15466  14.863  13.042  24.498
14602W        W15467  16.722  14.235  23.204
14603W        W15468  17.916  11.832  24.076
14604W        W15469  16.553  14.179  24.843
14605W        W15470  17.896  13.238  22.048
14606W        W15471  16.331  12.721  23.109
14607W        W15472  18.183  11.232  24.850
14608W        W15473  16.332  13.067  24.444
14609W        W15474  16.549  11.953  23.889
14610W        W15475  17.401  12.251  22.727
14611W        W15476  17.688  11.984  22.369
14612W        W15477  17.497  14.024  22.758
14613W        W15478  17.331  13.627  23.554
14614W        W15479  17.227  12.706  22.532
14615W        W15480  16.660  12.916  23.518
14616W        W15481  17.541  12.704  23.585
14617W        W15482  14.916  11.719  24.009
14618W        W15483  17.694  12.771  24.836
14619W        W15484  18.045  14.389  23.982
14620W        W15485  15.975  13.833  23.384
14621W        W15486  16.982  14.366  24.708
14622W        W15487  16.976  11.696  24.472
14623W        W15488  16.183  14.404  24.533
14624W        W15489  17.880  11.358  22.999
14625W        W15490  17.671  12.677  24.300
14626W        W15491  14.654  11.998  24.338
14627W        W15492  17.514  11.793  23.356
14628W        W15493  17.925  11.944  25.133
14629W        W15494  16.810  13.643  23.351
14630W        W15495  16.066  14.234  22.964
14631W        W15496  15.181  11.414  22.222
14632W        W15497  16.285  11.068  24.032
14633W        W15498  15.313  14.188  21.880
14634W        W15499  15.687  12.654  22.631
14635W        W15500  16.341  13.283  24.944
14636W        W15501  16.171  11.641  22.934
14637W        W15502  17.527  11.238  23.362
14638W        W15503  17.247  14.520  23.690
14639W        W15504  16.659  14.168  24.030
14640W        W15505  16.055  13.205  23.991
14641W        W15506  17.825  13.928  24.117
14642W        W15507  15.519  11.431  22.886
14643W        W15508  16.041  13.728  23.846
14644W        W15509  15.524  11.659  21.911
14645W        W15510  16.325  12.268  24.305
14646W        W15511  17.173  11.134  24.175
14647W        W15512  14.593  12.977  24.060
14648W        W15513  16.297  12.795  22.218
14649W        W15514  15.565  11.110  21.988
14650W        W15515  16.303  12.191  23.039
14651W        W15516  17.273  11.167  24.738
14652W        W15517  15.861  13.179  24.847
14653W        W15518  16.665  12.961  25.064
14654W        W15519  17.282  12.991  24.957
14655W        W15520  16.566  11.131  25.462
14656W        W15521  15.788  11.747  23.855
14657W        W15522  15.214  11.703  23.253
14658W        W15523  15.000  14.415  22.929
14659W        W15524  16.332  13.745  25.054
14660W        W15525  15.367  13.230  22.413
14661W        W15526  17.047  12.615  23.634
14662W        W15527  17.327  12.414  24.033
14663W        W15528  16.532  13.088  23.967
14664W        W15529  17.002  13.462  22.099
14665W        W15530  16.674  11.483  23.427
14666W        W15531  18.153  11.761  22.695
14667W        W15532  14.647  14.350  24.726
14668W        W15533  15.064  13.576  24.258
14669W        W15534  14.631  14.422  22.490
14670W        W15535  16.530  11.692  24.296
14671W        W15536  15.893  13.715  22.145
14672W        W15537  17.798  14.097  22.331
14673W        W15538  16.773  12.750  22.345
14674W        W15539  15.616  11.941  22.862
14675W        W15540  16.448  11.851  21.914
14676W        W15541  17.032  13.416  25.092
14677W        W15542  17.385  11.322  22.709
14678W        W15543  14.715  11.170  22.157
14679W        W15544  16.001  13.489  24.447
14680W        W15545  15.800  13.405  23.539
14681W        W15546  15.542  13.357  21.937
14682W        W15547  14.783  13.598  22.705
14683W        W15548  15.287  12.668  25.147
14684W        W15549  15.991  11.228  25.333
14685W        W15550  16.700  11.370  24.689
14686W        W15551  15.895  11.138  22.970
14687W        W15552  16.954  11.215  22.475
14688W        W15553  14.899  11.147  24.052
14689W        W15554  14.947  12.110  23.422
14690W        W15555  17.636  11.218  23.828
14691W        W15556  15.058  11.716  22.642
14692W        W15557  17.629  11.404  24.258
14693W        W15558  18.025  12.607  21.943
14694W        W15559  15.317  11.365  23.762
14695W        W15560  16.431  11.937  24.702
14696W        W15561  14.579  11.627  22.180
14697W        W15562  15.365  13.016  24.741
14698W        W15563  16.723  12.414  23.920
14699W        W15564  16.590  14.493  22.216
14700W        W15565  14.736  13.000  21.913
14701W        W15566  15.471  13.411  25.039
14702W        W15567  14.992  12.578  24.670
14703W        W15568  15.983  12.683  24.464
14704W        W15569  17.751  11.042  24.726
14705W        W15570  18.149  12.652  24.717
14706W        W15571  18.137  12.852  22.403
14707W        W15572  17.000  13.184  22.502
14708W        W15573  17.474  14.484  22.197
14709W        W15574  16.651  12.474  25.339
14710W        W15575  14.981  13.441  25.379
14711W        W15576  18.187  11.363  25.331
14712W        W15577  17.905  12.291  23.952
14713W        W15578  16.213  14.421  25.429
14714W        W15579  16.068  11.050  22.156
14715W        W15580  17.607  13.649  22.099
14716W        W15581  15.376  11.742  24.985
14717W        W15582  15.810  13.736  24.847
14718W        W15583  17.936  11.727  24.645
14719W        W15584  17.147  14.386  22.613
14720W        W15585  17.386  13.005  23.980
14721W        W15586  15.636  11.421  24.647
14722W        W15587  16.105  12.490  25.404
14723W        W15588  15.608  13.669  22.598
14724W        W15589  17.363  13.167  22.862
14725W        W15590  15.131  11.793  24.586
14726W        W15591  16.460  13.855  23.050
14727W        W15592  18.210  12.415  23.231
14728W        W15593  16.432  11.048  24.950
14729W        W15594  17.212  13.753  24.029
14730W        W15595  17.515  14.097  23.737
14731W        W15596  16.734  13.899  22.165
14732W        W15597  14.744  13.791  25.007
14733W        W15598  15.487  11.783  24.245
14734W        W15599  15.457  11.131  23.355
14735W        W15600  17.078  11.973  24.047
14736W        W15601  15.876  13.144  22.247
14737W        W15602  17.874  13.086  23.746
14738W        W15603  15.201  13.844  25.169
14739W        W15604  17.588  14.526  22.966
14740W        W15605  15.687  11.546  23.411
14741W        W15606  15.456  13.039  23.501
14742W        W15607  15.769  14.450  24.251
14743W        W15608  17.836  14.546  25.283
14744W        W15609  16.995  12.734  24.216
14745W        W15610  14.844  12.532  22.131
14746W        W15611  17.978  14.190  22.828
14747W        W15612  17.815  11.514  22.447
14748W        W15613  15.954  11.033  24.850
14749W        W15614  17.660  13.835  23.308
14750W        W15615  17.689  12.391  23.213
14751W        W15616  15.806  12.064  23.429
14752W        W15617  16.051  12.326  24.753
14753W        W15618  17.162  13.479  24.616
14754W        W15619  15.812  11.933  24.728
14755W        W15620  15.791  14.399  23.344
14756W        W15621  15.108  14.358  24.978
14757W        W15622  15.220  13.719  22.108
14758W        W15623  17.737  13.477  22.918
14759W        W15624  15.341  12.269  24.804
14760W        W15625  18.114  12.199  22.285
14761W        W15626  15.859  13.256  22.756
14762W        W15627  16.958  12.638  24.837
14763W        W15628  16.849  12.266  24.381
14764W        W15629  15.409  12.638  24.410
14765W        W15630  17.619  14.526  24.239
14766W        W15631  17.410  11.160  25.233
14767W        W15632  15.074  11.310  24.820
14768W        W15633  15.413  12.333  23.873
14769W        W15634  15.782  12.147  21.995
14770W        W15635  14.585  13.906  24.540
14771W        W15636  16.170  12.615  23.983
14772W        W15637  15.993  11.640  22.088
14773W        W15638  15.128  12.456  22.869
14774W        W15639  14.899  14.308  24.306
14775W        W15640  17.694  12.534  22.414
14776W        W15641  17.789  11.450  25.100
14777W        W15642  17.225  13.659  23.063
14778W        W15643  14.823  12.583  25.240
14779W        W15644  17.789  11.047  22.536
14780W        W15645  17.309  13.522  22.547
14781W        W15646  16.211  12.580  22.632
14782W        W15647  17.398  11.384  22.155
14783W        W15648  17.463  11.991  24.341
14784W        W15649  15.172  12.584  23.548
14785W        W15650  15.466  13.523  23.197
14786W        W15651  17.229  12.143  23.162
14787W        W15652  16.252  11.522  23.858
14788W        W15653  18.214  13.433  24.369
14789W        W15654  18.132  11.420  23.930
14790W        W15655  14.671  14.250  23.306
14791W        W15656  15.180  13.437  22.842
14792W        W15657  15.095  11.054  25.395
14793W        W15658  16.214  13.907  25.497
14794W        W15659  17.969  12.875  23.287
14795W        W15660  17.323  13.052  22.167
14796W        W15661  16.618  14.573  24.379
14797W        W15662  17.475  13.295  25.416
14798W        W15663  16.290  11.005  22.696
14799W        W15664  17.003  11.874  23.555
14800W        W15665  14.689  13.461  23.887
14801W        W15666  15.942  11.423  22.528
14802W        W15667  15.746  12.907  25.377
14803W        W15668  16.740  11.888  23.091
14804W        W15669  16.945  13.298  24.213
14805W        W15670  15.099  13.903  24.648
14806W        W15671  15.690  13.886  25.371
14807W        W15672  15.541  11.683  22.385
14808W        W15673  17.058  11.825  22.710
14809W        W15674  17.016  13.933  24.947
14810W        W15675  15.701  12.525  23.546
14811W        W15676  15.356  14.223  24.411
14812W        W15677  18.101  14.340  22.012
14813W        W15678  14.964  13.012  25.008
14814W        W15679  16.959  13.274  23.696
14815W        W15680  15.395  12.923  22.938
14816W        W15681  15.766  13.930  24.333
14817W        W15682  16.144  11.349  23.374
14818W        W15683  14.755  13.333  22.304
14819W        W15684  16.274  12.284  22.174
14820W        W15685  14.920  12.833  23.193
14821W        W15686  16.210  11.475  24.657
14822W        W15687  17.882  11.184  22.084
14823W        W15688  17.975  12.930  25.183
14824W        W15689  16.629  14.187  25.335
14825W        W15690  18.187  13.281  24.857
14826W        W15691  17.595  14.079  25.468
14827W        W15692  15.334  14.535  23.946
14828W        W15693  18.193  13.157  22.820
14829W        W15694  16.723  12.424  23.333
14830W        W15695  16.490  11.036  23.223
14831W        W15696  15.549  14.020  23.060
14832W        W15697  16.048  11.761  24.285
14833W        W15698  15.748  11.130  23.754
14834W        W15699  14.811  13.952  22.302
14835W        W15700  16.627  13.316  23.020
14836W        W15701  15.502  14.111  24.899
14837W        W15702  14.979  12.934  22.595
14838W        W15703  14.864  11.477  23.594
14839W        W15704  16.412  13.442  23.651
14840W        W15705  14.664  11.296  22.671
14841W        W15706  17.328  12.502  24.598
14842W        W15707  17.205  11.888  22.170
14843W        W15708  17.722  13.560  23.818
14844W        W15709  16.383  14.044  23.649
14845W        W15710  15.795  14.148  22.560
14846W        W15711  17.077  11.051  21.990
14847W        W15712  14.877  14.311  23.731
14848W        W15713  17.074  12.069  25.366
14849W        W15714  15.057  11.599  25.365
14850W        W15715  14.788  12.199  22.698
14851W        W15716  15.479  12.188  22.423
14852W        W15717  17.242  12.515  25.240
14853W        W15718  15.585  12.796  23.949
14854W        W15719  17.059  11.082  23.069
14855W        W15720  16.190  14.513  23.572
14856W        W15721  17.404  13.975  24.509
14857W        W15722  16.988  14.124  23.620
14858W        W15723  17.007  13.104  23.214
14859W        W15724  16.469  11.329  22.285
14860W        W15725  18.150  10.957  23.007
14861W        W15726  15.838  12.592  22.170
14862W        W15727  18.004  11.929  23.160
14863W        W15728  16.696  13.099  22.037
14864W        W15729  17.632  13.299  24.785
14865W        W15730  17.286  14.000  22.252
14866W        W15731  15.901  11.675  25.158
14867W        W15732  15.721  12.259  24.399
14868W        W15733  17.813  13.754  24.676
14869W        W15734  16.913  11.704  25.053
14870W        W15735  14.757  12.175  24.830
14871W        W15736  16.517  12.652  24.556
14872W        W15737  14.874  13.410  23.213
14873W        W15738  15.021  12.707  24.103
14874W        W15739  17.338  12.993  24.453
14875W        W15740  17.110  14.373  25.264
14876W        W15741  17.006  12.112  24.817
14877W        W15742  17.283  14.166  23.222
14878W        W15743  16.285  13.886  24.545
14879W        W15744  15.770  14.241  23.814
14880W        W15745  17.575  13.412  24.233
14881W        W15746  16.625  13.484  25.370
14882W        W15747  15.230  13.437  23.709
14883W        W15748  17.576  13.196  23.354
14884W        W15749  17.217  14.262  24.105
14885W        W15750  15.195  13.991  23.975
14886W        W15751  16.216  12.043  25.185
14887W        W15752  16.667  14.209  22.696
14888W        W15753  15.975  13.464  25.334
14889W        W15754  16.101  13.702  22.711
14890W        W15755  15.322  12.442  21.970
14891W        W15756  14.661  14.528  28.869
14892W        W15757  15.037  13.421  28.392
14893W        W15758  17.742  13.151  26.162
14894W        W15759  17.872  14.236  28.189
14895W        W15760  15.790  14.227  25.715
14896W        W15761  15.873  12.379  26.698
14897W        W15762  15.388  12.227  26.862
14898W        W15763  16.379  13.042  26.296
14899W        W15764  16.054  14.134  28.651
14900W        W15765  14.703  11.695  28.614
14901W        W15766  15.465  10.975  28.416
14902W        W15767  17.159  11.363  27.303
14903W        W15768  16.808  12.234  25.873
14904W        W15769  17.378  11.668  28.964
14905W        W15770  14.744  11.460  28.089
14906W        W15771  14.843  14.079  29.110
14907W        W15772  16.365  13.469  25.842
14908W        W15773  14.797  12.252  27.535
14909W        W15774  15.690  12.143  28.772
14910W        W15775  18.149  12.002  27.271
14911W        W15776  17.913  13.045  28.130
14912W        W15777  16.221  12.378  27.157
14913W        W15778  16.767  13.717  27.526
14914W        W15779  15.267  13.151  27.758
14915W        W15780  14.626  12.679  27.329
14916W        W15781  15.662  12.651  28.521
14917W        W15782  17.933  12.434  28.775
14918W        W15783  15.549  13.878  27.220
14919W        W15784  16.670  13.567  28.354
14920W        W15785  15.890  12.207  27.579
14921W        W15786  16.182  12.991  27.222
14922W        W15787  17.179  13.764  29.070
14923W        W15788  16.258  13.084  29.080
14924W        W15789  16.239  12.800  28.558
14925W        W15790  14.648  12.191  29.080
14926W        W15791  17.480  13.726  28.679
14927W        W15792  15.061  11.308  26.677
14928W        W15793  15.588  13.566  27.676
14929W        W15794  18.051  13.349  26.966
14930W        W15795  17.464  11.749  27.533
14931W        W15796  17.749  11.702  25.628
14932W        W15797  18.214  12.503  27.934
14933W        W15798  16.181  14.210  27.687
14934W        W15799  17.955  13.676  26.125
14935W        W15800  15.084  14.462  25.879
14936W        W15801  15.477  14.508  26.555
14937W        W15802  15.274  11.262  27.981
14938W        W15803  17.897  12.280  28.256
14939W        W15804  17.302  12.702  26.715
14940W        W15805  17.268  12.390  25.742
14941W        W15806  16.476  13.534  27.882
14942W        W15807  16.282  11.864  27.081
14943W        W15808  16.882  13.951  28.075
14944W        W15809  17.753  12.742  26.497
14945W        W15810  16.655  11.400  26.513
14946W        W15811  15.312  14.094  26.196
14947W        W15812  14.683  11.593  26.795
14948W        W15813  17.469  12.200  27.269
14949W        W15814  14.927  13.817  27.184
14950W        W15815  16.268  14.167  26.054
14951W        W15816  17.660  12.193  25.518
14952W        W15817  14.683  13.951  27.682
14953W        W15818  15.474  13.523  28.162
14954W        W15819  15.847  12.883  26.781
14955W        W15820  15.869  11.288  27.874
14956W        W15821  18.098  11.050  27.171
14957W        W15822  15.317  12.922  25.639
14958W        W15823  14.972  11.955  25.818
14959W        W15824  15.034  13.911  26.612
14960W        W15825  16.165  13.394  26.860
14961W        W15826  17.497  14.253  28.574
14962W        W15827  16.423  11.895  26.258
14963W        W15828  17.806  14.293  27.030
14964W        W15829  17.483  12.146  28.628
14965W        W15830  18.196  13.802  26.762
14966W        W15831  16.823  13.094  28.246
14967W        W15832  14.589  12.645  26.452
14968W        W15833  15.700  13.060  28.025
14969W        W15834  16.904  12.324  26.403
14970W        W15835  16.781  12.814  26.507
14971W        W15836  15.124  12.234  27.981
14972W        W15837  15.109  12.110  28.903
14973W        W15838  14.999  11.027  27.062
14974W        W15839  16.767  11.374  27.623
14975W        W15840  16.415  11.559  28.786
14976W        W15841  16.770  11.708  25.964
14977W        W15842  17.953  14.101  28.718
14978W        W15843  16.920  11.182  28.757
14979W        W15844  17.939  13.483  28.879
14980W        W15845  17.369  11.650  28.475
14981W        W15846  17.169  11.588  26.745
14982W        W15847  17.562  12.722  29.149
14983W        W15848  15.302  14.298  27.135
14984W        W15849  15.960  12.015  26.121
14985W        W15850  15.529  11.299  28.785
14986W        W15851  17.581  11.783  26.466
14987W        W15852  17.948  12.265  26.411
14988W        W15853  15.691  14.482  28.882
14989W        W15854  15.617  11.018  26.117
14990W        W15855  17.938  11.552  27.152
14991W        W15856  18.088  13.801  25.597
14992W        W15857  14.995  13.004  27.299
14993W        W15858  16.912  11.591  25.529
14994W        W15859  18.046  13.923  27.249
14995W        W15860  18.085  11.117  27.999
14996W        W15861  16.530  12.329  28.553
14997W        W15862  16.623  13.668  26.256
14998W        W15863  17.023  12.962  28.996
14999W        W15864  16.697  10.939  27.305
15000W        W15865  15.309  11.842  27.368
15001W        W15866  14.863  13.042  28.142
15002W        W15867  16.722  14.235  26.848
15003W        W15868  17.916  11.832  27.720
15004W        W15869  16.553  14.179  28.487
15005W        W15870  17.896  13.238  25.692
15006W        W15871  16.331  12.721  26.753
15007W        W15872  18.183  11.232  28.494
15008W        W15873  16.332  13.067  28.088
15009W        W15874  16.549  11.953  27.533
15010W        W15875  17.401  12.251  26.371
15011W        W15876  17.688  11.984  26.013
15012W        W15877  17.497  14.024  26.402
15013W        W15878  17.331  13.627  27.198
15014W        W15879  17.227  12.706  26.176
15015W        W15880  16.660  12.916  27.162
15016W        W15881  17.541  12.704  27.229
15017W        W15882  14.916  11.719  27.653
15018W        W15883  17.694  12.771  28.480
15019W        W15884  18.045  14.389  27.626
15020W        W15885  15.975  13.833  27.028
15021W        W15886  16.982  14.366  28.352
15022W        W15887  16.976  11.696  28.116
15023W        W15888  16.183  14.404  28.177
15024W        W15889  17.880  11.358  26.643
15025W        W15890  17.671  12.677  27.944
15026W        W15891  14.654  11.998  27.982
15027W        W15892  17.514  11.793  27.000
15028W        W15893  17.925  11.944  28.777
15029W        W15894  16.810  13.643  26.995
15030W        W15895  16.066  14.234  26.608
15031W        W15896  15.181  11.414  25.866
15032W        W15897  16.285  11.068  27.676
15033W        W15898  15.313  14.188  25.524
15034W        W15899  15.687  12.654  26.275
15035W        W15900  16.341  13.283  28.588
15036W        W15901  16.171  11.641  26.578
15037W        W15902  17.527  11.238  27.006
15038W        W15903  17.247  14.520  27.334
15039W        W15904  16.659  14.168  27.674
15040W        W15905  16.055  13.205  27.635
15041W        W15906  17.825  13.928  27.761
15042W        W15907  15.519  11.431  26.530
15043W        W15908  16.041  13.728  27.490
15044W        W15909  15.524  11.659  25.555
15045W        W15910  16.325  12.268  27.949
15046W        W15911  17.173  11.134  27.819
15047W        W15912  14.593  12.977  27.704
15048W        W15913  16.297  12.795  25.862
15049W        W15914  15.565  11.110  25.632
15050W        W15915  16.303  12.191  26.683
15051W        W15916  17.273  11.167  28.382
15052W        W15917  15.861  13.179  28.491
15053W        W15918  16.665  12.961  28.708
15054W        W15919  17.282  12.991  28.601
15055W        W15920  16.566  11.131  29.106
15056W        W15921  15.788  11.747  27.499
15057W        W15922  15.214  11.703  26.897
15058W        W15923  15.000  14.415  26.573
15059W        W15924  16.332  13.745  28.698
15060W        W15925  15.367  13.230  26.057
15061W        W15926  17.047  12.615  27.278
15062W        W15927  17.327  12.414  27.677
15063W        W15928  16.532  13.088  27.611
15064W        W15929  17.002  13.462  25.743
15065W        W15930  16.674  11.483  27.071
15066W        W15931  18.153  11.761  26.339
15067W        W15932  14.647  14.350  28.370
15068W        W15933  15.064  13.576  27.902
15069W        W15934  14.631  14.422  26.134
15070W        W15935  16.530  11.692  27.940
15071W        W15936  15.893  13.715  25.789
15072W        W15937  17.798  14.097  25.975
15073W        W15938  16.773  12.750  25.989
15074W        W15939  15.616  11.941  26.506
15075W        W15940  16.448  11.851  25.558
15076W        W15941  17.032  13.416  28.736
15077W        W15942  17.385  11.322  26.353
15078W        W15943  14.715  11.170  25.801
15079W        W15944  16.001  13.489  28.091
15080W        W15945  15.800  13.405  27.183
15081W        W15946  15.542  13.357  25.581
15082W        W15947  14.783  13.598  26.349
15083W        W15948  15.287  12.668  28.791
15084W        W15949  15.991  11.228  28.977
15085W        W15950  16.700  11.370  28.333
15086W        W15951  15.895  11.138  26.614
15087W        W15952  16.954  11.215  26.119
15088W        W15953  14.899  11.147  27.696
15089W        W15954  14.947  12.110  27.066
15090W        W15955  17.636  11.218  27.472
15091W        W15956  15.058  11.716  26.286
15092W        W15957  17.629  11.404  27.902
15093W        W15958  18.025  12.607  25.587
15094W        W15959  15.317  11.365  27.406
15095W        W15960  16.431  11.937  28.346
15096W        W15961  14.579  11.627  25.824
15097W        W15962  15.365  13.016  28.385
15098W        W15963  16.723  12.414  27.564
15099W        W15964  16.590  14.493  25.860
15100W        W15965  14.736  13.000  25.557
15101W        W15966  15.471  13.411  28.683
15102W        W15967  14.992  12.578  28.314
15103W        W15968  15.983  12.683  28.108
15104W        W15969  17.751  11.042  28.370
15105W        W15970  18.149  12.652  28.361
15106W        W15971  18.137  12.852  26.047
15107W        W15972  17.000  13.184  26.146
15108W        W15973  17.474  14.484  25.841
15109W        W15974  16.651  12.474  28.983
15110W        W15975  14.981  13.441  29.023
15111W        W15976  18.187  11.363  28.975
15112W        W15977  17.905  12.291  27.596
15113W        W15978  16.213  14.421  29.073
15114W        W15979  16.068  11.050  25.800
15115W        W15980  17.607  13.649  25.743
15116W        W15981  15.376  11.742  28.629
15117W        W15982  15.810  13.736  28.491
15118W        W15983  17.936  11.727  28.289
15119W        W15984  17.147  14.386  26.257
15120W        W15985  17.386  13.005  27.624
15121W        W15986  15.636  11.421  28.291
15122W        W15987  16.105  12.490  29.048
15123W        W15988  15.608  13.669  26.242
15124W        W15989  17.363  13.167  26.506
15125W        W15990  15.131  11.793  28.230
15126W        W15991  16.460  13.855  26.694
15127W        W15992  18.210  12.415  26.875
15128W        W15993  16.432  11.048  28.594
15129W        W15994  17.212  13.753  27.673
15130W        W15995  17.515  14.097  27.381
15131W        W15996  16.734  13.899  25.809
15132W        W15997  14.744  13.791  28.651
15133W        W15998  15.487  11.783  27.889
15134W        W15999  15.457  11.131  26.999
15135W        W16000  17.078  11.973  27.691
15136W        W16001  15.876  13.144  25.891
15137W        W16002  17.874  13.086  27.390
15138W        W16003  15.201  13.844  28.813
15139W        W16004  17.588  14.526  26.610
15140W        W16005  15.687  11.546  27.055
15141W        W16006  15.456  13.039  27.145
15142W        W16007  15.769  14.450  27.895
15143W        W16008  17.836  14.546  28.927
15144W        W16009  16.995  12.734  27.860
15145W        W16010  14.844  12.532  25.775
15146W        W16011  17.978  14.190  26.472
15147W        W16012  17.815  11.514  26.091
15148W        W16013  15.954  11.033  28.494
15149W        W16014  17.660  13.835  26.952
15150W        W16015  17.689  12.391  26.857
15151W        W16016  15.806  12.064  27.073
15152W        W16017  16.051  12.326  28.397
15153W        W16018  17.162  13.479  28.260
15154W        W16019  15.812  11.933  28.372
15155W        W16020  15.791  14.399  26.988
15156W        W16021  15.108  14.358  28.622
15157W        W16022  15.220  13.719  25.752
15158W        W16023  17.737  13.477  26.562
15159W        W16024  15.341  12.269  28.448
15160W        W16025  18.114  12.199  25.929
15161W        W16026  15.859  13.256  26.400
15162W        W16027  16.958  12.638  28.481
15163W        W16028  16.849  12.266  28.025
15164W        W16029  15.409  12.638  28.054
15165W        W16030  17.619  14.526  27.883
15166W        W16031  17.410  11.160  28.877
15167W        W16032  15.074  11.310  28.464
15168W        W16033  15.413  12.333  27.517
15169W        W16034  15.782  12.147  25.639
15170W        W16035  14.585  13.906  28.184
15171W        W16036  16.170  12.615  27.627
15172W        W16037  15.993  11.640  25.732
15173W        W16038  15.128  12.456  26.513
15174W        W16039  14.899  14.308  27.950
15175W        W16040  17.694  12.534  26.058
15176W        W16041  17.789  11.450  28.744
15177W        W16042  17.225  13.659  26.707
15178W        W16043  14.823  12.583  28.884
15179W        W16044  17.789  11.047  26.180
15180W        W16045  17.309  13.522  26.191
15181W        W16046  16.211  12.580  26.276
15182W        W16047  17.398  11.384  25.799
15183W        W16048  17.463  11.991  27.985
15184W        W16049  15.172  12.584  27.192
15185W        W16050  15.466  13.523  26.841
15186W        W16051  17.229  12.143  26.806
15187W        W16052  16.252  11.522  27.502
15188W        W16053  18.214  13.433  28.013
15189W        W16054  18.132  11.420  27.574
15190W        W16055  14.671  14.250  26.950
15191W        W16056  15.180  13.437  26.486
15192W        W16057  15.095  11.054  29.039
15193W        W16058  16.214  13.907  29.141
15194W        W16059  17.969  12.875  26.931
15195W        W16060  17.323  13.052  25.811
15196W        W16061  16.618  14.573  28.023
15197W        W16062  17.475  13.295  29.060
15198W        W16063  16.290  11.005  26.340
15199W        W16064  17.003  11.874  27.199
15200W        W16065  14.689  13.461  27.531
15201W        W16066  15.942  11.423  26.172
15202W        W16067  15.746  12.907  29.021
15203W        W16068  16.740  11.888  26.735
15204W        W16069  16.945  13.298  27.857
15205W        W16070  15.099  13.903  28.292
15206W        W16071  15.690  13.886  29.015
15207W        W16072  15.541  11.683  26.029
15208W        W16073  17.058  11.825  26.354
15209W        W16074  17.016  13.933  28.591
15210W        W16075  15.701  12.525  27.190
15211W        W16076  15.356  14.223  28.055
15212W        W16077  18.101  14.340  25.656
15213W        W16078  14.964  13.012  28.652
15214W        W16079  16.959  13.274  27.340
15215W        W16080  15.395  12.923  26.582
15216W        W16081  15.766  13.930  27.977
15217W        W16082  16.144  11.349  27.018
15218W        W16083  14.755  13.333  25.948
15219W        W16084  16.274  12.284  25.818
15220W        W16085  14.920  12.833  26.837
15221W        W16086  16.210  11.475  28.301
15222W        W16087  17.882  11.184  25.728
15223W        W16088  17.975  12.930  28.827
15224W        W16089  16.629  14.187  28.979
15225W        W16090  18.187  13.281  28.501
15226W        W16091  17.595  14.079  29.112
15227W        W16092  15.334  14.535  27.590
15228W        W16093  18.193  13.157  26.464
15229W        W16094  16.723  12.424  26.977
15230W        W16095  16.490  11.036  26.867
15231W        W16096  15.549  14.020  26.704
15232W        W16097  16.048  11.761  27.929
15233W        W16098  15.748  11.130  27.398
15234W        W16099  14.811  13.952  25.946
15235W        W16100  16.627  13.316  26.664
15236W        W16101  15.502  14.111  28.543
15237W        W16102  14.979  12.934  26.239
15238W        W16103  14.864  11.477  27.238
15239W        W16104  16.412  13.442  27.295
15240W        W16105  14.664  11.296  26.315
15241W        W16106  17.328  12.502  28.242
15242W        W16107  17.205  11.888  25.814
15243W        W16108  17.722  13.560  27.462
15244W        W16109  16.383  14.044  27.293
15245W        W16110  15.795  14.148  26.204
15246W        W16111  17.077  11.051  25.634
15247W        W16112  14.877  14.311  27.375
15248W        W16113  17.074  12.069  29.010
15249W        W16114  15.057  11.599  29.009
15250W        W16115  14.788  12.199  26.342
15251W        W16116  15.479  12.188  26.067
15252W        W16117  17.242  12.515  28.884
15253W        W16118  15.585  12.796  27.593
15254W        W16119  17.059  11.082  26.713
15255W        W16120  16.190  14.513  27.216
15256W        W16121  17.404  13.975  28.153
15257W        W16122  16.988  14.124  27.264
15258W        W16123  17.007  13.104  26.858
15259W        W16124  16.469  11.329  25.929
15260W        W16125  18.150  10.957  26.651
15261W        W16126  15.838  12.592  25.814
15262W        W16127  18.004  11.929  26.804
15263W        W16128  16.696  13.099  25.681
15264W        W16129  17.632  13.299  28.429
15265W        W16130  17.286  14.000  25.896
15266W        W16131  15.901  11.675  28.802
15267W        W16132  15.721  12.259  28.043
15268W        W16133  17.813  13.754  28.320
15269W        W16134  16.913  11.704  28.697
15270W        W16135  14.757  12.175  28.474
15271W        W16136  16.517  12.652  28.200
15272W        W16137  14.874  13.410  26.857
15273W        W16138  15.021  12.707  27.747
15274W        W16139  17.338  12.993  28.097
15275W        W16140  17.110  14.373  28.908
15276W        W16141  17.006  12.112  28.461
15277W        W16142  17.283  14.166  26.866
15278W        W16143  16.285  13.886  28.189
15279W        W16144  15.770  14.241  27.458
15280W        W16145  17.575  13.412  27.877
15281W        W16146  16.625  13.484  29.014
15282W        W16147  15.230  13.437  27.353
15283W        W16148  17.576  13.196  26.998
15284W        W16149  17.217  14.262  27.749
15285W        W16150  15.195  13.991  27.619
15286W        W16151  16.216  12.043  28.829
15287W        W16152  16.667  14.209  26.340
15288W        W16153  15.975  13.464  28.978
15289W        W16154  16.101  13.702  26.355
15290W        W16155  15.322  12.442  25.614
15291W        W16156  14.661  18.172   3.359
15292W        W16157  15.037  17.065   2.882
15293W        W16158  17.742  16.795   0.652
15294W        W16159  17.872  17.880   2.679
15295W        W16160  15.790  17.871   0.205
15296W        W16161  15.873  16.023   1.188
15297W        W16162  15.388  15.871   1.352
15298W        W16163  16.379  16.686   0.786
15299W        W16164  16.054  17.778   3.141
15300W        W16165  14.703  15.339   3.104
15301W        W16166  15.465  14.619   2.906
15302W        W16167  17.159  15.007   1.793
15303W        W16168  16.808  15.878   0.363
15304W        W16169  17.378  15.312   3.454
15305W        W16170  14.744  15.104   2.579
15306W        W16171  14.843  17.723   3.600
15307W        W16172  16.365  17.113   0.332
15308W        W16173  14.797  15.896   2.025
15309W        W16174  15.690  15.787   3.262
15310W        W16175  18.149  15.646   1.761
15311W        W16176  17.913  16.689   2.620
15312W        W16177  16.221  16.022   1.647
15313W        W16178  16.767  17.361   2.016
15314W        W16179  15.267  16.795   2.248
15315W        W16180  14.626  16.323   1.819
15316W        W16181  15.662  16.295   3.011
15317W        W16182  17.933  16.078   3.265
15318W        W16183  15.549  17.522   1.710
15319W        W16184  16.670  17.211   2.844
15320W        W16185  15.890  15.851   2.069
15321W        W16186  16.182  16.635   1.712
15322W        W16187  17.179  17.408   3.560
15323W        W16188  16.258  16.728   3.570
15324W        W16189  16.239  16.444   3.048
15325W        W16190  14.648  15.835   3.570
15326W        W16191  17.480  17.370   3.169
15327W        W16192  15.061  14.952   1.167
15328W        W16193  15.588  17.210   2.166
15329W        W16194  18.051  16.993   1.456
15330W        W16195  17.464  15.393   2.023
15331W        W16196  17.749  15.346   0.118
15332W        W16197  18.214  16.147   2.424
15333W        W16198  16.181  17.854   2.177
15334W        W16199  17.955  17.320   0.615
15335W        W16200  15.084  18.106   0.369
15336W        W16201  15.477  18.152   1.045
15337W        W16202  15.274  14.906   2.471
15338W        W16203  17.897  15.924   2.746
15339W        W16204  17.302  16.346   1.205
15340W        W16205  17.268  16.034   0.232
15341W        W16206  16.476  17.178   2.372
15342W        W16207  16.282  15.508   1.571
15343W        W16208  16.882  17.595   2.565
15344W        W16209  17.753  16.386   0.987
15345W        W16210  16.655  15.044   1.003
15346W        W16211  15.312  17.738   0.686
15347W        W16212  14.683  15.237   1.285
15348W        W16213  17.469  15.844   1.759
15349W        W16214  14.927  17.461   1.674
15350W        W16215  16.268  17.811   0.544
15351W        W16216  17.660  15.837   0.008
15352W        W16217  14.683  17.595   2.172
15353W        W16218  15.474  17.167   2.652
15354W        W16219  15.847  16.527   1.271
15355W        W16220  15.869  14.932   2.364
15356W        W16221  18.098  14.694   1.661
15357W        W16222  15.317  16.566   0.129
15358W        W16223  14.972  15.599   0.308
15359W        W16224  15.034  17.555   1.102
15360W        W16225  16.165  17.038   1.350
15361W        W16226  17.497  17.897   3.064
15362W        W16227  16.423  15.539   0.748
15363W        W16228  17.806  17.937   1.520
15364W        W16229  17.483  15.790   3.118
15365W        W16230  18.196  17.446   1.252
15366W        W16231  16.823  16.738   2.736
15367W        W16232  14.589  16.289   0.942
15368W        W16233  15.700  16.704   2.515
15369W        W16234  16.904  15.968   0.893
15370W        W16235  16.781  16.458   0.997
15371W        W16236  15.124  15.878   2.471
15372W        W16237  15.109  15.754   3.393
15373W        W16238  14.999  14.671   1.552
15374W        W16239  16.767  15.018   2.113
15375W        W16240  16.415  15.203   3.276
15376W        W16241  16.770  15.352   0.454
15377W        W16242  17.953  17.745   3.208
15378W        W16243  16.920  14.826   3.247
15379W        W16244  17.939  17.127   3.369
15380W        W16245  17.369  15.294   2.965
15381W        W16246  17.169  15.232   1.235
15382W        W16247  17.562  16.366   3.639
15383W        W16248  15.302  17.942   1.625
15384W        W16249  15.960  15.659   0.611
15385W        W16250  15.529  14.943   3.275
15386W        W16251  17.581  15.427   0.956
15387W        W16252  17.948  15.909   0.901
15388W        W16253  15.691  18.126   3.372
15389W        W16254  15.617  14.662   0.607
15390W        W16255  17.938  15.196   1.642
15391W        W16256  18.088  17.445   0.087
15392W        W16257  14.995  16.648   1.789
15393W        W16258  16.912  15.235   0.019
15394W        W16259  18.046  17.567   1.739
15395W        W16260  18.085  14.761   2.489
15396W        W16261  16.530  15.973   3.043
15397W        W16262  16.623  17.312   0.746
15398W        W16263  17.023  16.606   3.486
15399W        W16264  16.697  14.583   1.795
15400W        W16265  15.309  15.486   1.858
15401W        W16266  14.863  16.686   2.632
15402W        W16267  16.722  17.879   1.338
15403W        W16268  17.916  15.476   2.210
15404W        W16269  16.553  17.823   2.977
15405W        W16270  17.896  16.882   0.182
15406W        W16271  16.331  16.365   1.243
15407W        W16272  18.183  14.876   2.984
15408W        W16273  16.332  16.711   2.578
15409W        W16274  16.549  15.597   2.023
15410W        W16275  17.401  15.895   0.861
15411W        W16276  17.688  15.628   0.503
15412W        W16277  17.497  17.668   0.892
15413W        W16278  17.331  17.271   1.688
15414W        W16279  17.227  16.350   0.666
15415W        W16280  16.660  16.560   1.652
15416W        W16281  17.541  16.348   1.719
15417W        W16282  14.916  15.363   2.143
15418W        W16283  17.694  16.415   2.970
15419W        W16284  18.045  18.033   2.116
15420W        W16285  15.975  17.477   1.518
15421W        W16286  16.982  18.010   2.842
15422W        W16287  16.976  15.340   2.606
15423W        W16288  16.183  18.048   2.667
15424W        W16289  17.880  15.002   1.133
15425W        W16290  17.671  16.321   2.434
15426W        W16291  14.654  15.642   2.472
15427W        W16292  17.514  15.437   1.490
15428W        W16293  17.925  15.588   3.267
15429W        W16294  16.810  17.287   1.485
15430W        W16295  16.066  17.878   1.098
15431W        W16296  15.181  15.058   0.356
15432W        W16297  16.285  14.712   2.166
15433W        W16298  15.313  17.832   0.014
15434W        W16299  15.687  16.298   0.765
15435W        W16300  16.341  16.927   3.078
15436W        W16301  16.171  15.285   1.068
15437W        W16302  17.527  14.882   1.496
15438W        W16303  17.247  18.164   1.824
15439W        W16304  16.659  17.812   2.164
15440W        W16305  16.055  16.849   2.125
15441W        W16306  17.825  17.572   2.251
15442W        W16307  15.519  15.075   1.020
15443W        W16308  16.041  17.372   1.980
15444W        W16309  15.524  15.303   0.045
15445W        W16310  16.325  15.912   2.439
15446W        W16311  17.173  14.778   2.309
15447W        W16312  14.593  16.621   2.194
15448W        W16313  16.297  16.439   0.352
15449W        W16314  15.565  14.754   0.122
15450W        W16315  16.303  15.835   1.173
15451W        W16316  17.273  14.811   2.872
15452W        W16317  15.861  16.823   2.981
15453W        W16318  16.665  16.605   3.198
15454W        W16319  17.282  16.635   3.091
15455W        W16320  16.566  14.775   3.596
15456W        W16321  15.788  15.391   1.989
15457W        W16322  15.214  15.347   1.387
15458W        W16323  15.000  18.059   1.063
15459W        W16324  16.332  17.389   3.188
15460W        W16325  15.367  16.874   0.547
15461W        W16326  17.047  16.259   1.768
15462W        W16327  17.327  16.058   2.167
15463W        W16328  16.532  16.732   2.101
15464W        W16329  17.002  17.106   0.233
15465W        W16330  16.674  15.127   1.561
15466W        W16331  18.153  15.405   0.829
15467W        W16332  14.647  17.994   2.860
15468W        W16333  15.064  17.220   2.392
15469W        W16334  14.631  18.066   0.624
15470W        W16335  16.530  15.336   2.430
15471W        W16336  15.893  17.359   0.279
15472W        W16337  17.798  17.741   0.465
15473W        W16338  16.773  16.394   0.479
15474W        W16339  15.616  15.585   0.996
15475W        W16340  16.448  15.495   0.048
15476W        W16341  17.032  17.060   3.226
15477W        W16342  17.385  14.966   0.843
15478W        W16343  14.715  14.814   0.291
15479W        W16344  16.001  17.133   2.581
15480W        W16345  15.800  17.049   1.673
15481W        W16346  15.542  17.001   0.071
15482W        W16347  14.783  17.242   0.839
15483W        W16348  15.287  16.312   3.281
15484W        W16349  15.991  14.872   3.467
15485W        W16350  16.700  15.014   2.823
15486W        W16351  15.895  14.782   1.104
15487W        W16352  16.954  14.859   0.609
15488W        W16353  14.899  14.791   2.186
15489W        W16354  14.947  15.754   1.556
15490W        W16355  17.636  14.862   1.962
15491W        W16356  15.058  15.360   0.776
15492W        W16357  17.629  15.048   2.392
15493W        W16358  18.025  16.251   0.077
15494W        W16359  15.317  15.009   1.896
15495W        W16360  16.431  15.581   2.836
15496W        W16361  14.579  15.271   0.314
15497W        W16362  15.365  16.660   2.875
15498W        W16363  16.723  16.058   2.054
15499W        W16364  16.590  18.137   0.350
15500W        W16365  14.736  16.644   0.047
15501W        W16366  15.471  17.055   3.173
15502W        W16367  14.992  16.222   2.804
15503W        W16368  15.983  16.327   2.598
15504W        W16369  17.751  14.686   2.860
15505W        W16370  18.149  16.296   2.851
15506W        W16371  18.137  16.496   0.537
15507W        W16372  17.000  16.828   0.636
15508W        W16373  17.474  18.128   0.331
15509W        W16374  16.651  16.118   3.473
15510W        W16375  14.981  17.085   3.513
15511W        W16376  18.187  15.007   3.465
15512W        W16377  17.905  15.935   2.086
15513W        W16378  16.213  18.065   3.563
15514W        W16379  16.068  14.694   0.290
15515W        W16380  17.607  17.293   0.233
15516W        W16381  15.376  15.386   3.119
15517W        W16382  15.810  17.380   2.981
15518W        W16383  17.936  15.371   2.779
15519W        W16384  17.147  18.030   0.747
15520W        W16385  17.386  16.649   2.114
15521W        W16386  15.636  15.065   2.781
15522W        W16387  16.105  16.134   3.538
15523W        W16388  15.608  17.313   0.732
15524W        W16389  17.363  16.811   0.996
15525W        W16390  15.131  15.437   2.720
15526W        W16391  16.460  17.499   1.184
15527W        W16392  18.210  16.059   1.365
15528W        W16393  16.432  14.692   3.084
15529W        W16394  17.212  17.397   2.163
15530W        W16395  17.515  17.741   1.871
15531W        W16396  16.734  17.543   0.299
15532W        W16397  14.744  17.435   3.141
15533W        W16398  15.487  15.427   2.379
15534W        W16399  15.457  14.775   1.489
15535W        W16400  17.078  15.617   2.181
15536W        W16401  15.876  16.788   0.381
15537W        W16402  17.874  16.730   1.880
15538W        W16403  15.201  17.488   3.303
15539W        W16404  17.588  18.170   1.100
15540W        W16405  15.687  15.190   1.545
15541W        W16406  15.456  16.683   1.635
15542W        W16407  15.769  18.094   2.385
15543W        W16408  17.836  18.190   3.417
15544W        W16409  16.995  16.378   2.350
15545W        W16410  14.844  16.176   0.265
15546W        W16411  17.978  17.834   0.962
15547W        W16412  17.815  15.158   0.581
15548W        W16413  15.954  14.677   2.984
15549W        W16414  17.660  17.479   1.442
15550W        W16415  17.689  16.035   1.347
15551W        W16416  15.806  15.708   1.563
15552W        W16417  16.051  15.970   2.887
15553W        W16418  17.162  17.123   2.750
15554W        W16419  15.812  15.577   2.862
15555W        W16420  15.791  18.043   1.478
15556W        W16421  15.108  18.002   3.112
15557W        W16422  15.220  17.363   0.242
15558W        W16423  17.737  17.121   1.052
15559W        W16424  15.341  15.913   2.938
15560W        W16425  18.114  15.843   0.419
15561W        W16426  15.859  16.900   0.890
15562W        W16427  16.958  16.282   2.971
15563W        W16428  16.849  15.910   2.515
15564W        W16429  15.409  16.282   2.544
15565W        W16430  17.619  18.170   2.373
15566W        W16431  17.410  14.804   3.367
15567W        W16432  15.074  14.954   2.954
15568W        W16433  15.413  15.977   2.007
15569W        W16434  15.782  15.791   0.129
15570W        W16435  14.585  17.550   2.674
15571W        W16436  16.170  16.259   2.117
15572W        W16437  15.993  15.284   0.222
15573W        W16438  15.128  16.100   1.003
15574W        W16439  14.899  17.952   2.440
15575W        W16440  17.694  16.178   0.548
15576W        W16441  17.789  15.094   3.234
15577W        W16442  17.225  17.303   1.197
15578W        W16443  14.823  16.227   3.374
15579W        W16444  17.789  14.691   0.670
15580W        W16445  17.309  17.166   0.681
15581W        W16446  16.211  16.224   0.766
15582W        W16447  17.398  15.028   0.289
15583W        W16448  17.463  15.635   2.475
15584W        W16449  15.172  16.228   1.682
15585W        W16450  15.466  17.167   1.331
15586W        W16451  17.229  15.787   1.296
15587W        W16452  16.252  15.166   1.992
15588W        W16453  18.214  17.077   2.503
15589W        W16454  18.132  15.064   2.064
15590W        W16455  14.671  17.894   1.440
15591W        W16456  15.180  17.081   0.976
15592W        W16457  15.095  14.698   3.529
15593W        W16458  16.214  17.551   3.631
15594W        W16459  17.969  16.519   1.421
15595W        W16460  17.323  16.696   0.301
15596W        W16461  16.618  18.217   2.513
15597W        W16462  17.475  16.939   3.550
15598W        W16463  16.290  14.649   0.830
15599W        W16464  17.003  15.518   1.689
15600W        W16465  14.689  17.105   2.021
15601W        W16466  15.942  15.067   0.662
15602W        W16467  15.746  16.551   3.511
15603W        W16468  16.740  15.532   1.225
15604W        W16469  16.945  16.942   2.347
15605W        W16470  15.099  17.547   2.782
15606W        W16471  15.690  17.530   3.505
15607W        W16472  15.541  15.327   0.519
15608W        W16473  17.058  15.469   0.844
15609W        W16474  17.016  17.577   3.081
15610W        W16475  15.701  16.169   1.680
15611W        W16476  15.356  17.867   2.545
15612W        W16477  18.101  17.984   0.146
15613W        W16478  14.964  16.656   3.142
15614W        W16479  16.959  16.918   1.830
15615W        W16480  15.395  16.567   1.072
15616W        W16481  15.766  17.574   2.467
15617W        W16482  16.144  14.993   1.508
15618W        W16483  14.755  16.977   0.438
15619W        W16484  16.274  15.928   0.308
15620W        W16485  14.920  16.477   1.327
15621W        W16486  16.210  15.119   2.791
15622W        W16487  17.882  14.828   0.218
15623W        W16488  17.975  16.574   3.317
15624W        W16489  16.629  17.831   3.469
15625W        W16490  18.187  16.925   2.991
15626W        W16491  17.595  17.723   3.602
15627W        W16492  15.334  18.179   2.080
15628W        W16493  18.193  16.801   0.954
15629W        W16494  16.723  16.068   1.467
15630W        W16495  16.490  14.680   1.357
15631W        W16496  15.549  17.664   1.194
15632W        W16497  16.048  15.405   2.419
15633W        W16498  15.748  14.774   1.888
15634W        W16499  14.811  17.596   0.436
15635W        W16500  16.627  16.960   1.154
15636W        W16501  15.502  17.755   3.033
15637W        W16502  14.979  16.578   0.729
15638W        W16503  14.864  15.121   1.728
15639W        W16504  16.412  17.086   1.785
15640W        W16505  14.664  14.940   0.805
15641W        W16506  17.328  16.146   2.732
15642W        W16507  17.205  15.532   0.304
15643W        W16508  17.722  17.204   1.952
15644W        W16509  16.383  17.688   1.783
15645W        W16510  15.795  17.792   0.694
15646W        W16511  17.077  14.695   0.124
15647W        W16512  14.877  17.955   1.865
15648W        W16513  17.074  15.713   3.500
15649W        W16514  15.057  15.243   3.499
15650W        W16515  14.788  15.843   0.832
15651W        W16516  15.479  15.832   0.557
15652W        W16517  17.242  16.159   3.374
15653W        W16518  15.585  16.440   2.083
15654W        W16519  17.059  14.726   1.203
15655W        W16520  16.190  18.157   1.706
15656W        W16521  17.404  17.619   2.643
15657W        W16522  16.988  17.768   1.754
15658W        W16523  17.007  16.748   1.348
15659W        W16524  16.469  14.973   0.419
15660W        W16525  18.150  14.601   1.141
15661W        W16526  15.838  16.236   0.304
15662W        W16527  18.004  15.573   1.294
15663W        W16528  16.696  16.743   0.171
15664W        W16529  17.632  16.943   2.919
15665W        W16530  17.286  17.644   0.386
15666W        W16531  15.901  15.319   3.292
15667W        W16532  15.721  15.903   2.533
15668W        W16533  17.813  17.398   2.810
15669W        W16534  16.913  15.348   3.187
15670W        W16535  14.757  15.819   2.964
15671W        W16536  16.517  16.296   2.690
15672W        W16537  14.874  17.054   1.347
15673W        W16538  15.021  16.351   2.237
15674W        W16539  17.338  16.637   2.587
15675W        W16540  17.110  18.017   3.398
15676W        W16541  17.006  15.756   2.951
15677W        W16542  17.283  17.810   1.356
15678W        W16543  16.285  17.530   2.679
15679W        W16544  15.770  17.885   1.948
15680W        W16545  17.575  17.056   2.367
15681W        W16546  16.625  17.128   3.504
15682W        W16547  15.230  17.081   1.843
15683W        W16548  17.576  16.840   1.488
15684W        W16549  17.217  17.906   2.239
15685W        W16550  15.195  17.635   2.109
15686W        W16551  16.216  15.687   3.319
15687W        W16552  16.667  17.853   0.830
15688W        W16553  15.975  17.108   3.468
15689W        W16554  16.101  17.346   0.845
15690W        W16555  15.322  16.086   0.104
15691W        W16556  14.661  18.172   7.003
15692W        W16557  15.037  17.065   6.526
15693W        W16558  17.742  16.795   4.296
15694W        W16559  17.872  17.880   6.323
15695W        W16560  15.790  17.871   3.849
15696W        W16561  15.873  16.023   4.832
15697W        W16562  15.388  15.871   4.996
15698W        W16563  16.379  16.686   4.430
15699W        W16564  16.054  17.778   6.785
15700W        W16565  14.703  15.339   6.748
15701W        W16566  15.465  14.619   6.550
15702W        W16567  17.159  15.007   5.437
15703W        W16568  16.808  15.878   4.007
15704W        W16569  17.378  15.312   7.098
15705W        W16570  14.744  15.104   6.223
15706W        W16571  14.843  17.723   7.244
15707W        W16572  16.365  17.113   3.976
15708W        W16573  14.797  15.896   5.669
15709W        W16574  15.690  15.787   6.906
15710W        W16575  18.149  15.646   5.405
15711W        W16576  17.913  16.689   6.264
15712W        W16577  16.221  16.022   5.291
15713W        W16578  16.767  17.361   5.660
15714W        W16579  15.267  16.795   5.892
15715W        W16580  14.626  16.323   5.463
15716W        W16581  15.662  16.295   6.655
15717W        W16582  17.933  16.078   6.909
15718W        W16583  15.549  17.522   5.354
15719W        W16584  16.670  17.211   6.488
15720W        W16585  15.890  15.851   5.713
15721W        W16586  16.182  16.635   5.356
15722W        W16587  17.179  17.408   7.204
15723W        W16588  16.258  16.728   7.214
15724W        W16589  16.239  16.444   6.692
15725W        W16590  14.648  15.835   7.214
15726W        W16591  17.480  17.370   6.813
15727W        W16592  15.061  14.952   4.811
15728W        W16593  15.588  17.210   5.810
15729W        W16594  18.051  16.993   5.100
15730W        W16595  17.464  15.393   5.667
15731W        W16596  17.749  15.346   3.762
15732W        W16597  18.214  16.147   6.068
15733W        W16598  16.181  17.854   5.821
15734W        W16599  17.955  17.320   4.259
15735W        W16600  15.084  18.106   4.013
15736W        W16601  15.477  18.152   4.689
15737W        W16602  15.274  14.906   6.115
15738W        W16603  17.897  15.924   6.390
15739W        W16604  17.302  16.346   4.849
15740W        W16605  17.268  16.034   3.876
15741W        W16606  16.476  17.178   6.016
15742W        W16607  16.282  15.508   5.215
15743W        W16608  16.882  17.595   6.209
15744W        W16609  17.753  16.386   4.631
15745W        W16610  16.655  15.044   4.647
15746W        W16611  15.312  17.738   4.330
15747W        W16612  14.683  15.237   4.929
15748W        W16613  17.469  15.844   5.403
15749W        W16614  14.927  17.461   5.318
15750W        W16615  16.268  17.811   4.188
15751W        W16616  17.660  15.837   3.652
15752W        W16617  14.683  17.595   5.816
15753W        W16618  15.474  17.167   6.296
15754W        W16619  15.847  16.527   4.915
15755W        W16620  15.869  14.932   6.008
15756W        W16621  18.098  14.694   5.305
15757W        W16622  15.317  16.566   3.773
15758W        W16623  14.972  15.599   3.952
15759W        W16624  15.034  17.555   4.746
15760W        W16625  16.165  17.038   4.994
15761W        W16626  17.497  17.897   6.708
15762W        W16627  16.423  15.539   4.392
15763W        W16628  17.806  17.937   5.164
15764W        W16629  17.483  15.790   6.762
15765W        W16630  18.196  17.446   4.896
15766W        W16631  16.823  16.738   6.380
15767W        W16632  14.589  16.289   4.586
15768W        W16633  15.700  16.704   6.159
15769W        W16634  16.904  15.968   4.537
15770W        W16635  16.781  16.458   4.641
15771W        W16636  15.124  15.878   6.115
15772W        W16637  15.109  15.754   7.037
15773W        W16638  14.999  14.671   5.196
15774W        W16639  16.767  15.018   5.757
15775W        W16640  16.415  15.203   6.920
15776W        W16641  16.770  15.352   4.098
15777W        W16642  17.953  17.745   6.852
15778W        W16643  16.920  14.826   6.891
15779W        W16644  17.939  17.127   7.013
15780W        W16645  17.369  15.294   6.609
15781W        W16646  17.169  15.232   4.879
15782W        W16647  17.562  16.366   7.283
15783W        W16648  15.302  17.942   5.269
15784W        W16649  15.960  15.659   4.255
15785W        W16650  15.529  14.943   6.919
15786W        W16651  17.581  15.427   4.600
15787W        W16652  17.948  15.909   4.545
15788W        W16653  15.691  18.126   7.016
15789W        W16654  15.617  14.662   4.251
15790W        W16655  17.938  15.196   5.286
15791W        W16656  18.088  17.445   3.731
15792W        W16657  14.995  16.648   5.433
15793W        W16658  16.912  15.235   3.663
15794W        W16659  18.046  17.567   5.383
15795W        W16660  18.085  14.761   6.133
15796W        W16661  16.530  15.973   6.687
15797W        W16662  16.623  17.312   4.390
15798W        W16663  17.023  16.606   7.130
15799W        W16664  16.697  14.583   5.439
15800W        W16665  15.309  15.486   5.502
15801W        W16666  14.863  16.686   6.276
15802W        W16667  16.722  17.879   4.982
15803W        W16668  17.916  15.476   5.854
15804W        W16669  16.553  17.823   6.621
15805W        W16670  17.896  16.882   3.826
15806W        W16671  16.331  16.365   4.887
15807W        W16672  18.183  14.876   6.628
15808W        W16673  16.332  16.711   6.222
15809W        W16674  16.549  15.597   5.667
15810W        W16675  17.401  15.895   4.505
15811W        W16676  17.688  15.628   4.147
15812W        W16677  17.497  17.668   4.536
15813W        W16678  17.331  17.271   5.332
15814W        W16679  17.227  16.350   4.310
15815W        W16680  16.660  16.560   5.296
15816W        W16681  17.541  16.348   5.363
15817W        W16682  14.916  15.363   5.787
15818W        W16683  17.694  16.415   6.614
15819W        W16684  18.045  18.033   5.760
15820W        W16685  15.975  17.477   5.162
15821W        W16686  16.982  18.010   6.486
15822W        W16687  16.976  15.340   6.250
15823W        W16688  16.183  18.048   6.311
15824W        W16689  17.880  15.002   4.777
15825W        W16690  17.671  16.321   6.078
15826W        W16691  14.654  15.642   6.116
15827W        W16692  17.514  15.437   5.134
15828W        W16693  17.925  15.588   6.911
15829W        W16694  16.810  17.287   5.129
15830W        W16695  16.066  17.878   4.742
15831W        W16696  15.181  15.058   4.000
15832W        W16697  16.285  14.712   5.810
15833W        W16698  15.313  17.832   3.658
15834W        W16699  15.687  16.298   4.409
15835W        W16700  16.341  16.927   6.722
15836W        W16701  16.171  15.285   4.712
15837W        W16702  17.527  14.882   5.140
15838W        W16703  17.247  18.164   5.468
15839W        W16704  16.659  17.812   5.808
15840W        W16705  16.055  16.849   5.769
15841W        W16706  17.825  17.572   5.895
15842W        W16707  15.519  15.075   4.664
15843W        W16708  16.041  17.372   5.624
15844W        W16709  15.524  15.303   3.689
15845W        W16710  16.325  15.912   6.083
15846W        W16711  17.173  14.778   5.953
15847W        W16712  14.593  16.621   5.838
15848W        W16713  16.297  16.439   3.996
15849W        W16714  15.565  14.754   3.766
15850W        W16715  16.303  15.835   4.817
15851W        W16716  17.273  14.811   6.516
15852W        W16717  15.861  16.823   6.625
15853W        W16718  16.665  16.605   6.842
15854W        W16719  17.282  16.635   6.735
15855W        W16720  16.566  14.775   7.240
15856W        W16721  15.788  15.391   5.633
15857W        W16722  15.214  15.347   5.031
15858W        W16723  15.000  18.059   4.707
15859W        W16724  16.332  17.389   6.832
15860W        W16725  15.367  16.874   4.191
15861W        W16726  17.047  16.259   5.412
15862W        W16727  17.327  16.058   5.811
15863W        W16728  16.532  16.732   5.745
15864W        W16729  17.002  17.106   3.877
15865W        W16730  16.674  15.127   5.205
15866W        W16731  18.153  15.405   4.473
15867W        W16732  14.647  17.994   6.504
15868W        W16733  15.064  17.220   6.036
15869W        W16734  14.631  18.066   4.268
15870W        W16735  16.530  15.336   6.074
15871W        W16736  15.893  17.359   3.923
15872W        W16737  17.798  17.741   4.109
15873W        W16738  16.773  16.394   4.123
15874W        W16739  15.616  15.585   4.640
15875W        W16740  16.448  15.495   3.692
15876W        W16741  17.032  17.060   6.870
15877W        W16742  17.385  14.966   4.487
15878W        W16743  14.715  14.814   3.935
15879W        W16744  16.001  17.133   6.225
15880W        W16745  15.800  17.049   5.317
15881W        W16746  15.542  17.001   3.715
15882W        W16747  14.783  17.242   4.483
15883W        W16748  15.287  16.312   6.925
15884W        W16749  15.991  14.872   7.111
15885W        W16750  16.700  15.014   6.467
15886W        W16751  15.895  14.782   4.748
15887W        W16752  16.954  14.859   4.253
15888W        W16753  14.899  14.791   5.830
15889W        W16754  14.947  15.754   5.200
15890W        W16755  17.636  14.862   5.606
15891W        W16756  15.058  15.360   4.420
15892W        W16757  17.629  15.048   6.036
15893W        W16758  18.025  16.251   3.721
15894W        W16759  15.317  15.009   5.540
15895W        W16760  16.431  15.581   6.480
15896W        W16761  14.579  15.271   3.958
15897W        W16762  15.365  16.660   6.519
15898W        W16763  16.723  16.058   5.698
15899W        W16764  16.590  18.137   3.994
15900W        W16765  14.736  16.644   3.691
15901W        W16766  15.471  17.055   6.817
15902W        W16767  14.992  16.222   6.448
15903W        W16768  15.983  16.327   6.242
15904W        W16769  17.751  14.686   6.504
15905W        W16770  18.149  16.296   6.495
15906W        W16771  18.137  16.496   4.181
15907W        W16772  17.000  16.828   4.280
15908W        W16773  17.474  18.128   3.975
15909W        W16774  16.651  16.118   7.117
15910W        W16775  14.981  17.085   7.157
15911W        W16776  18.187  15.007   7.109
15912W        W16777  17.905  15.935   5.730
15913W        W16778  16.213  18.065   7.207
15914W        W16779  16.068  14.694   3.934
15915W        W16780  17.607  17.293   3.877
15916W        W16781  15.376  15.386   6.763
15917W        W16782  15.810  17.380   6.625
15918W        W16783  17.936  15.371   6.423
15919W        W16784  17.147  18.030   4.391
15920W        W16785  17.386  16.649   5.758
15921W        W16786  15.636  15.065   6.425
15922W        W16787  16.105  16.134   7.182
15923W        W16788  15.608  17.313   4.376
15924W        W16789  17.363  16.811   4.640
15925W        W16790  15.131  15.437   6.364
15926W        W16791  16.460  17.499   4.828
15927W        W16792  18.210  16.059   5.009
15928W        W16793  16.432  14.692   6.728
15929W        W16794  17.212  17.397   5.807
15930W        W16795  17.515  17.741   5.515
15931W        W16796  16.734  17.543   3.943
15932W        W16797  14.744  17.435   6.785
15933W        W16798  15.487  15.427   6.023
15934W        W16799  15.457  14.775   5.133
15935W        W16800  17.078  15.617   5.825
15936W        W16801  15.876  16.788   4.025
15937W        W16802  17.874  16.730   5.524
15938W        W16803  15.201  17.488   6.947
15939W        W16804  17.588  18.170   4.744
15940W        W16805  15.687  15.190   5.189
15941W        W16806  15.456  16.683   5.279
15942W        W16807  15.769  18.094   6.029
15943W        W16808  17.836  18.190   7.061
15944W        W16809  16.995  16.378   5.994
15945W        W16810  14.844  16.176   3.909
15946W        W16811  17.978  17.834   4.606
15947W        W16812  17.815  15.158   4.225
15948W        W16813  15.954  14.677   6.628
15949W        W16814  17.660  17.479   5.086
15950W        W16815  17.689  16.035   4.991
15951W        W16816  15.806  15.708   5.207
15952W        W16817  16.051  15.970   6.531
15953W        W16818  17.162  17.123   6.394
15954W        W16819  15.812  15.577   6.506
15955W        W16820  15.791  18.043   5.122
15956W        W16821  15.108  18.002   6.756
15957W        W16822  15.220  17.363   3.886
15958W        W16823  17.737  17.121   4.696
15959W        W16824  15.341  15.913   6.582
15960W        W16825  18.114  15.843   4.063
15961W        W16826  15.859  16.900   4.534
15962W        W16827  16.958  16.282   6.615
15963W        W16828  16.849  15.910   6.159
15964W        W16829  15.409  16.282   6.188
15965W        W16830  17.619  18.170   6.017
15966W        W16831  17.410  14.804   7.011
15967W        W16832  15.074  14.954   6.598
15968W        W16833  15.413  15.977   5.651
15969W        W16834  15.782  15.791   3.773
15970W        W16835  14.585  17.550   6.318
15971W        W16836  16.170  16.259   5.761
15972W        W16837  15.993  15.284   3.866
15973W        W16838  15.128  16.100   4.647
15974W        W16839  14.899  17.952   6.084
15975W        W16840  17.694  16.178   4.192
15976W        W16841  17.789  15.094   6.878
15977W        W16842  17.225  17.303   4.841
15978W        W16843  14.823  16.227   7.018
15979W        W16844  17.789  14.691   4.314
15980W        W16845  17.309  17.166   4.325
15981W        W16846  16.211  16.224   4.410
15982W        W16847  17.398  15.028   3.933
15983W        W16848  17.463  15.635   6.119
15984W        W16849  15.172  16.228   5.326
15985W        W16850  15.466  17.167   4.975
15986W        W16851  17.229  15.787   4.940
15987W        W16852  16.252  15.166   5.636
15988W        W16853  18.214  17.077   6.147
15989W        W16854  18.132  15.064   5.708
15990W        W16855  14.671  17.894   5.084
15991W        W16856  15.180  17.081   4.620
15992W        W16857  15.095  14.698   7.173
15993W        W16858  16.214  17.551   7.275
15994W        W16859  17.969  16.519   5.065
15995W        W16860  17.323  16.696   3.945
15996W        W16861  16.618  18.217   6.157
15997W        W16862  17.475  16.939   7.194
15998W        W16863  16.290  14.649   4.474
15999W        W16864  17.003  15.518   5.333
16000W        W16865  14.689  17.105   5.665
16001W        W16866  15.942  15.067   4.306
16002W        W16867  15.746  16.551   7.155
16003W        W16868  16.740  15.532   4.869
16004W        W16869  16.945  16.942   5.991
16005W        W16870  15.099  17.547   6.426
16006W        W16871  15.690  17.530   7.149
16007W        W16872  15.541  15.327   4.163
16008W        W16873  17.058  15.469   4.488
16009W        W16874  17.016  17.577   6.725
16010W        W16875  15.701  16.169   5.324
16011W        W16876  15.356  17.867   6.189
16012W        W16877  18.101  17.984   3.790
16013W        W16878  14.964  16.656   6.786
16014W        W16879  16.959  16.918   5.474
16015W        W16880  15.395  16.567   4.716
16016W        W16881  15.766  17.574   6.111
16017W        W16882  16.144  14.993   5.152
16018W        W16883  14.755  16.977   4.082
16019W        W16884  16.274  15.928   3.952
16020W        W16885  14.920  16.477   4.971
16021W        W16886  16.210  15.119   6.435
16022W        W16887  17.882  14.828   3.862
16023W        W16888  17.975  16.574   6.961
16024W        W16889  16.629  17.831   7.113
16025W        W16890  18.187  16.925   6.635
16026W        W16891  17.595  17.723   7.246
16027W        W16892  15.334  18.179   5.724
16028W        W16893  18.193  16.801   4.598
16029W        W16894  16.723  16.068   5.111
16030W        W16895  16.490  14.680   5.001
16031W        W16896  15.549  17.664   4.838
16032W        W16897  16.048  15.405   6.063
16033W        W16898  15.748  14.774   5.532
16034W        W16899  14.811  17.596   4.080
16035W        W16900  16.627  16.960   4.798
16036W        W16901  15.502  17.755   6.677
16037W        W16902  14.979  16.578   4.373
16038W        W16903  14.864  15.121   5.372
16039W        W16904  16.412  17.086   5.429
16040W        W16905  14.664  14.940   4.449
16041W        W16906  17.328  16.146   6.376
16042W        W16907  17.205  15.532   3.948
16043W        W16908  17.722  17.204   5.596
16044W        W16909  16.383  17.688   5.427
16045W        W16910  15.795  17.792   4.338
16046W        W16911  17.077  14.695   3.768
16047W        W16912  14.877  17.955   5.509
16048W        W16913  17.074  15.713   7.144
16049W        W16914  15.057  15.243   7.143
16050W        W16915  14.788  15.843   4.476
16051W        W16916  15.479  15.832   4.201
16052W        W16917  17.242  16.159   7.018
16053W        W16918  15.585  16.440   5.727
16054W        W16919  17.059  14.726   4.847
16055W        W16920  16.190  18.157   5.350
16056W        W16921  17.404  17.619   6.287
16057W        W16922  16.988  17.768   5.398
16058W        W16923  17.007  16.748   4.992
16059W        W16924  16.469  14.973   4.063
16060W        W16925  18.150  14.601   4.785
16061W        W16926  15.838  16.236   3.948
16062W        W16927  18.004  15.573   4.938
16063W        W16928  16.696  16.743   3.815
16064W        W16929  17.632  16.943   6.563
16065W        W16930  17.286  17.644   4.030
16066W        W16931  15.901  15.319   6.936
16067W        W16932  15.721  15.903   6.177
16068W        W16933  17.813  17.398   6.454
16069W        W16934  16.913  15.348   6.831
16070W        W16935  14.757  15.819   6.608
16071W        W16936  16.517  16.296   6.334
16072W        W16937  14.874  17.054   4.991
16073W        W16938  15.021  16.351   5.881
16074W        W16939  17.338  16.637   6.231
16075W        W16940  17.110  18.017   7.042
16076W        W16941  17.006  15.756   6.595
16077W        W16942  17.283  17.810   5.000
16078W        W16943  16.285  17.530   6.323
16079W        W16944  15.770  17.885   5.592
16080W        W16945  17.575  17.056   6.011
16081W        W16946  16.625  17.128   7.148
16082W        W16947  15.230  17.081   5.487
16083W        W16948  17.576  16.840   5.132
16084W        W16949  17.217  17.906   5.883
16085W        W16950  15.195  17.635   5.753
16086W        W16951  16.216  15.687   6.963
16087W        W16952  16.667  17.853   4.474
16088W        W16953  15.975  17.108   7.112
16089W        W16954  16.101  17.346   4.489
16090W        W16955  15.322  16.086   3.748
16091W        W16956  14.661  18.172  10.648
16092W        W16957  15.037  17.065  10.171
16093W        W16958  17.742  16.795   7.941
16094W        W16959  17.872  17.880   9.968
16095W        W16960  15.790  17.871   7.494
16096W        W16961  15.873  16.023   8.477
16097W        W16962  15.388  15.871   8.641
16098W        W16963  16.379  16.686   8.075
16099W        W16964  16.054  17.778  10.430
16100W        W16965  14.703  15.339  10.393
16101W        W16966  15.465  14.619  10.195
16102W        W16967  17.159  15.007   9.082
16103W        W16968  16.808  15.878   7.652
16104W        W16969  17.378  15.312  10.743
16105W        W16970  14.744  15.104   9.868
16106W        W16971  14.843  17.723  10.889
16107W        W16972  16.365  17.113   7.621
16108W        W16973  14.797  15.896   9.314
16109W        W16974  15.690  15.787  10.551
16110W        W16975  18.149  15.646   9.050
16111W        W16976  17.913  16.689   9.909
16112W        W16977  16.221  16.022   8.936
16113W        W16978  16.767  17.361   9.305
16114W        W16979  15.267  16.795   9.537
16115W        W16980  14.626  16.323   9.108
16116W        W16981  15.662  16.295  10.300
16117W        W16982  17.933  16.078  10.554
16118W        W16983  15.549  17.522   8.999
16119W        W16984  16.670  17.211  10.133
16120W        W16985  15.890  15.851   9.358
16121W        W16986  16.182  16.635   9.001
16122W        W16987  17.179  17.408  10.849
16123W        W16988  16.258  16.728  10.859
16124W        W16989  16.239  16.444  10.337
16125W        W16990  14.648  15.835  10.859
16126W        W16991  17.480  17.370  10.458
16127W        W16992  15.061  14.952   8.456
16128W        W16993  15.588  17.210   9.455
16129W        W16994  18.051  16.993   8.745
16130W        W16995  17.464  15.393   9.312
16131W        W16996  17.749  15.346   7.407
16132W        W16997  18.214  16.147   9.713
16133W        W16998  16.181  17.854   9.466
16134W        W16999  17.955  17.320   7.904
16135W        W17000  15.084  18.106   7.658
16136W        W17001  15.477  18.152   8.334
16137W        W17002  15.274  14.906   9.760
16138W        W17003  17.897  15.924  10.035
16139W        W17004  17.302  16.346   8.494
16140W        W17005  17.268  16.034   7.521
16141W        W17006  16.476  17.178   9.661
16142W        W17007  16.282  15.508   8.860
16143W        W17008  16.882  17.595   9.854
16144W        W17009  17.753  16.386   8.276
16145W        W17010  16.655  15.044   8.292
16146W        W17011  15.312  17.738   7.975
16147W        W17012  14.683  15.237   8.574
16148W        W17013  17.469  15.844   9.048
16149W        W17014  14.927  17.461   8.963
16150W        W17015  16.268  17.811   7.833
16151W        W17016  17.660  15.837   7.297
16152W        W17017  14.683  17.595   9.461
16153W        W17018  15.474  17.167   9.941
16154W        W17019  15.847  16.527   8.560
16155W        W17020  15.869  14.932   9.653
16156W        W17021  18.098  14.694   8.950
16157W        W17022  15.317  16.566   7.418
16158W        W17023  14.972  15.599   7.597
16159W        W17024  15.034  17.555   8.391
16160W        W17025  16.165  17.038   8.639
16161W        W17026  17.497  17.897  10.353
16162W        W17027  16.423  15.539   8.037
16163W        W17028  17.806  17.937   8.809
16164W        W17029  17.483  15.790  10.407
16165W        W17030  18.196  17.446   8.541
16166W        W17031  16.823  16.738  10.025
16167W        W17032  14.589  16.289   8.231
16168W        W17033  15.700  16.704   9.804
16169W        W17034  16.904  15.968   8.182
16170W        W17035  16.781  16.458   8.286
16171W        W17036  15.124  15.878   9.760
16172W        W17037  15.109  15.754  10.682
16173W        W17038  14.999  14.671   8.841
16174W        W17039  16.767  15.018   9.402
16175W        W17040  16.415  15.203  10.565
16176W        W17041  16.770  15.352   7.743
16177W        W17042  17.953  17.745  10.497
16178W        W17043  16.920  14.826  10.536
16179W        W17044  17.939  17.127  10.658
16180W        W17045  17.369  15.294  10.254
16181W        W17046  17.169  15.232   8.524
16182W        W17047  17.562  16.366  10.928
16183W        W17048  15.302  17.942   8.914
16184W        W17049  15.960  15.659   7.900
16185W        W17050  15.529  14.943  10.564
16186W        W17051  17.581  15.427   8.245
16187W        W17052  17.948  15.909   8.190
16188W        W17053  15.691  18.126  10.661
16189W        W17054  15.617  14.662   7.896
16190W        W17055  17.938  15.196   8.931
16191W        W17056  18.088  17.445   7.376
16192W        W17057  14.995  16.648   9.078
16193W        W17058  16.912  15.235   7.308
16194W        W17059  18.046  17.567   9.028
16195W        W17060  18.085  14.761   9.778
16196W        W17061  16.530  15.973  10.332
16197W        W17062  16.623  17.312   8.035
16198W        W17063  17.023  16.606  10.775
16199W        W17064  16.697  14.583   9.084
16200W        W17065  15.309  15.486   9.147
16201W        W17066  14.863  16.686   9.921
16202W        W17067  16.722  17.879   8.627
16203W        W17068  17.916  15.476   9.499
16204W        W17069  16.553  17.823  10.266
16205W        W17070  17.896  16.882   7.471
16206W        W17071  16.331  16.365   8.532
16207W        W17072  18.183  14.876  10.273
16208W        W17073  16.332  16.711   9.867
16209W        W17074  16.549  15.597   9.312
16210W        W17075  17.401  15.895   8.150
16211W        W17076  17.688  15.628   7.792
16212W        W17077  17.497  17.668   8.181
16213W        W17078  17.331  17.271   8.977
16214W        W17079  17.227  16.350   7.955
16215W        W17080  16.660  16.560   8.941
16216W        W17081  17.541  16.348   9.008
16217W        W17082  14.916  15.363   9.432
16218W        W17083  17.694  16.415  10.259
16219W        W17084  18.045  18.033   9.405
16220W        W17085  15.975  17.477   8.807
16221W        W17086  16.982  18.010  10.131
16222W        W17087  16.976  15.340   9.895
16223W        W17088  16.183  18.048   9.956
16224W        W17089  17.880  15.002   8.422
16225W        W17090  17.671  16.321   9.723
16226W        W17091  14.654  15.642   9.761
16227W        W17092  17.514  15.437   8.779
16228W        W17093  17.925  15.588  10.556
16229W        W17094  16.810  17.287   8.774
16230W        W17095  16.066  17.878   8.387
16231W        W17096  15.181  15.058   7.645
16232W        W17097  16.285  14.712   9.455
16233W        W17098  15.313  17.832   7.303
16234W        W17099  15.687  16.298   8.054
16235W        W17100  16.341  16.927  10.367
16236W        W17101  16.171  15.285   8.357
16237W        W17102  17.527  14.882   8.785
16238W        W17103  17.247  18.164   9.113
16239W        W17104  16.659  17.812   9.453
16240W        W17105  16.055  16.849   9.414
16241W        W17106  17.825  17.572   9.540
16242W        W17107  15.519  15.075   8.309
16243W        W17108  16.041  17.372   9.269
16244W        W17109  15.524  15.303   7.334
16245W        W17110  16.325  15.912   9.728
16246W        W17111  17.173  14.778   9.598
16247W        W17112  14.593  16.621   9.483
16248W        W17113  16.297  16.439   7.641
16249W        W17114  15.565  14.754   7.411
16250W        W17115  16.303  15.835   8.462
16251W        W17116  17.273  14.811  10.161
16252W        W17117  15.861  16.823  10.270
16253W        W17118  16.665  16.605  10.487
16254W        W17119  17.282  16.635  10.380
16255W        W17120  16.566  14.775  10.885
16256W        W17121  15.788  15.391   9.278
16257W        W17122  15.214  15.347   8.676
16258W        W17123  15.000  18.059   8.352
16259W        W17124  16.332  17.389  10.477
16260W        W17125  15.367  16.874   7.836
16261W        W17126  17.047  16.259   9.057
16262W        W17127  17.327  16.058   9.456
16263W        W17128  16.532  16.732   9.390
16264W        W17129  17.002  17.106   7.522
16265W        W17130  16.674  15.127   8.850
16266W        W17131  18.153  15.405   8.118
16267W        W17132  14.647  17.994  10.149
16268W        W17133  15.064  17.220   9.681
16269W        W17134  14.631  18.066   7.913
16270W        W17135  16.530  15.336   9.719
16271W        W17136  15.893  17.359   7.568
16272W        W17137  17.798  17.741   7.754
16273W        W17138  16.773  16.394   7.768
16274W        W17139  15.616  15.585   8.285
16275W        W17140  16.448  15.495   7.337
16276W        W17141  17.032  17.060  10.515
16277W        W17142  17.385  14.966   8.132
16278W        W17143  14.715  14.814   7.580
16279W        W17144  16.001  17.133   9.870
16280W        W17145  15.800  17.049   8.962
16281W        W17146  15.542  17.001   7.360
16282W        W17147  14.783  17.242   8.128
16283W        W17148  15.287  16.312  10.570
16284W        W17149  15.991  14.872  10.756
16285W        W17150  16.700  15.014  10.112
16286W        W17151  15.895  14.782   8.393
16287W        W17152  16.954  14.859   7.898
16288W        W17153  14.899  14.791   9.475
16289W        W17154  14.947  15.754   8.845
16290W        W17155  17.636  14.862   9.251
16291W        W17156  15.058  15.360   8.065
16292W        W17157  17.629  15.048   9.681
16293W        W17158  18.025  16.251   7.366
16294W        W17159  15.317  15.009   9.185
16295W        W17160  16.431  15.581  10.125
16296W        W17161  14.579  15.271   7.603
16297W        W17162  15.365  16.660  10.164
16298W        W17163  16.723  16.058   9.343
16299W        W17164  16.590  18.137   7.639
16300W        W17165  14.736  16.644   7.336
16301W        W17166  15.471  17.055  10.462
16302W        W17167  14.992  16.222  10.093
16303W        W17168  15.983  16.327   9.887
16304W        W17169  17.751  14.686  10.149
16305W        W17170  18.149  16.296  10.140
16306W        W17171  18.137  16.496   7.826
16307W        W17172  17.000  16.828   7.925
16308W        W17173  17.474  18.128   7.620
16309W        W17174  16.651  16.118  10.762
16310W        W17175  14.981  17.085  10.802
16311W        W17176  18.187  15.007  10.754
16312W        W17177  17.905  15.935   9.375
16313W        W17178  16.213  18.065  10.852
16314W        W17179  16.068  14.694   7.579
16315W        W17180  17.607  17.293   7.522
16316W        W17181  15.376  15.386  10.408
16317W        W17182  15.810  17.380  10.270
16318W        W17183  17.936  15.371  10.068
16319W        W17184  17.147  18.030   8.036
16320W        W17185  17.386  16.649   9.403
16321W        W17186  15.636  15.065  10.070
16322W        W17187  16.105  16.134  10.827
16323W        W17188  15.608  17.313   8.021
16324W        W17189  17.363  16.811   8.285
16325W        W17190  15.131  15.437  10.009
16326W        W17191  16.460  17.499   8.473
16327W        W17192  18.210  16.059   8.654
16328W        W17193  16.432  14.692  10.373
16329W        W17194  17.212  17.397   9.452
16330W        W17195  17.515  17.741   9.160
16331W        W17196  16.734  17.543   7.588
16332W        W17197  14.744  17.435  10.430
16333W        W17198  15.487  15.427   9.668
16334W        W17199  15.457  14.775   8.778
16335W        W17200  17.078  15.617   9.470
16336W        W17201  15.876  16.788   7.670
16337W        W17202  17.874  16.730   9.169
16338W        W17203  15.201  17.488  10.592
16339W        W17204  17.588  18.170   8.389
16340W        W17205  15.687  15.190   8.834
16341W        W17206  15.456  16.683   8.924
16342W        W17207  15.769  18.094   9.674
16343W        W17208  17.836  18.190  10.706
16344W        W17209  16.995  16.378   9.639
16345W        W17210  14.844  16.176   7.554
16346W        W17211  17.978  17.834   8.251
16347W        W17212  17.815  15.158   7.870
16348W        W17213  15.954  14.677  10.273
16349W        W17214  17.660  17.479   8.731
16350W        W17215  17.689  16.035   8.636
16351W        W17216  15.806  15.708   8.852
16352W        W17217  16.051  15.970  10.176
16353W        W17218  17.162  17.123  10.039
16354W        W17219  15.812  15.577  10.151
16355W        W17220  15.791  18.043   8.767
16356W        W17221  15.108  18.002  10.401
16357W        W17222  15.220  17.363   7.531
16358W        W17223  17.737  17.121   8.341
16359W        W17224  15.341  15.913  10.227
16360W        W17225  18.114  15.843   7.708
16361W        W17226  15.859  16.900   8.179
16362W        W17227  16.958  16.282  10.260
16363W        W17228  16.849  15.910   9.804
16364W        W17229  15.409  16.282   9.833
16365W        W17230  17.619  18.170   9.662
16366W        W17231  17.410  14.804  10.656
16367W        W17232  15.074  14.954  10.243
16368W        W17233  15.413  15.977   9.296
16369W        W17234  15.782  15.791   7.418
16370W        W17235  14.585  17.550   9.963
16371W        W17236  16.170  16.259   9.406
16372W        W17237  15.993  15.284   7.511
16373W        W17238  15.128  16.100   8.292
16374W        W17239  14.899  17.952   9.729
16375W        W17240  17.694  16.178   7.837
16376W        W17241  17.789  15.094  10.523
16377W        W17242  17.225  17.303   8.486
16378W        W17243  14.823  16.227  10.663
16379W        W17244  17.789  14.691   7.959
16380W        W17245  17.309  17.166   7.970
16381W        W17246  16.211  16.224   8.055
16382W        W17247  17.398  15.028   7.578
16383W        W17248  17.463  15.635   9.764
16384W        W17249  15.172  16.228   8.971
16385W        W17250  15.466  17.167   8.620
16386W        W17251  17.229  15.787   8.585
16387W        W17252  16.252  15.166   9.281
16388W        W17253  18.214  17.077   9.792
16389W        W17254  18.132  15.064   9.353
16390W        W17255  14.671  17.894   8.729
16391W        W17256  15.180  17.081   8.265
16392W        W17257  15.095  14.698  10.818
16393W        W17258  16.214  17.551  10.920
16394W        W17259  17.969  16.519   8.710
16395W        W17260  17.323  16.696   7.590
16396W        W17261  16.618  18.217   9.802
16397W        W17262  17.475  16.939  10.839
16398W        W17263  16.290  14.649   8.119
16399W        W17264  17.003  15.518   8.978
16400W        W17265  14.689  17.105   9.310
16401W        W17266  15.942  15.067   7.951
16402W        W17267  15.746  16.551  10.800
16403W        W17268  16.740  15.532   8.514
16404W        W17269  16.945  16.942   9.636
16405W        W17270  15.099  17.547  10.071
16406W        W17271  15.690  17.530  10.794
16407W        W17272  15.541  15.327   7.808
16408W        W17273  17.058  15.469   8.133
16409W        W17274  17.016  17.577  10.370
16410W        W17275  15.701  16.169   8.969
16411W        W17276  15.356  17.867   9.834
16412W        W17277  18.101  17.984   7.435
16413W        W17278  14.964  16.656  10.431
16414W        W17279  16.959  16.918   9.119
16415W        W17280  15.395  16.567   8.361
16416W        W17281  15.766  17.574   9.756
16417W        W17282  16.144  14.993   8.797
16418W        W17283  14.755  16.977   7.727
16419W        W17284  16.274  15.928   7.597
16420W        W17285  14.920  16.477   8.616
16421W        W17286  16.210  15.119  10.080
16422W        W17287  17.882  14.828   7.507
16423W        W17288  17.975  16.574  10.606
16424W        W17289  16.629  17.831  10.758
16425W        W17290  18.187  16.925  10.280
16426W        W17291  17.595  17.723  10.891
16427W        W17292  15.334  18.179   9.369
16428W        W17293  18.193  16.801   8.243
16429W        W17294  16.723  16.068   8.756
16430W        W17295  16.490  14.680   8.646
16431W        W17296  15.549  17.664   8.483
16432W        W17297  16.048  15.405   9.708
16433W        W17298  15.748  14.774   9.177
16434W        W17299  14.811  17.596   7.725
16435W        W17300  16.627  16.960   8.443
16436W        W17301  15.502  17.755  10.322
16437W        W17302  14.979  16.578   8.018
16438W        W17303  14.864  15.121   9.017
16439W        W17304  16.412  17.086   9.074
16440W        W17305  14.664  14.940   8.094
16441W        W17306  17.328  16.146  10.021
16442W        W17307  17.205  15.532   7.593
16443W        W17308  17.722  17.204   9.241
16444W        W17309  16.383  17.688   9.072
16445W        W17310  15.795  17.792   7.983
16446W        W17311  17.077  14.695   7.413
16447W        W17312  14.877  17.955   9.154
16448W        W17313  17.074  15.713  10.789
16449W        W17314  15.057  15.243  10.788
16450W        W17315  14.788  15.843   8.121
16451W        W17316  15.479  15.832   7.846
16452W        W17317  17.242  16.159  10.663
16453W        W17318  15.585  16.440   9.372
16454W        W17319  17.059  14.726   8.492
16455W        W17320  16.190  18.157   8.995
16456W        W17321  17.404  17.619   9.932
16457W        W17322  16.988  17.768   9.043
16458W        W17323  17.007  16.748   8.637
16459W        W17324  16.469  14.973   7.708
16460W        W17325  18.150  14.601   8.430
16461W        W17326  15.838  16.236   7.593
16462W        W17327  18.004  15.573   8.583
16463W        W17328  16.696  16.743   7.460
16464W        W17329  17.632  16.943  10.208
16465W        W17330  17.286  17.644   7.675
16466W        W17331  15.901  15.319  10.581
16467W        W17332  15.721  15.903   9.822
16468W        W17333  17.813  17.398  10.099
16469W        W17334  16.913  15.348  10.476
16470W        W17335  14.757  15.819  10.253
16471W        W17336  16.517  16.296   9.979
16472W        W17337  15.021  16.351   9.526
16473W        W17338  17.338  16.637   9.876
16474W        W17339  17.110  18.017  10.687
16475W        W17340  17.006  15.756  10.240
16476W        W17341  17.283  17.810   8.645
16477W        W17342  16.285  17.530   9.968
16478W        W17343  15.770  17.885   9.237
16479W        W17344  17.575  17.056   9.656
16480W        W17345  16.625  17.128  10.793
16481W        W17346  15.230  17.081   9.132
16482W        W17347  17.576  16.840   8.777
16483W        W17348  17.217  17.906   9.528
16484W        W17349  15.195  17.635   9.398
16485W        W17350  16.216  15.687  10.608
16486W        W17351  16.667  17.853   8.119
16487W        W17352  15.975  17.108  10.757
16488W        W17353  16.101  17.346   8.134
16489W        W17354  15.322  16.086   7.393
16490W        W17355  14.661  18.172  14.292
16491W        W17356  15.037  17.065  13.815
16492W        W17357  17.742  16.795  11.585
16493W        W17358  17.872  17.880  13.612
16494W        W17359  15.790  17.871  11.138
16495W        W17360  15.873  16.023  12.121
16496W        W17361  15.388  15.871  12.285
16497W        W17362  16.379  16.686  11.719
16498W        W17363  16.054  17.778  14.074
16499W        W17364  14.703  15.339  14.037
16500W        W17365  15.465  14.619  13.839
16501W        W17366  17.159  15.007  12.726
16502W        W17367  16.808  15.878  11.296
16503W        W17368  17.378  15.312  14.387
16504W        W17369  14.744  15.104  13.512
16505W        W17370  14.843  17.723  14.533
16506W        W17371  16.365  17.113  11.265
16507W        W17372  14.797  15.896  12.958
16508W        W17373  15.690  15.787  14.195
16509W        W17374  18.149  15.646  12.694
16510W        W17375  17.913  16.689  13.553
16511W        W17376  16.221  16.022  12.580
16512W        W17377  16.767  17.361  12.949
16513W        W17378  15.267  16.795  13.181
16514W        W17379  14.626  16.323  12.752
16515W        W17380  15.662  16.295  13.944
16516W        W17381  17.933  16.078  14.198
16517W        W17382  15.549  17.522  12.643
16518W        W17383  16.670  17.211  13.777
16519W        W17384  15.890  15.851  13.002
16520W        W17385  16.182  16.635  12.645
16521W        W17386  17.179  17.408  14.493
16522W        W17387  16.258  16.728  14.503
16523W        W17388  16.239  16.444  13.981
16524W        W17389  14.648  15.835  14.503
16525W        W17390  17.480  17.370  14.102
16526W        W17391  15.061  14.952  12.100
16527W        W17392  15.588  17.210  13.099
16528W        W17393  18.051  16.993  12.389
16529W        W17394  17.464  15.393  12.956
16530W        W17395  17.749  15.346  11.051
16531W        W17396  18.214  16.147  13.357
16532W        W17397  16.181  17.854  13.110
16533W        W17398  17.955  17.320  11.548
16534W        W17399  15.084  18.106  11.302
16535W        W17400  15.477  18.152  11.978
16536W        W17401  15.274  14.906  13.404
16537W        W17402  17.897  15.924  13.679
16538W        W17403  17.302  16.346  12.138
16539W        W17404  17.268  16.034  11.165
16540W        W17405  16.476  17.178  13.305
16541W        W17406  16.282  15.508  12.504
16542W        W17407  16.882  17.595  13.498
16543W        W17408  17.753  16.386  11.920
16544W        W17409  16.655  15.044  11.936
16545W        W17410  15.312  17.738  11.619
16546W        W17411  14.683  15.237  12.218
16547W        W17412  17.469  15.844  12.692
16548W        W17413  14.927  17.461  12.607
16549W        W17414  16.268  17.811  11.477
16550W        W17415  17.660  15.837  10.941
16551W        W17416  14.683  17.595  13.105
16552W        W17417  15.474  17.167  13.585
16553W        W17418  15.847  16.527  12.204
16554W        W17419  15.869  14.932  13.297
16555W        W17420  18.098  14.694  12.594
16556W        W17421  15.317  16.566  11.062
16557W        W17422  14.972  15.599  11.241
16558W        W17423  15.034  17.555  12.035
16559W        W17424  16.165  17.038  12.283
16560W        W17425  17.497  17.897  13.997
16561W        W17426  16.423  15.539  11.681
16562W        W17427  17.806  17.937  12.453
16563W        W17428  17.483  15.790  14.051
16564W        W17429  18.196  17.446  12.185
16565W        W17430  16.823  16.738  13.669
16566W        W17431  14.589  16.289  11.875
16567W        W17432  15.700  16.704  13.448
16568W        W17433  16.904  15.968  11.826
16569W        W17434  16.781  16.458  11.930
16570W        W17435  15.124  15.878  13.404
16571W        W17436  15.109  15.754  14.326
16572W        W17437  14.999  14.671  12.485
16573W        W17438  16.767  15.018  13.046
16574W        W17439  16.415  15.203  14.209
16575W        W17440  16.770  15.352  11.387
16576W        W17441  17.953  17.745  14.141
16577W        W17442  16.920  14.826  14.180
16578W        W17443  17.939  17.127  14.302
16579W        W17444  17.369  15.294  13.898
16580W        W17445  17.169  15.232  12.168
16581W        W17446  17.562  16.366  14.572
16582W        W17447  15.302  17.942  12.558
16583W        W17448  15.960  15.659  11.544
16584W        W17449  15.529  14.943  14.208
16585W        W17450  17.581  15.427  11.889
16586W        W17451  17.948  15.909  11.834
16587W        W17452  15.691  18.126  14.305
16588W        W17453  15.617  14.662  11.540
16589W        W17454  17.938  15.196  12.575
16590W        W17455  18.088  17.445  11.020
16591W        W17456  14.995  16.648  12.722
16592W        W17457  16.912  15.235  10.952
16593W        W17458  18.046  17.567  12.672
16594W        W17459  18.085  14.761  13.422
16595W        W17460  16.530  15.973  13.976
16596W        W17461  16.623  17.312  11.679
16597W        W17462  17.023  16.606  14.419
16598W        W17463  16.697  14.583  12.728
16599W        W17464  15.309  15.486  12.791
16600W        W17465  14.863  16.686  13.565
16601W        W17466  16.722  17.879  12.271
16602W        W17467  17.916  15.476  13.143
16603W        W17468  16.553  17.823  13.910
16604W        W17469  17.896  16.882  11.115
16605W        W17470  16.331  16.365  12.176
16606W        W17471  18.183  14.876  13.917
16607W        W17472  16.332  16.711  13.511
16608W        W17473  16.549  15.597  12.956
16609W        W17474  17.401  15.895  11.794
16610W        W17475  17.688  15.628  11.436
16611W        W17476  17.497  17.668  11.825
16612W        W17477  17.331  17.271  12.621
16613W        W17478  17.227  16.350  11.599
16614W        W17479  16.660  16.560  12.585
16615W        W17480  17.541  16.348  12.652
16616W        W17481  14.916  15.363  13.076
16617W        W17482  17.694  16.415  13.903
16618W        W17483  18.045  18.033  13.049
16619W        W17484  15.975  17.477  12.451
16620W        W17485  16.982  18.010  13.775
16621W        W17486  16.976  15.340  13.539
16622W        W17487  16.183  18.048  13.600
16623W        W17488  17.880  15.002  12.066
16624W        W17489  17.671  16.321  13.367
16625W        W17490  14.654  15.642  13.405
16626W        W17491  17.514  15.437  12.423
16627W        W17492  17.925  15.588  14.200
16628W        W17493  16.810  17.287  12.418
16629W        W17494  16.066  17.878  12.031
16630W        W17495  15.181  15.058  11.289
16631W        W17496  16.285  14.712  13.099
16632W        W17497  15.313  17.832  10.947
16633W        W17498  15.687  16.298  11.698
16634W        W17499  16.341  16.927  14.011
16635W        W17500  16.171  15.285  12.001
16636W        W17501  17.527  14.882  12.429
16637W        W17502  17.247  18.164  12.757
16638W        W17503  16.659  17.812  13.097
16639W        W17504  16.055  16.849  13.058
16640W        W17505  17.825  17.572  13.184
16641W        W17506  15.519  15.075  11.953
16642W        W17507  16.041  17.372  12.913
16643W        W17508  15.524  15.303  10.978
16644W        W17509  16.325  15.912  13.372
16645W        W17510  17.173  14.778  13.242
16646W        W17511  14.593  16.621  13.127
16647W        W17512  16.297  16.439  11.285
16648W        W17513  15.565  14.754  11.055
16649W        W17514  16.303  15.835  12.106
16650W        W17515  17.273  14.811  13.805
16651W        W17516  15.861  16.823  13.914
16652W        W17517  16.665  16.605  14.131
16653W        W17518  17.282  16.635  14.024
16654W        W17519  16.566  14.775  14.529
16655W        W17520  15.788  15.391  12.922
16656W        W17521  15.214  15.347  12.320
16657W        W17522  15.000  18.059  11.996
16658W        W17523  16.332  17.389  14.121
16659W        W17524  15.367  16.874  11.480
16660W        W17525  17.047  16.259  12.701
16661W        W17526  17.327  16.058  13.100
16662W        W17527  16.532  16.732  13.034
16663W        W17528  17.002  17.106  11.166
16664W        W17529  16.674  15.127  12.494
16665W        W17530  18.153  15.405  11.762
16666W        W17531  14.647  17.994  13.793
16667W        W17532  15.064  17.220  13.325
16668W        W17533  14.631  18.066  11.557
16669W        W17534  16.530  15.336  13.363
16670W        W17535  15.893  17.359  11.212
16671W        W17536  17.798  17.741  11.398
16672W        W17537  16.773  16.394  11.412
16673W        W17538  15.616  15.585  11.929
16674W        W17539  16.448  15.495  10.981
16675W        W17540  17.032  17.060  14.159
16676W        W17541  17.385  14.966  11.776
16677W        W17542  14.715  14.814  11.224
16678W        W17543  16.001  17.133  13.514
16679W        W17544  15.800  17.049  12.606
16680W        W17545  15.542  17.001  11.004
16681W        W17546  14.783  17.242  11.772
16682W        W17547  15.287  16.312  14.214
16683W        W17548  15.991  14.872  14.400
16684W        W17549  16.700  15.014  13.756
16685W        W17550  15.895  14.782  12.037
16686W        W17551  16.954  14.859  11.542
16687W        W17552  14.899  14.791  13.119
16688W        W17553  14.947  15.754  12.489
16689W        W17554  17.636  14.862  12.895
16690W        W17555  15.058  15.360  11.709
16691W        W17556  17.629  15.048  13.325
16692W        W17557  18.025  16.251  11.010
16693W        W17558  15.317  15.009  12.829
16694W        W17559  16.431  15.581  13.769
16695W        W17560  14.579  15.271  11.247
16696W        W17561  15.365  16.660  13.808
16697W        W17562  16.723  16.058  12.987
16698W        W17563  16.590  18.137  11.283
16699W        W17564  14.736  16.644  10.980
16700W        W17565  15.471  17.055  14.106
16701W        W17566  14.992  16.222  13.737
16702W        W17567  15.983  16.327  13.531
16703W        W17568  17.751  14.686  13.793
16704W        W17569  18.149  16.296  13.784
16705W        W17570  18.137  16.496  11.470
16706W        W17571  17.000  16.828  11.569
16707W        W17572  17.474  18.128  11.264
16708W        W17573  16.651  16.118  14.406
16709W        W17574  14.981  17.085  14.446
16710W        W17575  18.187  15.007  14.398
16711W        W17576  17.905  15.935  13.019
16712W        W17577  16.213  18.065  14.496
16713W        W17578  16.068  14.694  11.223
16714W        W17579  17.607  17.293  11.166
16715W        W17580  15.376  15.386  14.052
16716W        W17581  15.810  17.380  13.914
16717W        W17582  17.936  15.371  13.712
16718W        W17583  17.147  18.030  11.680
16719W        W17584  17.386  16.649  13.047
16720W        W17585  15.636  15.065  13.714
16721W        W17586  16.105  16.134  14.471
16722W        W17587  15.608  17.313  11.665
16723W        W17588  17.363  16.811  11.929
16724W        W17589  15.131  15.437  13.653
16725W        W17590  16.460  17.499  12.117
16726W        W17591  18.210  16.059  12.298
16727W        W17592  16.432  14.692  14.017
16728W        W17593  17.212  17.397  13.096
16729W        W17594  17.515  17.741  12.804
16730W        W17595  16.734  17.543  11.232
16731W        W17596  14.744  17.435  14.074
16732W        W17597  15.487  15.427  13.312
16733W        W17598  15.457  14.775  12.422
16734W        W17599  17.078  15.617  13.114
16735W        W17600  15.876  16.788  11.314
16736W        W17601  17.874  16.730  12.813
16737W        W17602  15.201  17.488  14.236
16738W        W17603  17.588  18.170  12.033
16739W        W17604  15.687  15.190  12.478
16740W        W17605  15.456  16.683  12.568
16741W        W17606  15.769  18.094  13.318
16742W        W17607  17.836  18.190  14.350
16743W        W17608  16.995  16.378  13.283
16744W        W17609  14.844  16.176  11.198
16745W        W17610  17.978  17.834  11.895
16746W        W17611  17.815  15.158  11.514
16747W        W17612  15.954  14.677  13.917
16748W        W17613  17.660  17.479  12.375
16749W        W17614  17.689  16.035  12.280
16750W        W17615  15.806  15.708  12.496
16751W        W17616  16.051  15.970  13.820
16752W        W17617  17.162  17.123  13.683
16753W        W17618  15.812  15.577  13.795
16754W        W17619  15.791  18.043  12.411
16755W        W17620  15.108  18.002  14.045
16756W        W17621  15.220  17.363  11.175
16757W        W17622  17.737  17.121  11.985
16758W        W17623  15.341  15.913  13.871
16759W        W17624  18.114  15.843  11.352
16760W        W17625  15.859  16.900  11.823
16761W        W17626  16.958  16.282  13.904
16762W        W17627  16.849  15.910  13.448
16763W        W17628  15.409  16.282  13.477
16764W        W17629  17.619  18.170  13.306
16765W        W17630  17.410  14.804  14.300
16766W        W17631  15.074  14.954  13.887
16767W        W17632  15.413  15.977  12.940
16768W        W17633  15.782  15.791  11.062
16769W        W17634  14.585  17.550  13.607
16770W        W17635  16.170  16.259  13.050
16771W        W17636  15.993  15.284  11.155
16772W        W17637  15.128  16.100  11.936
16773W        W17638  14.899  17.952  13.373
16774W        W17639  17.694  16.178  11.481
16775W        W17640  17.789  15.094  14.167
16776W        W17641  17.225  17.303  12.130
16777W        W17642  14.823  16.227  14.307
16778W        W17643  17.789  14.691  11.603
16779W        W17644  17.309  17.166  11.614
16780W        W17645  16.211  16.224  11.699
16781W        W17646  17.398  15.028  11.222
16782W        W17647  17.463  15.635  13.408
16783W        W17648  15.172  16.228  12.615
16784W        W17649  15.466  17.167  12.264
16785W        W17650  17.229  15.787  12.229
16786W        W17651  16.252  15.166  12.925
16787W        W17652  18.214  17.077  13.436
16788W        W17653  18.132  15.064  12.997
16789W        W17654  14.671  17.894  12.373
16790W        W17655  15.180  17.081  11.909
16791W        W17656  15.095  14.698  14.462
16792W        W17657  16.214  17.551  14.564
16793W        W17658  17.969  16.519  12.354
16794W        W17659  17.323  16.696  11.234
16795W        W17660  16.618  18.217  13.446
16796W        W17661  17.475  16.939  14.483
16797W        W17662  16.290  14.649  11.763
16798W        W17663  17.003  15.518  12.622
16799W        W17664  14.689  17.105  12.954
16800W        W17665  15.942  15.067  11.595
16801W        W17666  15.746  16.551  14.444
16802W        W17667  16.740  15.532  12.158
16803W        W17668  16.945  16.942  13.280
16804W        W17669  15.099  17.547  13.715
16805W        W17670  15.690  17.530  14.438
16806W        W17671  15.541  15.327  11.452
16807W        W17672  17.058  15.469  11.777
16808W        W17673  17.016  17.577  14.014
16809W        W17674  15.701  16.169  12.613
16810W        W17675  15.356  17.867  13.478
16811W        W17676  18.101  17.984  11.079
16812W        W17677  14.964  16.656  14.075
16813W        W17678  16.959  16.918  12.763
16814W        W17679  15.395  16.567  12.005
16815W        W17680  15.766  17.574  13.400
16816W        W17681  16.144  14.993  12.441
16817W        W17682  14.755  16.977  11.371
16818W        W17683  16.274  15.928  11.241
16819W        W17684  14.920  16.477  12.260
16820W        W17685  16.210  15.119  13.724
16821W        W17686  17.882  14.828  11.151
16822W        W17687  17.975  16.574  14.250
16823W        W17688  16.629  17.831  14.402
16824W        W17689  18.187  16.925  13.924
16825W        W17690  17.595  17.723  14.535
16826W        W17691  15.334  18.179  13.013
16827W        W17692  18.193  16.801  11.887
16828W        W17693  16.723  16.068  12.400
16829W        W17694  16.490  14.680  12.290
16830W        W17695  15.549  17.664  12.127
16831W        W17696  16.048  15.405  13.352
16832W        W17697  15.748  14.774  12.821
16833W        W17698  14.811  17.596  11.369
16834W        W17699  16.627  16.960  12.087
16835W        W17700  15.502  17.755  13.966
16836W        W17701  14.979  16.578  11.662
16837W        W17702  14.864  15.121  12.661
16838W        W17703  16.412  17.086  12.718
16839W        W17704  14.664  14.940  11.738
16840W        W17705  17.328  16.146  13.665
16841W        W17706  17.205  15.532  11.237
16842W        W17707  17.722  17.204  12.885
16843W        W17708  16.383  17.688  12.716
16844W        W17709  15.795  17.792  11.627
16845W        W17710  17.077  14.695  11.057
16846W        W17711  14.877  17.955  12.798
16847W        W17712  17.074  15.713  14.433
16848W        W17713  15.057  15.243  14.432
16849W        W17714  14.788  15.843  11.765
16850W        W17715  15.479  15.832  11.490
16851W        W17716  17.242  16.159  14.307
16852W        W17717  15.585  16.440  13.016
16853W        W17718  17.059  14.726  12.136
16854W        W17719  16.190  18.157  12.639
16855W        W17720  17.404  17.619  13.576
16856W        W17721  16.988  17.768  12.687
16857W        W17722  17.007  16.748  12.281
16858W        W17723  16.469  14.973  11.352
16859W        W17724  18.150  14.601  12.074
16860W        W17725  15.838  16.236  11.237
16861W        W17726  18.004  15.573  12.227
16862W        W17727  16.696  16.743  11.104
16863W        W17728  17.632  16.943  13.852
16864W        W17729  17.286  17.644  11.319
16865W        W17730  15.901  15.319  14.225
16866W        W17731  15.721  15.903  13.466
16867W        W17732  17.813  17.398  13.743
16868W        W17733  16.913  15.348  14.120
16869W        W17734  14.757  15.819  13.897
16870W        W17735  16.517  16.296  13.623
16871W        W17736  14.874  17.054  12.280
16872W        W17737  15.021  16.351  13.170
16873W        W17738  17.338  16.637  13.520
16874W        W17739  17.110  18.017  14.331
16875W        W17740  17.006  15.756  13.884
16876W        W17741  17.283  17.810  12.289
16877W        W17742  16.285  17.530  13.612
16878W        W17743  15.770  17.885  12.881
16879W        W17744  17.575  17.056  13.300
16880W        W17745  16.625  17.128  14.437
16881W        W17746  15.230  17.081  12.776
16882W        W17747  17.576  16.840  12.421
16883W        W17748  17.217  17.906  13.172
16884W        W17749  15.195  17.635  13.042
16885W        W17750  16.216  15.687  14.252
16886W        W17751  16.667  17.853  11.763
16887W        W17752  15.975  17.108  14.401
16888W        W17753  16.101  17.346  11.778
16889W        W17754  15.322  16.086  11.037
16890W        W17755  14.661  18.172  17.936
16891W        W17756  15.037  17.065  17.459
16892W        W17757  17.742  16.795  15.229
16893W        W17758  17.872  17.880  17.256
16894W        W17759  15.790  17.871  14.782
16895W        W17760  15.873  16.023  15.765
16896W        W17761  15.388  15.871  15.929
16897W        W17762  16.379  16.686  15.363
16898W        W17763  16.054  17.778  17.718
16899W        W17764  14.703  15.339  17.681
16900W        W17765  15.465  14.619  17.483
16901W        W17766  17.159  15.007  16.370
16902W        W17767  16.808  15.878  14.940
16903W        W17768  17.378  15.312  18.031
16904W        W17769  14.744  15.104  17.156
16905W        W17770  14.843  17.723  18.177
16906W        W17771  16.365  17.113  14.909
16907W        W17772  14.797  15.896  16.602
16908W        W17773  15.690  15.787  17.839
16909W        W17774  18.149  15.646  16.338
16910W        W17775  17.913  16.689  17.197
16911W        W17776  16.221  16.022  16.224
16912W        W17777  16.767  17.361  16.593
16913W        W17778  15.267  16.795  16.825
16914W        W17779  14.626  16.323  16.396
16915W        W17780  15.662  16.295  17.588
16916W        W17781  17.933  16.078  17.842
16917W        W17782  15.549  17.522  16.287
16918W        W17783  16.670  17.211  17.421
16919W        W17784  15.890  15.851  16.646
16920W        W17785  16.182  16.635  16.289
16921W        W17786  17.179  17.408  18.137
16922W        W17787  16.258  16.728  18.147
16923W        W17788  16.239  16.444  17.625
16924W        W17789  14.648  15.835  18.147
16925W        W17790  17.480  17.370  17.746
16926W        W17791  15.061  14.952  15.744
16927W        W17792  15.588  17.210  16.743
16928W        W17793  18.051  16.993  16.033
16929W        W17794  17.464  15.393  16.600
16930W        W17795  17.749  15.346  14.695
16931W        W17796  18.214  16.147  17.001
16932W        W17797  16.181  17.854  16.754
16933W        W17798  17.955  17.320  15.192
16934W        W17799  15.084  18.106  14.946
16935W        W17800  15.477  18.152  15.622
16936W        W17801  15.274  14.906  17.048
16937W        W17802  17.897  15.924  17.323
16938W        W17803  17.302  16.346  15.782
16939W        W17804  17.268  16.034  14.809
16940W        W17805  16.476  17.178  16.949
16941W        W17806  16.282  15.508  16.148
16942W        W17807  16.882  17.595  17.142
16943W        W17808  17.753  16.386  15.564
16944W        W17809  16.655  15.044  15.580
16945W        W17810  15.312  17.738  15.263
16946W        W17811  14.683  15.237  15.862
16947W        W17812  17.469  15.844  16.336
16948W        W17813  14.927  17.461  16.251
16949W        W17814  16.268  17.811  15.121
16950W        W17815  17.660  15.837  14.585
16951W        W17816  14.683  17.595  16.749
16952W        W17817  15.474  17.167  17.229
16953W        W17818  15.847  16.527  15.848
16954W        W17819  15.869  14.932  16.941
16955W        W17820  18.098  14.694  16.238
16956W        W17821  15.317  16.566  14.706
16957W        W17822  14.972  15.599  14.885
16958W        W17823  15.034  17.555  15.679
16959W        W17824  16.165  17.038  15.927
16960W        W17825  17.497  17.897  17.641
16961W        W17826  16.423  15.539  15.325
16962W        W17827  17.806  17.937  16.097
16963W        W17828  17.483  15.790  17.695
16964W        W17829  18.196  17.446  15.829
16965W        W17830  16.823  16.738  17.313
16966W        W17831  14.589  16.289  15.519
16967W        W17832  15.700  16.704  17.092
16968W        W17833  16.904  15.968  15.470
16969W        W17834  16.781  16.458  15.574
16970W        W17835  15.124  15.878  17.048
16971W        W17836  15.109  15.754  17.970
16972W        W17837  14.999  14.671  16.129
16973W        W17838  16.767  15.018  16.690
16974W        W17839  16.415  15.203  17.853
16975W        W17840  16.770  15.352  15.031
16976W        W17841  17.953  17.745  17.785
16977W        W17842  16.920  14.826  17.824
16978W        W17843  17.939  17.127  17.946
16979W        W17844  17.369  15.294  17.542
16980W        W17845  17.169  15.232  15.812
16981W        W17846  17.562  16.366  18.216
16982W        W17847  15.302  17.942  16.202
16983W        W17848  15.960  15.659  15.188
16984W        W17849  15.529  14.943  17.852
16985W        W17850  17.581  15.427  15.533
16986W        W17851  17.948  15.909  15.478
16987W        W17852  15.691  18.126  17.949
16988W        W17853  15.617  14.662  15.184
16989W        W17854  17.938  15.196  16.219
16990W        W17855  18.088  17.445  14.664
16991W        W17856  14.995  16.648  16.366
16992W        W17857  16.912  15.235  14.596
16993W        W17858  18.046  17.567  16.316
16994W        W17859  18.085  14.761  17.066
16995W        W17860  16.530  15.973  17.620
16996W        W17861  16.623  17.312  15.323
16997W        W17862  17.023  16.606  18.063
16998W        W17863  16.697  14.583  16.372
16999W        W17864  15.309  15.486  16.435
17000W        W17865  14.863  16.686  17.209
17001W        W17866  16.722  17.879  15.915
17002W        W17867  17.916  15.476  16.787
17003W        W17868  16.553  17.823  17.554
17004W        W17869  17.896  16.882  14.759
17005W        W17870  16.331  16.365  15.820
17006W        W17871  18.183  14.876  17.561
17007W        W17872  16.332  16.711  17.155
17008W        W17873  16.549  15.597  16.600
17009W        W17874  17.401  15.895  15.438
17010W        W17875  17.688  15.628  15.080
17011W        W17876  17.497  17.668  15.469
17012W        W17877  17.331  17.271  16.265
17013W        W17878  17.227  16.350  15.243
17014W        W17879  16.660  16.560  16.229
17015W        W17880  17.541  16.348  16.296
17016W        W17881  14.916  15.363  16.720
17017W        W17882  17.694  16.415  17.547
17018W        W17883  18.045  18.033  16.693
17019W        W17884  15.975  17.477  16.095
17020W        W17885  16.982  18.010  17.419
17021W        W17886  16.976  15.340  17.183
17022W        W17887  16.183  18.048  17.244
17023W        W17888  17.880  15.002  15.710
17024W        W17889  17.671  16.321  17.011
17025W        W17890  14.654  15.642  17.049
17026W        W17891  17.514  15.437  16.067
17027W        W17892  17.925  15.588  17.844
17028W        W17893  16.810  17.287  16.062
17029W        W17894  16.066  17.878  15.675
17030W        W17895  15.181  15.058  14.933
17031W        W17896  16.285  14.712  16.743
17032W        W17897  15.313  17.832  14.591
17033W        W17898  15.687  16.298  15.342
17034W        W17899  16.341  16.927  17.655
17035W        W17900  16.171  15.285  15.645
17036W        W17901  17.527  14.882  16.073
17037W        W17902  17.247  18.164  16.401
17038W        W17903  16.659  17.812  16.741
17039W        W17904  16.055  16.849  16.702
17040W        W17905  17.825  17.572  16.828
17041W        W17906  15.519  15.075  15.597
17042W        W17907  16.041  17.372  16.557
17043W        W17908  15.524  15.303  14.622
17044W        W17909  16.325  15.912  17.016
17045W        W17910  17.173  14.778  16.886
17046W        W17911  14.593  16.621  16.771
17047W        W17912  16.297  16.439  14.929
17048W        W17913  15.565  14.754  14.699
17049W        W17914  16.303  15.835  15.750
17050W        W17915  17.273  14.811  17.449
17051W        W17916  15.861  16.823  17.558
17052W        W17917  16.665  16.605  17.775
17053W        W17918  17.282  16.635  17.668
17054W        W17919  16.566  14.775  18.173
17055W        W17920  15.788  15.391  16.566
17056W        W17921  15.214  15.347  15.964
17057W        W17922  15.000  18.059  15.640
17058W        W17923  16.332  17.389  17.765
17059W        W17924  15.367  16.874  15.124
17060W        W17925  17.047  16.259  16.345
17061W        W17926  17.327  16.058  16.744
17062W        W17927  16.532  16.732  16.678
17063W        W17928  17.002  17.106  14.810
17064W        W17929  16.674  15.127  16.138
17065W        W17930  18.153  15.405  15.406
17066W        W17931  14.647  17.994  17.437
17067W        W17932  15.064  17.220  16.969
17068W        W17933  14.631  18.066  15.201
17069W        W17934  16.530  15.336  17.007
17070W        W17935  15.893  17.359  14.856
17071W        W17936  17.798  17.741  15.042
17072W        W17937  16.773  16.394  15.056
17073W        W17938  15.616  15.585  15.573
17074W        W17939  16.448  15.495  14.625
17075W        W17940  17.032  17.060  17.803
17076W        W17941  17.385  14.966  15.420
17077W        W17942  14.715  14.814  14.868
17078W        W17943  16.001  17.133  17.158
17079W        W17944  15.800  17.049  16.250
17080W        W17945  15.542  17.001  14.648
17081W        W17946  14.783  17.242  15.416
17082W        W17947  15.287  16.312  17.858
17083W        W17948  15.991  14.872  18.044
17084W        W17949  16.700  15.014  17.400
17085W        W17950  15.895  14.782  15.681
17086W        W17951  16.954  14.859  15.186
17087W        W17952  14.899  14.791  16.763
17088W        W17953  14.947  15.754  16.133
17089W        W17954  17.636  14.862  16.539
17090W        W17955  15.058  15.360  15.353
17091W        W17956  17.629  15.048  16.969
17092W        W17957  18.025  16.251  14.654
17093W        W17958  15.317  15.009  16.473
17094W        W17959  16.431  15.581  17.413
17095W        W17960  14.579  15.271  14.891
17096W        W17961  15.365  16.660  17.452
17097W        W17962  16.723  16.058  16.631
17098W        W17963  16.590  18.137  14.927
17099W        W17964  14.736  16.644  14.624
17100W        W17965  15.471  17.055  17.750
17101W        W17966  14.992  16.222  17.381
17102W        W17967  15.983  16.327  17.175
17103W        W17968  17.751  14.686  17.437
17104W        W17969  18.149  16.296  17.428
17105W        W17970  18.137  16.496  15.114
17106W        W17971  17.000  16.828  15.213
17107W        W17972  17.474  18.128  14.908
17108W        W17973  16.651  16.118  18.050
17109W        W17974  14.981  17.085  18.090
17110W        W17975  18.187  15.007  18.042
17111W        W17976  17.905  15.935  16.663
17112W        W17977  16.213  18.065  18.140
17113W        W17978  16.068  14.694  14.867
17114W        W17979  17.607  17.293  14.810
17115W        W17980  15.376  15.386  17.696
17116W        W17981  15.810  17.380  17.558
17117W        W17982  17.936  15.371  17.356
17118W        W17983  17.147  18.030  15.324
17119W        W17984  17.386  16.649  16.691
17120W        W17985  15.636  15.065  17.358
17121W        W17986  16.105  16.134  18.115
17122W        W17987  15.608  17.313  15.309
17123W        W17988  17.363  16.811  15.573
17124W        W17989  15.131  15.437  17.297
17125W        W17990  16.460  17.499  15.761
17126W        W17991  18.210  16.059  15.942
17127W        W17992  16.432  14.692  17.661
17128W        W17993  17.212  17.397  16.740
17129W        W17994  17.515  17.741  16.448
17130W        W17995  16.734  17.543  14.876
17131W        W17996  14.744  17.435  17.718
17132W        W17997  15.487  15.427  16.956
17133W        W17998  15.457  14.775  16.066
17134W        W17999  17.078  15.617  16.758
17135W        W18000  15.876  16.788  14.958
17136W        W18001  17.874  16.730  16.457
17137W        W18002  15.201  17.488  17.880
17138W        W18003  17.588  18.170  15.677
17139W        W18004  15.687  15.190  16.122
17140W        W18005  15.456  16.683  16.212
17141W        W18006  15.769  18.094  16.962
17142W        W18007  17.836  18.190  17.994
17143W        W18008  16.995  16.378  16.927
17144W        W18009  14.844  16.176  14.842
17145W        W18010  17.978  17.834  15.539
17146W        W18011  17.815  15.158  15.158
17147W        W18012  15.954  14.677  17.561
17148W        W18013  17.660  17.479  16.019
17149W        W18014  17.689  16.035  15.924
17150W        W18015  15.806  15.708  16.140
17151W        W18016  16.051  15.970  17.464
17152W        W18017  17.162  17.123  17.327
17153W        W18018  15.812  15.577  17.439
17154W        W18019  15.791  18.043  16.055
17155W        W18020  15.108  18.002  17.689
17156W        W18021  15.220  17.363  14.819
17157W        W18022  17.737  17.121  15.629
17158W        W18023  15.341  15.913  17.515
17159W        W18024  18.114  15.843  14.996
17160W        W18025  15.859  16.900  15.467
17161W        W18026  16.958  16.282  17.548
17162W        W18027  16.849  15.910  17.092
17163W        W18028  15.409  16.282  17.121
17164W        W18029  17.619  18.170  16.950
17165W        W18030  17.410  14.804  17.944
17166W        W18031  15.074  14.954  17.531
17167W        W18032  15.413  15.977  16.584
17168W        W18033  15.782  15.791  14.706
17169W        W18034  14.585  17.550  17.251
17170W        W18035  16.170  16.259  16.694
17171W        W18036  15.993  15.284  14.799
17172W        W18037  15.128  16.100  15.580
17173W        W18038  14.899  17.952  17.017
17174W        W18039  17.694  16.178  15.125
17175W        W18040  17.789  15.094  17.811
17176W        W18041  17.225  17.303  15.774
17177W        W18042  14.823  16.227  17.951
17178W        W18043  17.789  14.691  15.247
17179W        W18044  17.309  17.166  15.258
17180W        W18045  16.211  16.224  15.343
17181W        W18046  17.398  15.028  14.866
17182W        W18047  17.463  15.635  17.052
17183W        W18048  15.172  16.228  16.259
17184W        W18049  15.466  17.167  15.908
17185W        W18050  17.229  15.787  15.873
17186W        W18051  16.252  15.166  16.569
17187W        W18052  18.214  17.077  17.080
17188W        W18053  18.132  15.064  16.641
17189W        W18054  14.671  17.894  16.017
17190W        W18055  15.180  17.081  15.553
17191W        W18056  15.095  14.698  18.106
17192W        W18057  16.214  17.551  18.208
17193W        W18058  17.969  16.519  15.998
17194W        W18059  17.323  16.696  14.878
17195W        W18060  16.618  18.217  17.090
17196W        W18061  17.475  16.939  18.127
17197W        W18062  16.290  14.649  15.407
17198W        W18063  17.003  15.518  16.266
17199W        W18064  14.689  17.105  16.598
17200W        W18065  15.942  15.067  15.239
17201W        W18066  15.746  16.551  18.088
17202W        W18067  16.740  15.532  15.802
17203W        W18068  16.945  16.942  16.924
17204W        W18069  15.099  17.547  17.359
17205W        W18070  15.690  17.530  18.082
17206W        W18071  15.541  15.327  15.096
17207W        W18072  17.058  15.469  15.421
17208W        W18073  17.016  17.577  17.658
17209W        W18074  15.701  16.169  16.257
17210W        W18075  15.356  17.867  17.122
17211W        W18076  18.101  17.984  14.723
17212W        W18077  14.964  16.656  17.719
17213W        W18078  16.959  16.918  16.407
17214W        W18079  15.395  16.567  15.649
17215W        W18080  15.766  17.574  17.044
17216W        W18081  16.144  14.993  16.085
17217W        W18082  14.755  16.977  15.015
17218W        W18083  16.274  15.928  14.885
17219W        W18084  14.920  16.477  15.904
17220W        W18085  16.210  15.119  17.368
17221W        W18086  17.882  14.828  14.795
17222W        W18087  17.975  16.574  17.894
17223W        W18088  16.629  17.831  18.046
17224W        W18089  18.187  16.925  17.568
17225W        W18090  17.595  17.723  18.179
17226W        W18091  15.334  18.179  16.657
17227W        W18092  18.193  16.801  15.531
17228W        W18093  16.723  16.068  16.044
17229W        W18094  16.490  14.680  15.934
17230W        W18095  15.549  17.664  15.771
17231W        W18096  16.048  15.405  16.996
17232W        W18097  15.748  14.774  16.465
17233W        W18098  14.811  17.596  15.013
17234W        W18099  16.627  16.960  15.731
17235W        W18100  15.502  17.755  17.610
17236W        W18101  14.979  16.578  15.306
17237W        W18102  14.864  15.121  16.305
17238W        W18103  16.412  17.086  16.362
17239W        W18104  14.664  14.940  15.382
17240W        W18105  17.328  16.146  17.309
17241W        W18106  17.205  15.532  14.881
17242W        W18107  17.722  17.204  16.529
17243W        W18108  16.383  17.688  16.360
17244W        W18109  15.795  17.792  15.271
17245W        W18110  17.077  14.695  14.701
17246W        W18111  14.877  17.955  16.442
17247W        W18112  17.074  15.713  18.077
17248W        W18113  15.057  15.243  18.076
17249W        W18114  14.788  15.843  15.409
17250W        W18115  15.479  15.832  15.134
17251W        W18116  17.242  16.159  17.951
17252W        W18117  15.585  16.440  16.660
17253W        W18118  17.059  14.726  15.780
17254W        W18119  16.190  18.157  16.283
17255W        W18120  17.404  17.619  17.220
17256W        W18121  16.988  17.768  16.331
17257W        W18122  17.007  16.748  15.925
17258W        W18123  16.469  14.973  14.996
17259W        W18124  18.150  14.601  15.718
17260W        W18125  15.838  16.236  14.881
17261W        W18126  18.004  15.573  15.871
17262W        W18127  16.696  16.743  14.748
17263W        W18128  17.632  16.943  17.496
17264W        W18129  17.286  17.644  14.963
17265W        W18130  15.901  15.319  17.869
17266W        W18131  15.721  15.903  17.110
17267W        W18132  17.813  17.398  17.387
17268W        W18133  16.913  15.348  17.764
17269W        W18134  14.757  15.819  17.541
17270W        W18135  16.517  16.296  17.267
17271W        W18136  14.874  17.054  15.924
17272W        W18137  15.021  16.351  16.814
17273W        W18138  17.338  16.637  17.164
17274W        W18139  17.110  18.017  17.975
17275W        W18140  17.006  15.756  17.528
17276W        W18141  17.283  17.810  15.933
17277W        W18142  16.285  17.530  17.256
17278W        W18143  15.770  17.885  16.525
17279W        W18144  17.575  17.056  16.944
17280W        W18145  16.625  17.128  18.081
17281W        W18146  15.230  17.081  16.420
17282W        W18147  17.576  16.840  16.065
17283W        W18148  17.217  17.906  16.816
17284W        W18149  15.195  17.635  16.686
17285W        W18150  16.216  15.687  17.896
17286W        W18151  16.667  17.853  15.407
17287W        W18152  15.975  17.108  18.045
17288W        W18153  16.101  17.346  15.422
17289W        W18154  15.322  16.086  14.681
17290W        W18155  14.661  18.172  21.580
17291W        W18156  15.037  17.065  21.103
17292W        W18157  17.742  16.795  18.873
17293W        W18158  17.872  17.880  20.900
17294W        W18159  15.790  17.871  18.426
17295W        W18160  15.873  16.023  19.409
17296W        W18161  15.388  15.871  19.573
17297W        W18162  16.379  16.686  19.007
17298W        W18163  16.054  17.778  21.362
17299W        W18164  14.703  15.339  21.325
17300W        W18165  15.465  14.619  21.127
17301W        W18166  17.159  15.007  20.014
17302W        W18167  16.808  15.878  18.584
17303W        W18168  17.378  15.312  21.675
17304W        W18169  14.744  15.104  20.800
17305W        W18170  14.843  17.723  21.821
17306W        W18171  16.365  17.113  18.553
17307W        W18172  14.797  15.896  20.246
17308W        W18173  15.690  15.787  21.483
17309W        W18174  18.149  15.646  19.982
17310W        W18175  17.913  16.689  20.841
17311W        W18176  16.221  16.022  19.868
17312W        W18177  16.767  17.361  20.237
17313W        W18178  15.267  16.795  20.469
17314W        W18179  14.626  16.323  20.040
17315W        W18180  15.662  16.295  21.232
17316W        W18181  17.933  16.078  21.486
17317W        W18182  15.549  17.522  19.931
17318W        W18183  16.670  17.211  21.065
17319W        W18184  15.890  15.851  20.290
17320W        W18185  16.182  16.635  19.933
17321W        W18186  17.179  17.408  21.781
17322W        W18187  16.258  16.728  21.791
17323W        W18188  16.239  16.444  21.269
17324W        W18189  14.648  15.835  21.791
17325W        W18190  17.480  17.370  21.390
17326W        W18191  15.061  14.952  19.388
17327W        W18192  15.588  17.210  20.387
17328W        W18193  18.051  16.993  19.677
17329W        W18194  17.464  15.393  20.244
17330W        W18195  17.749  15.346  18.339
17331W        W18196  18.214  16.147  20.645
17332W        W18197  16.181  17.854  20.398
17333W        W18198  17.955  17.320  18.836
17334W        W18199  15.084  18.106  18.590
17335W        W18200  15.477  18.152  19.266
17336W        W18201  15.274  14.906  20.692
17337W        W18202  17.897  15.924  20.967
17338W        W18203  17.302  16.346  19.426
17339W        W18204  17.268  16.034  18.453
17340W        W18205  16.476  17.178  20.593
17341W        W18206  16.282  15.508  19.792
17342W        W18207  16.882  17.595  20.786
17343W        W18208  17.753  16.386  19.208
17344W        W18209  16.655  15.044  19.224
17345W        W18210  15.312  17.738  18.907
17346W        W18211  14.683  15.237  19.506
17347W        W18212  17.469  15.844  19.980
17348W        W18213  14.927  17.461  19.895
17349W        W18214  16.268  17.811  18.765
17350W        W18215  17.660  15.837  18.229
17351W        W18216  14.683  17.595  20.393
17352W        W18217  15.474  17.167  20.873
17353W        W18218  15.847  16.527  19.492
17354W        W18219  15.869  14.932  20.585
17355W        W18220  18.098  14.694  19.882
17356W        W18221  15.317  16.566  18.350
17357W        W18222  14.972  15.599  18.529
17358W        W18223  15.034  17.555  19.323
17359W        W18224  16.165  17.038  19.571
17360W        W18225  17.497  17.897  21.285
17361W        W18226  16.423  15.539  18.969
17362W        W18227  17.806  17.937  19.741
17363W        W18228  17.483  15.790  21.339
17364W        W18229  18.196  17.446  19.473
17365W        W18230  16.823  16.738  20.957
17366W        W18231  14.589  16.289  19.163
17367W        W18232  15.700  16.704  20.736
17368W        W18233  16.904  15.968  19.114
17369W        W18234  16.781  16.458  19.218
17370W        W18235  15.124  15.878  20.692
17371W        W18236  15.109  15.754  21.614
17372W        W18237  14.999  14.671  19.773
17373W        W18238  16.767  15.018  20.334
17374W        W18239  16.415  15.203  21.497
17375W        W18240  16.770  15.352  18.675
17376W        W18241  17.953  17.745  21.429
17377W        W18242  16.920  14.826  21.468
17378W        W18243  17.939  17.127  21.590
17379W        W18244  17.369  15.294  21.186
17380W        W18245  17.169  15.232  19.456
17381W        W18246  17.562  16.366  21.860
17382W        W18247  15.302  17.942  19.846
17383W        W18248  15.960  15.659  18.832
17384W        W18249  15.529  14.943  21.496
17385W        W18250  17.581  15.427  19.177
17386W        W18251  17.948  15.909  19.122
17387W        W18252  15.691  18.126  21.593
17388W        W18253  15.617  14.662  18.828
17389W        W18254  17.938  15.196  19.863
17390W        W18255  18.088  17.445  18.308
17391W        W18256  14.995  16.648  20.010
17392W        W18257  16.912  15.235  18.240
17393W        W18258  18.046  17.567  19.960
17394W        W18259  18.085  14.761  20.710
17395W        W18260  16.530  15.973  21.264
17396W        W18261  16.623  17.312  18.967
17397W        W18262  17.023  16.606  21.707
17398W        W18263  16.697  14.583  20.016
17399W        W18264  15.309  15.486  20.079
17400W        W18265  14.863  16.686  20.853
17401W        W18266  16.722  17.879  19.559
17402W        W18267  17.916  15.476  20.431
17403W        W18268  16.553  17.823  21.198
17404W        W18269  17.896  16.882  18.403
17405W        W18270  16.331  16.365  19.464
17406W        W18271  18.183  14.876  21.205
17407W        W18272  16.332  16.711  20.799
17408W        W18273  16.549  15.597  20.244
17409W        W18274  17.401  15.895  19.082
17410W        W18275  17.688  15.628  18.724
17411W        W18276  17.497  17.668  19.113
17412W        W18277  17.331  17.271  19.909
17413W        W18278  17.227  16.350  18.887
17414W        W18279  16.660  16.560  19.873
17415W        W18280  17.541  16.348  19.940
17416W        W18281  14.916  15.363  20.364
17417W        W18282  17.694  16.415  21.191
17418W        W18283  18.045  18.033  20.337
17419W        W18284  15.975  17.477  19.739
17420W        W18285  16.982  18.010  21.063
17421W        W18286  16.976  15.340  20.827
17422W        W18287  16.183  18.048  20.888
17423W        W18288  17.880  15.002  19.354
17424W        W18289  17.671  16.321  20.655
17425W        W18290  14.654  15.642  20.693
17426W        W18291  17.514  15.437  19.711
17427W        W18292  17.925  15.588  21.488
17428W        W18293  16.810  17.287  19.706
17429W        W18294  16.066  17.878  19.319
17430W        W18295  15.181  15.058  18.577
17431W        W18296  16.285  14.712  20.387
17432W        W18297  15.313  17.832  18.235
17433W        W18298  15.687  16.298  18.986
17434W        W18299  16.341  16.927  21.299
17435W        W18300  16.171  15.285  19.289
17436W        W18301  17.527  14.882  19.717
17437W        W18302  17.247  18.164  20.045
17438W        W18303  16.659  17.812  20.385
17439W        W18304  16.055  16.849  20.346
17440W        W18305  17.825  17.572  20.472
17441W        W18306  15.519  15.075  19.241
17442W        W18307  16.041  17.372  20.201
17443W        W18308  15.524  15.303  18.266
17444W        W18309  16.325  15.912  20.660
17445W        W18310  17.173  14.778  20.530
17446W        W18311  14.593  16.621  20.415
17447W        W18312  16.297  16.439  18.573
17448W        W18313  15.565  14.754  18.343
17449W        W18314  16.303  15.835  19.394
17450W        W18315  17.273  14.811  21.093
17451W        W18316  15.861  16.823  21.202
17452W        W18317  16.665  16.605  21.419
17453W        W18318  17.282  16.635  21.312
17454W        W18319  16.566  14.775  21.817
17455W        W18320  15.788  15.391  20.210
17456W        W18321  15.214  15.347  19.608
17457W        W18322  15.000  18.059  19.284
17458W        W18323  16.332  17.389  21.409
17459W        W18324  15.367  16.874  18.768
17460W        W18325  17.047  16.259  19.989
17461W        W18326  17.327  16.058  20.388
17462W        W18327  16.532  16.732  20.322
17463W        W18328  17.002  17.106  18.454
17464W        W18329  16.674  15.127  19.782
17465W        W18330  18.153  15.405  19.050
17466W        W18331  14.647  17.994  21.081
17467W        W18332  15.064  17.220  20.613
17468W        W18333  14.631  18.066  18.845
17469W        W18334  16.530  15.336  20.651
17470W        W18335  15.893  17.359  18.500
17471W        W18336  17.798  17.741  18.686
17472W        W18337  16.773  16.394  18.700
17473W        W18338  15.616  15.585  19.217
17474W        W18339  16.448  15.495  18.269
17475W        W18340  17.032  17.060  21.447
17476W        W18341  17.385  14.966  19.064
17477W        W18342  14.715  14.814  18.512
17478W        W18343  16.001  17.133  20.802
17479W        W18344  15.800  17.049  19.894
17480W        W18345  15.542  17.001  18.292
17481W        W18346  14.783  17.242  19.060
17482W        W18347  15.287  16.312  21.502
17483W        W18348  15.991  14.872  21.688
17484W        W18349  16.700  15.014  21.044
17485W        W18350  15.895  14.782  19.325
17486W        W18351  16.954  14.859  18.830
17487W        W18352  14.899  14.791  20.407
17488W        W18353  14.947  15.754  19.777
17489W        W18354  17.636  14.862  20.183
17490W        W18355  15.058  15.360  18.997
17491W        W18356  17.629  15.048  20.613
17492W        W18357  18.025  16.251  18.298
17493W        W18358  15.317  15.009  20.117
17494W        W18359  16.431  15.581  21.057
17495W        W18360  14.579  15.271  18.535
17496W        W18361  15.365  16.660  21.096
17497W        W18362  16.723  16.058  20.275
17498W        W18363  16.590  18.137  18.571
17499W        W18364  14.736  16.644  18.268
17500W        W18365  15.471  17.055  21.394
17501W        W18366  14.992  16.222  21.025
17502W        W18367  15.983  16.327  20.819
17503W        W18368  17.751  14.686  21.081
17504W        W18369  18.149  16.296  21.072
17505W        W18370  18.137  16.496  18.758
17506W        W18371  17.000  16.828  18.857
17507W        W18372  17.474  18.128  18.552
17508W        W18373  16.651  16.118  21.694
17509W        W18374  14.981  17.085  21.734
17510W        W18375  18.187  15.007  21.686
17511W        W18376  17.905  15.935  20.307
17512W        W18377  16.213  18.065  21.784
17513W        W18378  16.068  14.694  18.511
17514W        W18379  17.607  17.293  18.454
17515W        W18380  15.376  15.386  21.340
17516W        W18381  15.810  17.380  21.202
17517W        W18382  17.936  15.371  21.000
17518W        W18383  17.147  18.030  18.968
17519W        W18384  17.386  16.649  20.335
17520W        W18385  15.636  15.065  21.002
17521W        W18386  16.105  16.134  21.759
17522W        W18387  15.608  17.313  18.953
17523W        W18388  17.363  16.811  19.217
17524W        W18389  15.131  15.437  20.941
17525W        W18390  16.460  17.499  19.405
17526W        W18391  18.210  16.059  19.586
17527W        W18392  16.432  14.692  21.305
17528W        W18393  17.212  17.397  20.384
17529W        W18394  17.515  17.741  20.092
17530W        W18395  16.734  17.543  18.520
17531W        W18396  14.744  17.435  21.362
17532W        W18397  15.487  15.427  20.600
17533W        W18398  15.457  14.775  19.710
17534W        W18399  17.078  15.617  20.402
17535W        W18400  15.876  16.788  18.602
17536W        W18401  17.874  16.730  20.101
17537W        W18402  15.201  17.488  21.524
17538W        W18403  17.588  18.170  19.321
17539W        W18404  15.687  15.190  19.766
17540W        W18405  15.456  16.683  19.856
17541W        W18406  15.769  18.094  20.606
17542W        W18407  17.836  18.190  21.638
17543W        W18408  16.995  16.378  20.571
17544W        W18409  14.844  16.176  18.486
17545W        W18410  17.978  17.834  19.183
17546W        W18411  17.815  15.158  18.802
17547W        W18412  15.954  14.677  21.205
17548W        W18413  17.660  17.479  19.663
17549W        W18414  17.689  16.035  19.568
17550W        W18415  15.806  15.708  19.784
17551W        W18416  16.051  15.970  21.108
17552W        W18417  17.162  17.123  20.971
17553W        W18418  15.812  15.577  21.083
17554W        W18419  15.791  18.043  19.699
17555W        W18420  15.108  18.002  21.333
17556W        W18421  15.220  17.363  18.463
17557W        W18422  17.737  17.121  19.273
17558W        W18423  15.341  15.913  21.159
17559W        W18424  18.114  15.843  18.640
17560W        W18425  15.859  16.900  19.111
17561W        W18426  16.958  16.282  21.192
17562W        W18427  16.849  15.910  20.736
17563W        W18428  15.409  16.282  20.765
17564W        W18429  17.619  18.170  20.594
17565W        W18430  17.410  14.804  21.588
17566W        W18431  15.074  14.954  21.175
17567W        W18432  15.413  15.977  20.228
17568W        W18433  15.782  15.791  18.350
17569W        W18434  14.585  17.550  20.895
17570W        W18435  16.170  16.259  20.338
17571W        W18436  15.993  15.284  18.443
17572W        W18437  15.128  16.100  19.224
17573W        W18438  14.899  17.952  20.661
17574W        W18439  17.694  16.178  18.769
17575W        W18440  17.789  15.094  21.455
17576W        W18441  17.225  17.303  19.418
17577W        W18442  14.823  16.227  21.595
17578W        W18443  17.789  14.691  18.891
17579W        W18444  17.309  17.166  18.902
17580W        W18445  16.211  16.224  18.987
17581W        W18446  17.398  15.028  18.510
17582W        W18447  17.463  15.635  20.696
17583W        W18448  15.172  16.228  19.903
17584W        W18449  15.466  17.167  19.552
17585W        W18450  17.229  15.787  19.517
17586W        W18451  16.252  15.166  20.213
17587W        W18452  18.214  17.077  20.724
17588W        W18453  18.132  15.064  20.285
17589W        W18454  14.671  17.894  19.661
17590W        W18455  15.180  17.081  19.197
17591W        W18456  15.095  14.698  21.750
17592W        W18457  16.214  17.551  21.852
17593W        W18458  17.969  16.519  19.642
17594W        W18459  17.323  16.696  18.522
17595W        W18460  16.618  18.217  20.734
17596W        W18461  17.475  16.939  21.771
17597W        W18462  16.290  14.649  19.051
17598W        W18463  17.003  15.518  19.910
17599W        W18464  14.689  17.105  20.242
17600W        W18465  15.942  15.067  18.883
17601W        W18466  15.746  16.551  21.732
17602W        W18467  16.740  15.532  19.446
17603W        W18468  16.945  16.942  20.568
17604W        W18469  15.099  17.547  21.003
17605W        W18470  15.690  17.530  21.726
17606W        W18471  15.541  15.327  18.740
17607W        W18472  17.058  15.469  19.065
17608W        W18473  17.016  17.577  21.302
17609W        W18474  15.701  16.169  19.901
17610W        W18475  15.356  17.867  20.766
17611W        W18476  18.101  17.984  18.367
17612W        W18477  14.964  16.656  21.363
17613W        W18478  16.959  16.918  20.051
17614W        W18479  15.395  16.567  19.293
17615W        W18480  15.766  17.574  20.688
17616W        W18481  16.144  14.993  19.729
17617W        W18482  14.755  16.977  18.659
17618W        W18483  16.274  15.928  18.529
17619W        W18484  14.920  16.477  19.548
17620W        W18485  16.210  15.119  21.012
17621W        W18486  17.882  14.828  18.439
17622W        W18487  17.975  16.574  21.538
17623W        W18488  16.629  17.831  21.690
17624W        W18489  18.187  16.925  21.212
17625W        W18490  17.595  17.723  21.823
17626W        W18491  15.334  18.179  20.301
17627W        W18492  18.193  16.801  19.175
17628W        W18493  16.723  16.068  19.688
17629W        W18494  16.490  14.680  19.578
17630W        W18495  15.549  17.664  19.415
17631W        W18496  16.048  15.405  20.640
17632W        W18497  15.748  14.774  20.109
17633W        W18498  14.811  17.596  18.657
17634W        W18499  16.627  16.960  19.375
17635W        W18500  15.502  17.755  21.254
17636W        W18501  14.979  16.578  18.950
17637W        W18502  14.864  15.121  19.949
17638W        W18503  16.412  17.086  20.006
17639W        W18504  14.664  14.940  19.026
17640W        W18505  17.328  16.146  20.953
17641W        W18506  17.205  15.532  18.525
17642W        W18507  17.722  17.204  20.173
17643W        W18508  16.383  17.688  20.004
17644W        W18509  15.795  17.792  18.915
17645W        W18510  17.077  14.695  18.345
17646W        W18511  14.877  17.955  20.086
17647W        W18512  17.074  15.713  21.721
17648W        W18513  15.057  15.243  21.720
17649W        W18514  14.788  15.843  19.053
17650W        W18515  15.479  15.832  18.778
17651W        W18516  17.242  16.159  21.595
17652W        W18517  15.585  16.440  20.304
17653W        W18518  17.059  14.726  19.424
17654W        W18519  16.190  18.157  19.927
17655W        W18520  17.404  17.619  20.864
17656W        W18521  16.988  17.768  19.975
17657W        W18522  17.007  16.748  19.569
17658W        W18523  16.469  14.973  18.640
17659W        W18524  18.150  14.601  19.362
17660W        W18525  15.838  16.236  18.525
17661W        W18526  18.004  15.573  19.515
17662W        W18527  16.696  16.743  18.392
17663W        W18528  17.632  16.943  21.140
17664W        W18529  17.286  17.644  18.607
17665W        W18530  15.901  15.319  21.513
17666W        W18531  15.721  15.903  20.754
17667W        W18532  17.813  17.398  21.031
17668W        W18533  16.913  15.348  21.408
17669W        W18534  14.757  15.819  21.185
17670W        W18535  16.517  16.296  20.911
17671W        W18536  14.874  17.054  19.568
17672W        W18537  15.021  16.351  20.458
17673W        W18538  17.338  16.637  20.808
17674W        W18539  17.110  18.017  21.619
17675W        W18540  17.006  15.756  21.172
17676W        W18541  17.283  17.810  19.577
17677W        W18542  16.285  17.530  20.900
17678W        W18543  15.770  17.885  20.169
17679W        W18544  17.575  17.056  20.588
17680W        W18545  16.625  17.128  21.725
17681W        W18546  15.230  17.081  20.064
17682W        W18547  17.576  16.840  19.709
17683W        W18548  17.217  17.906  20.460
17684W        W18549  15.195  17.635  20.330
17685W        W18550  16.216  15.687  21.540
17686W        W18551  16.667  17.853  19.051
17687W        W18552  15.975  17.108  21.689
17688W        W18553  16.101  17.346  19.066
17689W        W18554  15.322  16.086  18.325
17690W        W18555  14.661  18.172  25.225
17691W        W18556  15.037  17.065  24.748
17692W        W18557  17.742  16.795  22.518
17693W        W18558  17.872  17.880  24.545
17694W        W18559  15.790  17.871  22.071
17695W        W18560  15.873  16.023  23.054
17696W        W18561  15.388  15.871  23.218
17697W        W18562  16.379  16.686  22.652
17698W        W18563  16.054  17.778  25.007
17699W        W18564  14.703  15.339  24.970
17700W        W18565  15.465  14.619  24.772
17701W        W18566  17.159  15.007  23.659
17702W        W18567  16.808  15.878  22.229
17703W        W18568  17.378  15.312  25.320
17704W        W18569  14.744  15.104  24.445
17705W        W18570  14.843  17.723  25.466
17706W        W18571  16.365  17.113  22.198
17707W        W18572  14.797  15.896  23.891
17708W        W18573  15.690  15.787  25.128
17709W        W18574  18.149  15.646  23.627
17710W        W18575  17.913  16.689  24.486
17711W        W18576  16.221  16.022  23.513
17712W        W18577  16.767  17.361  23.882
17713W        W18578  15.267  16.795  24.114
17714W        W18579  14.626  16.323  23.685
17715W        W18580  15.662  16.295  24.877
17716W        W18581  17.933  16.078  25.131
17717W        W18582  15.549  17.522  23.576
17718W        W18583  16.670  17.211  24.710
17719W        W18584  15.890  15.851  23.935
17720W        W18585  16.182  16.635  23.578
17721W        W18586  17.179  17.408  25.426
17722W        W18587  16.258  16.728  25.436
17723W        W18588  16.239  16.444  24.914
17724W        W18589  14.648  15.835  25.436
17725W        W18590  17.480  17.370  25.035
17726W        W18591  15.061  14.952  23.033
17727W        W18592  15.588  17.210  24.032
17728W        W18593  18.051  16.993  23.322
17729W        W18594  17.464  15.393  23.889
17730W        W18595  17.749  15.346  21.984
17731W        W18596  18.214  16.147  24.290
17732W        W18597  16.181  17.854  24.043
17733W        W18598  17.955  17.320  22.481
17734W        W18599  15.084  18.106  22.235
17735W        W18600  15.477  18.152  22.911
17736W        W18601  15.274  14.906  24.337
17737W        W18602  17.897  15.924  24.612
17738W        W18603  17.302  16.346  23.071
17739W        W18604  17.268  16.034  22.098
17740W        W18605  16.476  17.178  24.238
17741W        W18606  16.282  15.508  23.437
17742W        W18607  16.882  17.595  24.431
17743W        W18608  17.753  16.386  22.853
17744W        W18609  16.655  15.044  22.869
17745W        W18610  15.312  17.738  22.552
17746W        W18611  14.683  15.237  23.151
17747W        W18612  17.469  15.844  23.625
17748W        W18613  14.927  17.461  23.540
17749W        W18614  16.268  17.811  22.410
17750W        W18615  17.660  15.837  21.874
17751W        W18616  14.683  17.595  24.038
17752W        W18617  15.474  17.167  24.518
17753W        W18618  15.847  16.527  23.137
17754W        W18619  15.869  14.932  24.230
17755W        W18620  18.098  14.694  23.527
17756W        W18621  15.317  16.566  21.995
17757W        W18622  14.972  15.599  22.174
17758W        W18623  15.034  17.555  22.968
17759W        W18624  16.165  17.038  23.216
17760W        W18625  17.497  17.897  24.930
17761W        W18626  16.423  15.539  22.614
17762W        W18627  17.806  17.937  23.386
17763W        W18628  17.483  15.790  24.984
17764W        W18629  18.196  17.446  23.118
17765W        W18630  16.823  16.738  24.602
17766W        W18631  14.589  16.289  22.808
17767W        W18632  15.700  16.704  24.381
17768W        W18633  16.904  15.968  22.759
17769W        W18634  16.781  16.458  22.863
17770W        W18635  15.124  15.878  24.337
17771W        W18636  15.109  15.754  25.259
17772W        W18637  14.999  14.671  23.418
17773W        W18638  16.767  15.018  23.979
17774W        W18639  16.415  15.203  25.142
17775W        W18640  16.770  15.352  22.320
17776W        W18641  17.953  17.745  25.074
17777W        W18642  16.920  14.826  25.113
17778W        W18643  17.939  17.127  25.235
17779W        W18644  17.369  15.294  24.831
17780W        W18645  17.169  15.232  23.101
17781W        W18646  17.562  16.366  25.505
17782W        W18647  15.302  17.942  23.491
17783W        W18648  15.960  15.659  22.477
17784W        W18649  15.529  14.943  25.141
17785W        W18650  17.581  15.427  22.822
17786W        W18651  17.948  15.909  22.767
17787W        W18652  15.691  18.126  25.238
17788W        W18653  15.617  14.662  22.473
17789W        W18654  17.938  15.196  23.508
17790W        W18655  18.088  17.445  21.953
17791W        W18656  14.995  16.648  23.655
17792W        W18657  16.912  15.235  21.885
17793W        W18658  18.046  17.567  23.605
17794W        W18659  18.085  14.761  24.355
17795W        W18660  16.530  15.973  24.909
17796W        W18661  16.623  17.312  22.612
17797W        W18662  17.023  16.606  25.352
17798W        W18663  16.697  14.583  23.661
17799W        W18664  15.309  15.486  23.724
17800W        W18665  14.863  16.686  24.498
17801W        W18666  16.722  17.879  23.204
17802W        W18667  17.916  15.476  24.076
17803W        W18668  16.553  17.823  24.843
17804W        W18669  17.896  16.882  22.048
17805W        W18670  16.331  16.365  23.109
17806W        W18671  18.183  14.876  24.850
17807W        W18672  16.332  16.711  24.444
17808W        W18673  16.549  15.597  23.889
17809W        W18674  17.401  15.895  22.727
17810W        W18675  17.688  15.628  22.369
17811W        W18676  17.497  17.668  22.758
17812W        W18677  17.331  17.271  23.554
17813W        W18678  17.227  16.350  22.532
17814W        W18679  16.660  16.560  23.518
17815W        W18680  17.541  16.348  23.585
17816W        W18681  14.916  15.363  24.009
17817W        W18682  17.694  16.415  24.836
17818W        W18683  18.045  18.033  23.982
17819W        W18684  15.975  17.477  23.384
17820W        W18685  16.982  18.010  24.708
17821W        W18686  16.976  15.340  24.472
17822W        W18687  16.183  18.048  24.533
17823W        W18688  17.880  15.002  22.999
17824W        W18689  17.671  16.321  24.300
17825W        W18690  14.654  15.642  24.338
17826W        W18691  17.514  15.437  23.356
17827W        W18692  17.925  15.588  25.133
17828W        W18693  16.810  17.287  23.351
17829W        W18694  16.066  17.878  22.964
17830W        W18695  15.181  15.058  22.222
17831W        W18696  16.285  14.712  24.032
17832W        W18697  15.313  17.832  21.880
17833W        W18698  15.687  16.298  22.631
17834W        W18699  16.341  16.927  24.944
17835W        W18700  16.171  15.285  22.934
17836W        W18701  17.527  14.882  23.362
17837W        W18702  17.247  18.164  23.690
17838W        W18703  16.659  17.812  24.030
17839W        W18704  16.055  16.849  23.991
17840W        W18705  17.825  17.572  24.117
17841W        W18706  15.519  15.075  22.886
17842W        W18707  16.041  17.372  23.846
17843W        W18708  15.524  15.303  21.911
17844W        W18709  16.325  15.912  24.305
17845W        W18710  17.173  14.778  24.175
17846W        W18711  14.593  16.621  24.060
17847W        W18712  16.297  16.439  22.218
17848W        W18713  15.565  14.754  21.988
17849W        W18714  16.303  15.835  23.039
17850W        W18715  17.273  14.811  24.738
17851W        W18716  15.861  16.823  24.847
17852W        W18717  16.665  16.605  25.064
17853W        W18718  17.282  16.635  24.957
17854W        W18719  16.566  14.775  25.462
17855W        W18720  15.788  15.391  23.855
17856W        W18721  15.214  15.347  23.253
17857W        W18722  15.000  18.059  22.929
17858W        W18723  16.332  17.389  25.054
17859W        W18724  15.367  16.874  22.413
17860W        W18725  17.047  16.259  23.634
17861W        W18726  17.327  16.058  24.033
17862W        W18727  16.532  16.732  23.967
17863W        W18728  17.002  17.106  22.099
17864W        W18729  16.674  15.127  23.427
17865W        W18730  18.153  15.405  22.695
17866W        W18731  14.647  17.994  24.726
17867W        W18732  15.064  17.220  24.258
17868W        W18733  14.631  18.066  22.490
17869W        W18734  16.530  15.336  24.296
17870W        W18735  15.893  17.359  22.145
17871W        W18736  17.798  17.741  22.331
17872W        W18737  16.773  16.394  22.345
17873W        W18738  15.616  15.585  22.862
17874W        W18739  16.448  15.495  21.914
17875W        W18740  17.032  17.060  25.092
17876W        W18741  17.385  14.966  22.709
17877W        W18742  14.715  14.814  22.157
17878W        W18743  16.001  17.133  24.447
17879W        W18744  15.800  17.049  23.539
17880W        W18745  15.542  17.001  21.937
17881W        W18746  14.783  17.242  22.705
17882W        W18747  15.287  16.312  25.147
17883W        W18748  15.991  14.872  25.333
17884W        W18749  16.700  15.014  24.689
17885W        W18750  15.895  14.782  22.970
17886W        W18751  16.954  14.859  22.475
17887W        W18752  14.899  14.791  24.052
17888W        W18753  14.947  15.754  23.422
17889W        W18754  17.636  14.862  23.828
17890W        W18755  15.058  15.360  22.642
17891W        W18756  17.629  15.048  24.258
17892W        W18757  18.025  16.251  21.943
17893W        W18758  15.317  15.009  23.762
17894W        W18759  16.431  15.581  24.702
17895W        W18760  14.579  15.271  22.180
17896W        W18761  15.365  16.660  24.741
17897W        W18762  16.723  16.058  23.920
17898W        W18763  16.590  18.137  22.216
17899W        W18764  14.736  16.644  21.913
17900W        W18765  15.471  17.055  25.039
17901W        W18766  14.992  16.222  24.670
17902W        W18767  15.983  16.327  24.464
17903W        W18768  17.751  14.686  24.726
17904W        W18769  18.149  16.296  24.717
17905W        W18770  18.137  16.496  22.403
17906W        W18771  17.000  16.828  22.502
17907W        W18772  17.474  18.128  22.197
17908W        W18773  16.651  16.118  25.339
17909W        W18774  14.981  17.085  25.379
17910W        W18775  18.187  15.007  25.331
17911W        W18776  17.905  15.935  23.952
17912W        W18777  16.213  18.065  25.429
17913W        W18778  16.068  14.694  22.156
17914W        W18779  17.607  17.293  22.099
17915W        W18780  15.376  15.386  24.985
17916W        W18781  15.810  17.380  24.847
17917W        W18782  17.936  15.371  24.645
17918W        W18783  17.147  18.030  22.613
17919W        W18784  17.386  16.649  23.980
17920W        W18785  15.636  15.065  24.647
17921W        W18786  16.105  16.134  25.404
17922W        W18787  15.608  17.313  22.598
17923W        W18788  17.363  16.811  22.862
17924W        W18789  15.131  15.437  24.586
17925W        W18790  16.460  17.499  23.050
17926W        W18791  18.210  16.059  23.231
17927W        W18792  16.432  14.692  24.950
17928W        W18793  17.212  17.397  24.029
17929W        W18794  17.515  17.741  23.737
17930W        W18795  16.734  17.543  22.165
17931W        W18796  14.744  17.435  25.007
17932W        W18797  15.487  15.427  24.245
17933W        W18798  15.457  14.775  23.355
17934W        W18799  17.078  15.617  24.047
17935W        W18800  15.876  16.788  22.247
17936W        W18801  17.874  16.730  23.746
17937W        W18802  15.201  17.488  25.169
17938W        W18803  17.588  18.170  22.966
17939W        W18804  15.687  15.190  23.411
17940W        W18805  15.456  16.683  23.501
17941W        W18806  15.769  18.094  24.251
17942W        W18807  17.836  18.190  25.283
17943W        W18808  16.995  16.378  24.216
17944W        W18809  14.844  16.176  22.131
17945W        W18810  17.978  17.834  22.828
17946W        W18811  17.815  15.158  22.447
17947W        W18812  15.954  14.677  24.850
17948W        W18813  17.660  17.479  23.308
17949W        W18814  17.689  16.035  23.213
17950W        W18815  15.806  15.708  23.429
17951W        W18816  16.051  15.970  24.753
17952W        W18817  17.162  17.123  24.616
17953W        W18818  15.812  15.577  24.728
17954W        W18819  15.791  18.043  23.344
17955W        W18820  15.108  18.002  24.978
17956W        W18821  15.220  17.363  22.108
17957W        W18822  17.737  17.121  22.918
17958W        W18823  15.341  15.913  24.804
17959W        W18824  18.114  15.843  22.285
17960W        W18825  15.859  16.900  22.756
17961W        W18826  16.958  16.282  24.837
17962W        W18827  16.849  15.910  24.381
17963W        W18828  15.409  16.282  24.410
17964W        W18829  17.619  18.170  24.239
17965W        W18830  17.410  14.804  25.233
17966W        W18831  15.074  14.954  24.820
17967W        W18832  15.413  15.977  23.873
17968W        W18833  15.782  15.791  21.995
17969W        W18834  14.585  17.550  24.540
17970W        W18835  16.170  16.259  23.983
17971W        W18836  15.993  15.284  22.088
17972W        W18837  15.128  16.100  22.869
17973W        W18838  14.899  17.952  24.306
17974W        W18839  17.694  16.178  22.414
17975W        W18840  17.789  15.094  25.100
17976W        W18841  17.225  17.303  23.063
17977W        W18842  14.823  16.227  25.240
17978W        W18843  17.789  14.691  22.536
17979W        W18844  17.309  17.166  22.547
17980W        W18845  16.211  16.224  22.632
17981W        W18846  17.398  15.028  22.155
17982W        W18847  17.463  15.635  24.341
17983W        W18848  15.172  16.228  23.548
17984W        W18849  15.466  17.167  23.197
17985W        W18850  17.229  15.787  23.162
17986W        W18851  16.252  15.166  23.858
17987W        W18852  18.214  17.077  24.369
17988W        W18853  18.132  15.064  23.930
17989W        W18854  14.671  17.894  23.306
17990W        W18855  15.180  17.081  22.842
17991W        W18856  15.095  14.698  25.395
17992W        W18857  16.214  17.551  25.497
17993W        W18858  17.969  16.519  23.287
17994W        W18859  17.323  16.696  22.167
17995W        W18860  16.618  18.217  24.379
17996W        W18861  17.475  16.939  25.416
17997W        W18862  16.290  14.649  22.696
17998W        W18863  17.003  15.518  23.555
17999W        W18864  14.689  17.105  23.887
18000W        W18865  15.942  15.067  22.528
18001W        W18866  15.746  16.551  25.377
18002W        W18867  16.740  15.532  23.091
18003W        W18868  16.945  16.942  24.213
18004W        W18869  15.099  17.547  24.648
18005W        W18870  15.690  17.530  25.371
18006W        W18871  15.541  15.327  22.385
18007W        W18872  17.058  15.469  22.710
18008W        W18873  17.016  17.577  24.947
18009W        W18874  15.701  16.169  23.546
18010W        W18875  15.356  17.867  24.411
18011W        W18876  18.101  17.984  22.012
18012W        W18877  14.964  16.656  25.008
18013W        W18878  16.959  16.918  23.696
18014W        W18879  15.395  16.567  22.938
18015W        W18880  15.766  17.574  24.333
18016W        W18881  16.144  14.993  23.374
18017W        W18882  14.755  16.977  22.304
18018W        W18883  16.274  15.928  22.174
18019W        W18884  14.920  16.477  23.193
18020W        W18885  16.210  15.119  24.657
18021W        W18886  17.882  14.828  22.084
18022W        W18887  17.975  16.574  25.183
18023W        W18888  16.629  17.831  25.335
18024W        W18889  18.187  16.925  24.857
18025W        W18890  17.595  17.723  25.468
18026W        W18891  15.334  18.179  23.946
18027W        W18892  18.193  16.801  22.820
18028W        W18893  16.723  16.068  23.333
18029W        W18894  16.490  14.680  23.223
18030W        W18895  15.549  17.664  23.060
18031W        W18896  16.048  15.405  24.285
18032W        W18897  15.748  14.774  23.754
18033W        W18898  14.811  17.596  22.302
18034W        W18899  16.627  16.960  23.020
18035W        W18900  15.502  17.755  24.899
18036W        W18901  14.979  16.578  22.595
18037W        W18902  14.864  15.121  23.594
18038W        W18903  16.412  17.086  23.651
18039W        W18904  14.664  14.940  22.671
18040W        W18905  17.328  16.146  24.598
18041W        W18906  17.205  15.532  22.170
18042W        W18907  17.722  17.204  23.818
18043W        W18908  16.383  17.688  23.649
18044W        W18909  15.795  17.792  22.560
18045W        W18910  17.077  14.695  21.990
18046W        W18911  14.877  17.955  23.731
18047W        W18912  17.074  15.713  25.366
18048W        W18913  15.057  15.243  25.365
18049W        W18914  14.788  15.843  22.698
18050W        W18915  15.479  15.832  22.423
18051W        W18916  17.242  16.159  25.240
18052W        W18917  15.585  16.440  23.949
18053W        W18918  17.059  14.726  23.069
18054W        W18919  16.190  18.157  23.572
18055W        W18920  17.404  17.619  24.509
18056W        W18921  16.988  17.768  23.620
18057W        W18922  17.007  16.748  23.214
18058W        W18923  16.469  14.973  22.285
18059W        W18924  18.150  14.601  23.007
18060W        W18925  15.838  16.236  22.170
18061W        W18926  18.004  15.573  23.160
18062W        W18927  16.696  16.743  22.037
18063W        W18928  17.632  16.943  24.785
18064W        W18929  17.286  17.644  22.252
18065W        W18930  15.901  15.319  25.158
18066W        W18931  15.721  15.903  24.399
18067W        W18932  17.813  17.398  24.676
18068W        W18933  16.913  15.348  25.053
18069W        W18934  14.757  15.819  24.830
18070W        W18935  16.517  16.296  24.556
18071W        W18936  14.874  17.054  23.213
18072W        W18937  15.021  16.351  24.103
18073W        W18938  17.338  16.637  24.453
18074W        W18939  17.110  18.017  25.264
18075W        W18940  17.006  15.756  24.817
18076W        W18941  17.283  17.810  23.222
18077W        W18942  16.285  17.530  24.545
18078W        W18943  15.770  17.885  23.814
18079W        W18944  17.575  17.056  24.233
18080W        W18945  16.625  17.128  25.370
18081W        W18946  15.230  17.081  23.709
18082W        W18947  17.576  16.840  23.354
18083W        W18948  17.217  17.906  24.105
18084W        W18949  15.195  17.635  23.975
18085W        W18950  16.216  15.687  25.185
18086W        W18951  16.667  17.853  22.696
18087W        W18952  15.975  17.108  25.334
18088W        W18953  16.101  17.346  22.711
18089W        W18954  15.322  16.086  21.970
18090W        W18955  14.661  18.172  28.869
18091W        W18956  15.037  17.065  28.392
18092W        W18957  17.742  16.795  26.162
18093W        W18958  17.872  17.880  28.189
18094W        W18959  15.790  17.871  25.715
18095W        W18960  15.873  16.023  26.698
18096W        W18961  15.388  15.871  26.862
18097W        W18962  16.379  16.686  26.296
18098W        W18963  16.054  17.778  28.651
18099W        W18964  14.703  15.339  28.614
18100W        W18965  15.465  14.619  28.416
18101W        W18966  17.159  15.007  27.303
18102W        W18967  16.808  15.878  25.873
18103W        W18968  17.378  15.312  28.964
18104W        W18969  14.744  15.104  28.089
18105W        W18970  14.843  17.723  29.110
18106W        W18971  16.365  17.113  25.842
18107W        W18972  14.797  15.896  27.535
18108W        W18973  15.690  15.787  28.772
18109W        W18974  18.149  15.646  27.271
18110W        W18975  17.913  16.689  28.130
18111W        W18976  16.221  16.022  27.157
18112W        W18977  16.767  17.361  27.526
18113W        W18978  15.267  16.795  27.758
18114W        W18979  14.626  16.323  27.329
18115W        W18980  15.662  16.295  28.521
18116W        W18981  17.933  16.078  28.775
18117W        W18982  15.549  17.522  27.220
18118W        W18983  16.670  17.211  28.354
18119W        W18984  15.890  15.851  27.579
18120W        W18985  16.182  16.635  27.222
18121W        W18986  17.179  17.408  29.070
18122W        W18987  16.258  16.728  29.080
18123W        W18988  16.239  16.444  28.558
18124W        W18989  14.648  15.835  29.080
18125W        W18990  17.480  17.370  28.679
18126W        W18991  15.061  14.952  26.677
18127W        W18992  15.588  17.210  27.676
18128W        W18993  18.051  16.993  26.966
18129W        W18994  17.464  15.393  27.533
18130W        W18995  17.749  15.346  25.628
18131W        W18996  18.214  16.147  27.934
18132W        W18997  16.181  17.854  27.687
18133W        W18998  17.955  17.320  26.125
18134W        W18999  15.084  18.106  25.879
18135W        W19000  15.477  18.152  26.555
18136W        W19001  15.274  14.906  27.981
18137W        W19002  17.897  15.924  28.256
18138W        W19003  17.302  16.346  26.715
18139W        W19004  17.268  16.034  25.742
18140W        W19005  16.476  17.178  27.882
18141W        W19006  16.282  15.508  27.081
18142W        W19007  16.882  17.595  28.075
18143W        W19008  17.753  16.386  26.497
18144W        W19009  16.655  15.044  26.513
18145W        W19010  15.312  17.738  26.196
18146W        W19011  14.683  15.237  26.795
18147W        W19012  17.469  15.844  27.269
18148W        W19013  14.927  17.461  27.184
18149W        W19014  16.268  17.811  26.054
18150W        W19015  17.660  15.837  25.518
18151W        W19016  14.683  17.595  27.682
18152W        W19017  15.474  17.167  28.162
18153W        W19018  15.847  16.527  26.781
18154W        W19019  15.869  14.932  27.874
18155W        W19020  18.098  14.694  27.171
18156W        W19021  15.317  16.566  25.639
18157W        W19022  14.972  15.599  25.818
18158W        W19023  15.034  17.555  26.612
18159W        W19024  16.165  17.038  26.860
18160W        W19025  17.497  17.897  28.574
18161W        W19026  16.423  15.539  26.258
18162W        W19027  17.806  17.937  27.030
18163W        W19028  17.483  15.790  28.628
18164W        W19029  18.196  17.446  26.762
18165W        W19030  16.823  16.738  28.246
18166W        W19031  14.589  16.289  26.452
18167W        W19032  15.700  16.704  28.025
18168W        W19033  16.904  15.968  26.403
18169W        W19034  16.781  16.458  26.507
18170W        W19035  15.124  15.878  27.981
18171W        W19036  15.109  15.754  28.903
18172W        W19037  14.999  14.671  27.062
18173W        W19038  16.767  15.018  27.623
18174W        W19039  16.415  15.203  28.786
18175W        W19040  16.770  15.352  25.964
18176W        W19041  17.953  17.745  28.718
18177W        W19042  16.920  14.826  28.757
18178W        W19043  17.939  17.127  28.879
18179W        W19044  17.369  15.294  28.475
18180W        W19045  17.169  15.232  26.745
18181W        W19046  17.562  16.366  29.149
18182W        W19047  15.302  17.942  27.135
18183W        W19048  15.960  15.659  26.121
18184W        W19049  15.529  14.943  28.785
18185W        W19050  17.581  15.427  26.466
18186W        W19051  17.948  15.909  26.411
18187W        W19052  15.691  18.126  28.882
18188W        W19053  15.617  14.662  26.117
18189W        W19054  17.938  15.196  27.152
18190W        W19055  18.088  17.445  25.597
18191W        W19056  14.995  16.648  27.299
18192W        W19057  16.912  15.235  25.529
18193W        W19058  18.046  17.567  27.249
18194W        W19059  18.085  14.761  27.999
18195W        W19060  16.530  15.973  28.553
18196W        W19061  16.623  17.312  26.256
18197W        W19062  17.023  16.606  28.996
18198W        W19063  16.697  14.583  27.305
18199W        W19064  15.309  15.486  27.368
18200W        W19065  14.863  16.686  28.142
18201W        W19066  16.722  17.879  26.848
18202W        W19067  17.916  15.476  27.720
18203W        W19068  16.553  17.823  28.487
18204W        W19069  17.896  16.882  25.692
18205W        W19070  16.331  16.365  26.753
18206W        W19071  18.183  14.876  28.494
18207W        W19072  16.332  16.711  28.088
18208W        W19073  16.549  15.597  27.533
18209W        W19074  17.401  15.895  26.371
18210W        W19075  17.688  15.628  26.013
18211W        W19076  17.497  17.668  26.402
18212W        W19077  17.331  17.271  27.198
18213W        W19078  17.227  16.350  26.176
18214W        W19079  16.660  16.560  27.162
18215W        W19080  17.541  16.348  27.229
18216W        W19081  14.916  15.363  27.653
18217W        W19082  17.694  16.415  28.480
18218W        W19083  18.045  18.033  27.626
18219W        W19084  15.975  17.477  27.028
18220W        W19085  16.982  18.010  28.352
18221W        W19086  16.976  15.340  28.116
18222W        W19087  16.183  18.048  28.177
18223W        W19088  17.880  15.002  26.643
18224W        W19089  17.671  16.321  27.944
18225W        W19090  14.654  15.642  27.982
18226W        W19091  17.514  15.437  27.000
18227W        W19092  17.925  15.588  28.777
18228W        W19093  16.810  17.287  26.995
18229W        W19094  16.066  17.878  26.608
18230W        W19095  15.181  15.058  25.866
18231W        W19096  16.285  14.712  27.676
18232W        W19097  15.313  17.832  25.524
18233W        W19098  15.687  16.298  26.275
18234W        W19099  16.341  16.927  28.588
18235W        W19100  16.171  15.285  26.578
18236W        W19101  17.527  14.882  27.006
18237W        W19102  17.247  18.164  27.334
18238W        W19103  16.659  17.812  27.674
18239W        W19104  16.055  16.849  27.635
18240W        W19105  17.825  17.572  27.761
18241W        W19106  15.519  15.075  26.530
18242W        W19107  16.041  17.372  27.490
18243W        W19108  15.524  15.303  25.555
18244W        W19109  16.325  15.912  27.949
18245W        W19110  17.173  14.778  27.819
18246W        W19111  14.593  16.621  27.704
18247W        W19112  16.297  16.439  25.862
18248W        W19113  15.565  14.754  25.632
18249W        W19114  16.303  15.835  26.683
18250W        W19115  17.273  14.811  28.382
18251W        W19116  15.861  16.823  28.491
18252W        W19117  16.665  16.605  28.708
18253W        W19118  17.282  16.635  28.601
18254W        W19119  16.566  14.775  29.106
18255W        W19120  15.788  15.391  27.499
18256W        W19121  15.214  15.347  26.897
18257W        W19122  15.000  18.059  26.573
18258W        W19123  16.332  17.389  28.698
18259W        W19124  15.367  16.874  26.057
18260W        W19125  17.047  16.259  27.278
18261W        W19126  17.327  16.058  27.677
18262W        W19127  16.532  16.732  27.611
18263W        W19128  17.002  17.106  25.743
18264W        W19129  16.674  15.127  27.071
18265W        W19130  18.153  15.405  26.339
18266W        W19131  14.647  17.994  28.370
18267W        W19132  15.064  17.220  27.902
18268W        W19133  14.631  18.066  26.134
18269W        W19134  16.530  15.336  27.940
18270W        W19135  15.893  17.359  25.789
18271W        W19136  17.798  17.741  25.975
18272W        W19137  16.773  16.394  25.989
18273W        W19138  15.616  15.585  26.506
18274W        W19139  16.448  15.495  25.558
18275W        W19140  17.032  17.060  28.736
18276W        W19141  17.385  14.966  26.353
18277W        W19142  14.715  14.814  25.801
18278W        W19143  16.001  17.133  28.091
18279W        W19144  15.800  17.049  27.183
18280W        W19145  15.542  17.001  25.581
18281W        W19146  14.783  17.242  26.349
18282W        W19147  15.287  16.312  28.791
18283W        W19148  15.991  14.872  28.977
18284W        W19149  16.700  15.014  28.333
18285W        W19150  15.895  14.782  26.614
18286W        W19151  16.954  14.859  26.119
18287W        W19152  14.899  14.791  27.696
18288W        W19153  14.947  15.754  27.066
18289W        W19154  17.636  14.862  27.472
18290W        W19155  15.058  15.360  26.286
18291W        W19156  17.629  15.048  27.902
18292W        W19157  18.025  16.251  25.587
18293W        W19158  15.317  15.009  27.406
18294W        W19159  16.431  15.581  28.346
18295W        W19160  14.579  15.271  25.824
18296W        W19161  15.365  16.660  28.385
18297W        W19162  16.723  16.058  27.564
18298W        W19163  16.590  18.137  25.860
18299W        W19164  14.736  16.644  25.557
18300W        W19165  15.471  17.055  28.683
18301W        W19166  14.992  16.222  28.314
18302W        W19167  15.983  16.327  28.108
18303W        W19168  17.751  14.686  28.370
18304W        W19169  18.149  16.296  28.361
18305W        W19170  18.137  16.496  26.047
18306W        W19171  17.000  16.828  26.146
18307W        W19172  17.474  18.128  25.841
18308W        W19173  16.651  16.118  28.983
18309W        W19174  14.981  17.085  29.023
18310W        W19175  18.187  15.007  28.975
18311W        W19176  17.905  15.935  27.596
18312W        W19177  16.213  18.065  29.073
18313W        W19178  16.068  14.694  25.800
18314W        W19179  17.607  17.293  25.743
18315W        W19180  15.376  15.386  28.629
18316W        W19181  15.810  17.380  28.491
18317W        W19182  17.936  15.371  28.289
18318W        W19183  17.147  18.030  26.257
18319W        W19184  17.386  16.649  27.624
18320W        W19185  15.636  15.065  28.291
18321W        W19186  16.105  16.134  29.048
18322W        W19187  15.608  17.313  26.242
18323W        W19188  17.363  16.811  26.506
18324W        W19189  15.131  15.437  28.230
18325W        W19190  16.460  17.499  26.694
18326W        W19191  18.210  16.059  26.875
18327W        W19192  16.432  14.692  28.594
18328W        W19193  17.212  17.397  27.673
18329W        W19194  17.515  17.741  27.381
18330W        W19195  16.734  17.543  25.809
18331W        W19196  14.744  17.435  28.651
18332W        W19197  15.487  15.427  27.889
18333W        W19198  15.457  14.775  26.999
18334W        W19199  17.078  15.617  27.691
18335W        W19200  15.876  16.788  25.891
18336W        W19201  17.874  16.730  27.390
18337W        W19202  15.201  17.488  28.813
18338W        W19203  17.588  18.170  26.610
18339W        W19204  15.687  15.190  27.055
18340W        W19205  15.456  16.683  27.145
18341W        W19206  15.769  18.094  27.895
18342W        W19207  17.836  18.190  28.927
18343W        W19208  16.995  16.378  27.860
18344W        W19209  14.844  16.176  25.775
18345W        W19210  17.978  17.834  26.472
18346W        W19211  17.815  15.158  26.091
18347W        W19212  15.954  14.677  28.494
18348W        W19213  17.660  17.479  26.952
18349W        W19214  17.689  16.035  26.857
18350W        W19215  15.806  15.708  27.073
18351W        W19216  16.051  15.970  28.397
18352W        W19217  17.162  17.123  28.260
18353W        W19218  15.812  15.577  28.372
18354W        W19219  15.791  18.043  26.988
18355W        W19220  15.108  18.002  28.622
18356W        W19221  15.220  17.363  25.752
18357W        W19222  17.737  17.121  26.562
18358W        W19223  15.341  15.913  28.448
18359W        W19224  18.114  15.843  25.929
18360W        W19225  15.859  16.900  26.400
18361W        W19226  16.958  16.282  28.481
18362W        W19227  16.849  15.910  28.025
18363W        W19228  15.409  16.282  28.054
18364W        W19229  17.619  18.170  27.883
18365W        W19230  17.410  14.804  28.877
18366W        W19231  15.074  14.954  28.464
18367W        W19232  15.413  15.977  27.517
18368W        W19233  15.782  15.791  25.639
18369W        W19234  14.585  17.550  28.184
18370W        W19235  16.170  16.259  27.627
18371W        W19236  15.993  15.284  25.732
18372W        W19237  15.128  16.100  26.513
18373W        W19238  14.899  17.952  27.950
18374W        W19239  17.694  16.178  26.058
18375W        W19240  17.789  15.094  28.744
18376W        W19241  17.225  17.303  26.707
18377W        W19242  14.823  16.227  28.884
18378W        W19243  17.789  14.691  26.180
18379W        W19244  17.309  17.166  26.191
18380W        W19245  16.211  16.224  26.276
18381W        W19246  17.398  15.028  25.799
18382W        W19247  17.463  15.635  27.985
18383W        W19248  15.172  16.228  27.192
18384W        W19249  15.466  17.167  26.841
18385W        W19250  17.229  15.787  26.806
18386W        W19251  16.252  15.166  27.502
18387W        W19252  18.214  17.077  28.013
18388W        W19253  18.132  15.064  27.574
18389W        W19254  14.671  17.894  26.950
18390W        W19255  15.180  17.081  26.486
18391W        W19256  15.095  14.698  29.039
18392W        W19257  16.214  17.551  29.141
18393W        W19258  17.969  16.519  26.931
18394W        W19259  17.323  16.696  25.811
18395W        W19260  16.618  18.217  28.023
18396W        W19261  17.475  16.939  29.060
18397W        W19262  16.290  14.649  26.340
18398W        W19263  17.003  15.518  27.199
18399W        W19264  14.689  17.105  27.531
18400W        W19265  15.942  15.067  26.172
18401W        W19266  15.746  16.551  29.021
18402W        W19267  16.740  15.532  26.735
18403W        W19268  16.945  16.942  27.857
18404W        W19269  15.099  17.547  28.292
18405W        W19270  15.690  17.530  29.015
18406W        W19271  15.541  15.327  26.029
18407W        W19272  17.058  15.469  26.354
18408W        W19273  17.016  17.577  28.591
18409W        W19274  15.701  16.169  27.190
18410W        W19275  15.356  17.867  28.055
18411W        W19276  18.101  17.984  25.656
18412W        W19277  14.964  16.656  28.652
18413W        W19278  16.959  16.918  27.340
18414W        W19279  15.395  16.567  26.582
18415W        W19280  15.766  17.574  27.977
18416W        W19281  16.144  14.993  27.018
18417W        W19282  14.755  16.977  25.948
18418W        W19283  16.274  15.928  25.818
18419W        W19284  14.920  16.477  26.837
18420W        W19285  16.210  15.119  28.301
18421W        W19286  17.882  14.828  25.728
18422W        W19287  17.975  16.574  28.827
18423W        W19288  16.629  17.831  28.979
18424W        W19289  18.187  16.925  28.501
18425W        W19290  17.595  17.723  29.112
18426W        W19291  15.334  18.179  27.590
18427W        W19292  18.193  16.801  26.464
18428W        W19293  16.723  16.068  26.977
18429W        W19294  16.490  14.680  26.867
18430W        W19295  15.549  17.664  26.704
18431W        W19296  16.048  15.405  27.929
18432W        W19297  15.748  14.774  27.398
18433W        W19298  14.811  17.596  25.946
18434W        W19299  16.627  16.960  26.664
18435W        W19300  15.502  17.755  28.543
18436W        W19301  14.979  16.578  26.239
18437W        W19302  14.864  15.121  27.238
18438W        W19303  16.412  17.086  27.295
18439W        W19304  14.664  14.940  26.315
18440W        W19305  17.328  16.146  28.242
18441W        W19306  17.205  15.532  25.814
18442W        W19307  17.722  17.204  27.462
18443W        W19308  16.383  17.688  27.293
18444W        W19309  15.795  17.792  26.204
18445W        W19310  17.077  14.695  25.634
18446W        W19311  14.877  17.955  27.375
18447W        W19312  17.074  15.713  29.010
18448W        W19313  15.057  15.243  29.009
18449W        W19314  14.788  15.843  26.342
18450W        W19315  15.479  15.832  26.067
18451W        W19316  17.242  16.159  28.884
18452W        W19317  15.585  16.440  27.593
18453W        W19318  17.059  14.726  26.713
18454W        W19319  16.190  18.157  27.216
18455W        W19320  17.404  17.619  28.153
18456W        W19321  16.988  17.768  27.264
18457W        W19322  17.007  16.748  26.858
18458W        W19323  16.469  14.973  25.929
18459W        W19324  18.150  14.601  26.651
18460W        W19325  15.838  16.236  25.814
18461W        W19326  18.004  15.573  26.804
18462W        W19327  16.696  16.743  25.681
18463W        W19328  17.632  16.943  28.429
18464W        W19329  17.286  17.644  25.896
18465W        W19330  15.901  15.319  28.802
18466W        W19331  15.721  15.903  28.043
18467W        W19332  17.813  17.398  28.320
18468W        W19333  16.913  15.348  28.697
18469W        W19334  14.757  15.819  28.474
18470W        W19335  16.517  16.296  28.200
18471W        W19336  14.874  17.054  26.857
18472W        W19337  15.021  16.351  27.747
18473W        W19338  17.338  16.637  28.097
18474W        W19339  17.110  18.017  28.908
18475W        W19340  17.006  15.756  28.461
18476W        W19341  17.283  17.810  26.866
18477W        W19342  16.285  17.530  28.189
18478W        W19343  15.770  17.885  27.458
18479W        W19344  17.575  17.056  27.877
18480W        W19345  16.625  17.128  29.014
18481W        W19346  15.230  17.081  27.353
18482W        W19347  17.576  16.840  26.998
18483W        W19348  17.217  17.906  27.749
18484W        W19349  15.195  17.635  27.619
18485W        W19350  16.216  15.687  28.829
18486W        W19351  16.667  17.853  26.340
18487W        W19352  15.975  17.108  28.978
18488W        W19353  16.101  17.346  26.355
18489W        W19354  15.322  16.086  25.614
18490W        W19355  14.661  21.816   3.359
18491W        W19356  15.037  20.709   2.882
18492W        W19357  17.742  20.439   0.652
18493W        W19358  17.872  21.524   2.679
18494W        W19359  15.790  21.515   0.205
18495W        W19360  15.873  19.667   1.188
18496W        W19361  15.388  19.515   1.352
18497W        W19362  16.379  20.330   0.786
18498W        W19363  16.054  21.422   3.141
18499W        W19364  14.703  18.983   3.104
18500W        W19365  15.465  18.263   2.906
18501W        W19366  17.159  18.651   1.793
18502W        W19367  16.808  19.522   0.363
18503W        W19368  17.378  18.956   3.454
18504W        W19369  14.744  18.748   2.579
18505W        W19370  14.843  21.367   3.600
18506W        W19371  16.365  20.757   0.332
18507W        W19372  14.797  19.540   2.025
18508W        W19373  15.690  19.431   3.262
18509W        W19374  18.149  19.290   1.761
18510W        W19375  17.913  20.333   2.620
18511W        W19376  16.221  19.666   1.647
18512W        W19377  16.767  21.005   2.016
18513W        W19378  15.267  20.439   2.248
18514W        W19379  14.626  19.967   1.819
18515W        W19380  15.662  19.939   3.011
18516W        W19381  17.933  19.722   3.265
18517W        W19382  15.549  21.166   1.710
18518W        W19383  16.670  20.855   2.844
18519W        W19384  15.890  19.495   2.069
18520W        W19385  16.182  20.279   1.712
18521W        W19386  17.179  21.052   3.560
18522W        W19387  16.258  20.372   3.570
18523W        W19388  16.239  20.088   3.048
18524W        W19389  14.648  19.479   3.570
18525W        W19390  17.480  21.014   3.169
18526W        W19391  15.061  18.596   1.167
18527W        W19392  15.588  20.854   2.166
18528W        W19393  18.051  20.637   1.456
18529W        W19394  17.464  19.037   2.023
18530W        W19395  17.749  18.990   0.118
18531W        W19396  18.214  19.791   2.424
18532W        W19397  16.181  21.498   2.177
18533W        W19398  17.955  20.964   0.615
18534W        W19399  15.084  21.750   0.369
18535W        W19400  15.477  21.796   1.045
18536W        W19401  15.274  18.550   2.471
18537W        W19402  17.897  19.568   2.746
18538W        W19403  17.302  19.990   1.205
18539W        W19404  17.268  19.678   0.232
18540W        W19405  16.476  20.822   2.372
18541W        W19406  16.282  19.152   1.571
18542W        W19407  16.882  21.239   2.565
18543W        W19408  17.753  20.030   0.987
18544W        W19409  16.655  18.688   1.003
18545W        W19410  15.312  21.382   0.686
18546W        W19411  14.683  18.881   1.285
18547W        W19412  17.469  19.488   1.759
18548W        W19413  14.927  21.105   1.674
18549W        W19414  16.268  21.455   0.544
18550W        W19415  17.660  19.481   0.008
18551W        W19416  14.683  21.239   2.172
18552W        W19417  15.474  20.811   2.652
18553W        W19418  15.847  20.171   1.271
18554W        W19419  15.869  18.576   2.364
18555W        W19420  18.098  18.338   1.661
18556W        W19421  15.317  20.210   0.129
18557W        W19422  14.972  19.243   0.308
18558W        W19423  15.034  21.199   1.102
18559W        W19424  16.165  20.682   1.350
18560W        W19425  17.497  21.541   3.064
18561W        W19426  16.423  19.183   0.748
18562W        W19427  17.806  21.581   1.520
18563W        W19428  17.483  19.434   3.118
18564W        W19429  18.196  21.090   1.252
18565W        W19430  16.823  20.382   2.736
18566W        W19431  14.589  19.933   0.942
18567W        W19432  15.700  20.348   2.515
18568W        W19433  16.904  19.612   0.893
18569W        W19434  15.124  19.522   2.471
18570W        W19435  15.109  19.398   3.393
18571W        W19436  14.999  18.315   1.552
18572W        W19437  16.767  18.662   2.113
18573W        W19438  16.415  18.847   3.276
18574W        W19439  16.770  18.996   0.454
18575W        W19440  17.953  21.389   3.208
18576W        W19441  16.920  18.470   3.247
18577W        W19442  17.939  20.771   3.369
18578W        W19443  17.369  18.938   2.965
18579W        W19444  17.169  18.876   1.235
18580W        W19445  17.562  20.010   3.639
18581W        W19446  15.302  21.586   1.625
18582W        W19447  15.960  19.303   0.611
18583W        W19448  15.529  18.587   3.275
18584W        W19449  17.581  19.071   0.956
18585W        W19450  17.948  19.553   0.901
18586W        W19451  15.691  21.770   3.372
18587W        W19452  15.617  18.306   0.607
18588W        W19453  17.938  18.840   1.642
18589W        W19454  18.088  21.089   0.087
18590W        W19455  14.995  20.292   1.789
18591W        W19456  16.912  18.879   0.019
18592W        W19457  18.046  21.211   1.739
18593W        W19458  18.085  18.405   2.489
18594W        W19459  16.530  19.617   3.043
18595W        W19460  16.623  20.956   0.746
18596W        W19461  17.023  20.250   3.486
18597W        W19462  16.697  18.227   1.795
18598W        W19463  15.309  19.130   1.858
18599W        W19464  14.863  20.330   2.632
18600W        W19465  16.722  21.523   1.338
18601W        W19466  17.916  19.120   2.210
18602W        W19467  16.553  21.467   2.977
18603W        W19468  17.896  20.526   0.182
18604W        W19469  16.331  20.009   1.243
18605W        W19470  18.183  18.520   2.984
18606W        W19471  16.332  20.355   2.578
18607W        W19472  16.549  19.241   2.023
18608W        W19473  17.401  19.539   0.861
18609W        W19474  17.688  19.272   0.503
18610W        W19475  17.497  21.312   0.892
18611W        W19476  17.331  20.915   1.688
18612W        W19477  17.227  19.994   0.666
18613W        W19478  16.660  20.204   1.652
18614W        W19479  17.541  19.992   1.719
18615W        W19480  14.916  19.007   2.143
18616W        W19481  17.694  20.059   2.970
18617W        W19482  18.045  21.677   2.116
18618W        W19483  15.975  21.121   1.518
18619W        W19484  16.982  21.654   2.842
18620W        W19485  16.976  18.984   2.606
18621W        W19486  16.183  21.692   2.667
18622W        W19487  17.880  18.646   1.133
18623W        W19488  17.671  19.965   2.434
18624W        W19489  14.654  19.286   2.472
18625W        W19490  17.514  19.081   1.490
18626W        W19491  17.925  19.232   3.267
18627W        W19492  16.810  20.931   1.485
18628W        W19493  16.066  21.522   1.098
18629W        W19494  15.181  18.702   0.356
18630W        W19495  16.285  18.356   2.166
18631W        W19496  15.313  21.476   0.014
18632W        W19497  15.687  19.942   0.765
18633W        W19498  16.341  20.571   3.078
18634W        W19499  16.171  18.929   1.068
18635W        W19500  17.527  18.526   1.496
18636W        W19501  17.247  21.808   1.824
18637W        W19502  16.659  21.456   2.164
18638W        W19503  16.055  20.493   2.125
18639W        W19504  17.825  21.216   2.251
18640W        W19505  15.519  18.719   1.020
18641W        W19506  16.041  21.016   1.980
18642W        W19507  15.524  18.947   0.045
18643W        W19508  16.325  19.556   2.439
18644W        W19509  17.173  18.422   2.309
18645W        W19510  14.593  20.265   2.194
18646W        W19511  16.297  20.083   0.352
18647W        W19512  15.565  18.398   0.122
18648W        W19513  16.303  19.479   1.173
18649W        W19514  17.273  18.455   2.872
18650W        W19515  15.861  20.467   2.981
18651W        W19516  16.665  20.249   3.198
18652W        W19517  17.282  20.279   3.091
18653W        W19518  16.566  18.419   3.596
18654W        W19519  15.788  19.035   1.989
18655W        W19520  15.214  18.991   1.387
18656W        W19521  15.000  21.703   1.063
18657W        W19522  16.332  21.033   3.188
18658W        W19523  15.367  20.518   0.547
18659W        W19524  17.047  19.903   1.768
18660W        W19525  17.327  19.702   2.167
18661W        W19526  16.532  20.376   2.101
18662W        W19527  17.002  20.750   0.233
18663W        W19528  16.674  18.771   1.561
18664W        W19529  18.153  19.049   0.829
18665W        W19530  14.647  21.638   2.860
18666W        W19531  15.064  20.864   2.392
18667W        W19532  14.631  21.710   0.624
18668W        W19533  16.530  18.980   2.430
18669W        W19534  15.893  21.003   0.279
18670W        W19535  17.798  21.385   0.465
18671W        W19536  16.773  20.038   0.479
18672W        W19537  15.616  19.229   0.996
18673W        W19538  16.448  19.139   0.048
18674W        W19539  17.032  20.704   3.226
18675W        W19540  17.385  18.610   0.843
18676W        W19541  14.715  18.458   0.291
18677W        W19542  16.001  20.777   2.581
18678W        W19543  15.800  20.693   1.673
18679W        W19544  15.542  20.645   0.071
18680W        W19545  14.783  20.886   0.839
18681W        W19546  15.287  19.956   3.281
18682W        W19547  15.991  18.516   3.467
18683W        W19548  16.700  18.658   2.823
18684W        W19549  15.895  18.426   1.104
18685W        W19550  16.954  18.503   0.609
18686W        W19551  14.899  18.435   2.186
18687W        W19552  14.947  19.398   1.556
18688W        W19553  17.636  18.506   1.962
18689W        W19554  15.058  19.004   0.776
18690W        W19555  17.629  18.692   2.392
18691W        W19556  18.025  19.895   0.077
18692W        W19557  15.317  18.653   1.896
18693W        W19558  16.431  19.225   2.836
18694W        W19559  14.579  18.915   0.314
18695W        W19560  15.365  20.304   2.875
18696W        W19561  16.723  19.702   2.054
18697W        W19562  16.590  21.781   0.350
18698W        W19563  14.736  20.288   0.047
18699W        W19564  15.471  20.699   3.173
18700W        W19565  14.992  19.866   2.804
18701W        W19566  15.983  19.971   2.598
18702W        W19567  17.751  18.330   2.860
18703W        W19568  18.149  19.940   2.851
18704W        W19569  18.137  20.140   0.537
18705W        W19570  17.000  20.472   0.636
18706W        W19571  17.474  21.772   0.331
18707W        W19572  16.651  19.762   3.473
18708W        W19573  14.981  20.729   3.513
18709W        W19574  18.187  18.651   3.465
18710W        W19575  17.905  19.579   2.086
18711W        W19576  16.213  21.709   3.563
18712W        W19577  16.068  18.338   0.290
18713W        W19578  17.607  20.937   0.233
18714W        W19579  15.376  19.030   3.119
18715W        W19580  15.810  21.024   2.981
18716W        W19581  17.936  19.015   2.779
18717W        W19582  17.147  21.674   0.747
18718W        W19583  17.386  20.293   2.114
18719W        W19584  15.636  18.709   2.781
18720W        W19585  16.105  19.778   3.538
18721W        W19586  15.608  20.957   0.732
18722W        W19587  17.363  20.455   0.996
18723W        W19588  15.131  19.081   2.720
18724W        W19589  16.460  21.143   1.184
18725W        W19590  18.210  19.703   1.365
18726W        W19591  16.432  18.336   3.084
18727W        W19592  17.212  21.041   2.163
18728W        W19593  17.515  21.385   1.871
18729W        W19594  16.734  21.187   0.299
18730W        W19595  14.744  21.079   3.141
18731W        W19596  15.487  19.071   2.379
18732W        W19597  15.457  18.419   1.489
18733W        W19598  17.078  19.261   2.181
18734W        W19599  15.876  20.432   0.381
18735W        W19600  17.874  20.374   1.880
18736W        W19601  15.201  21.132   3.303
18737W        W19602  17.588  21.814   1.100
18738W        W19603  15.687  18.834   1.545
18739W        W19604  15.456  20.327   1.635
18740W        W19605  15.769  21.738   2.385
18741W        W19606  17.836  21.834   3.417
18742W        W19607  16.995  20.022   2.350
18743W        W19608  14.844  19.820   0.265
18744W        W19609  17.978  21.478   0.962
18745W        W19610  17.815  18.802   0.581
18746W        W19611  15.954  18.321   2.984
18747W        W19612  17.660  21.123   1.442
18748W        W19613  17.689  19.679   1.347
18749W        W19614  15.806  19.352   1.563
18750W        W19615  16.051  19.614   2.887
18751W        W19616  17.162  20.767   2.750
18752W        W19617  15.812  19.221   2.862
18753W        W19618  15.791  21.687   1.478
18754W        W19619  15.108  21.646   3.112
18755W        W19620  15.220  21.007   0.242
18756W        W19621  17.737  20.765   1.052
18757W        W19622  15.341  19.557   2.938
18758W        W19623  18.114  19.487   0.419
18759W        W19624  15.859  20.544   0.890
18760W        W19625  16.958  19.926   2.971
18761W        W19626  16.849  19.554   2.515
18762W        W19627  15.409  19.926   2.544
18763W        W19628  17.619  21.814   2.373
18764W        W19629  17.410  18.448   3.367
18765W        W19630  15.074  18.598   2.954
18766W        W19631  15.413  19.621   2.007
18767W        W19632  15.782  19.435   0.129
18768W        W19633  14.585  21.194   2.674
18769W        W19634  16.170  19.903   2.117
18770W        W19635  15.993  18.928   0.222
18771W        W19636  15.128  19.744   1.003
18772W        W19637  14.899  21.596   2.440
18773W        W19638  17.694  19.822   0.548
18774W        W19639  17.789  18.738   3.234
18775W        W19640  17.225  20.947   1.197
18776W        W19641  14.823  19.871   3.374
18777W        W19642  17.789  18.335   0.670
18778W        W19643  17.309  20.810   0.681
18779W        W19644  16.211  19.868   0.766
18780W        W19645  17.398  18.672   0.289
18781W        W19646  17.463  19.279   2.475
18782W        W19647  15.172  19.872   1.682
18783W        W19648  15.466  20.811   1.331
18784W        W19649  17.229  19.431   1.296
18785W        W19650  16.252  18.810   1.992
18786W        W19651  18.214  20.721   2.503
18787W        W19652  18.132  18.708   2.064
18788W        W19653  14.671  21.538   1.440
18789W        W19654  15.180  20.725   0.976
18790W        W19655  15.095  18.342   3.529
18791W        W19656  16.214  21.195   3.631
18792W        W19657  17.969  20.163   1.421
18793W        W19658  17.323  20.340   0.301
18794W        W19659  16.618  21.861   2.513
18795W        W19660  17.475  20.583   3.550
18796W        W19661  16.290  18.293   0.830
18797W        W19662  17.003  19.162   1.689
18798W        W19663  14.689  20.749   2.021
18799W        W19664  15.942  18.711   0.662
18800W        W19665  15.746  20.195   3.511
18801W        W19666  16.740  19.176   1.225
18802W        W19667  16.945  20.586   2.347
18803W        W19668  15.099  21.191   2.782
18804W        W19669  15.690  21.174   3.505
18805W        W19670  15.541  18.971   0.519
18806W        W19671  17.058  19.113   0.844
18807W        W19672  17.016  21.221   3.081
18808W        W19673  15.701  19.813   1.680
18809W        W19674  15.356  21.511   2.545
18810W        W19675  18.101  21.628   0.146
18811W        W19676  14.964  20.300   3.142
18812W        W19677  16.959  20.562   1.830
18813W        W19678  15.395  20.211   1.072
18814W        W19679  15.766  21.218   2.467
18815W        W19680  16.144  18.637   1.508
18816W        W19681  14.755  20.621   0.438
18817W        W19682  16.274  19.572   0.308
18818W        W19683  14.920  20.121   1.327
18819W        W19684  16.210  18.763   2.791
18820W        W19685  17.882  18.472   0.218
18821W        W19686  17.975  20.218   3.317
18822W        W19687  16.629  21.475   3.469
18823W        W19688  18.187  20.569   2.991
18824W        W19689  17.595  21.367   3.602
18825W        W19690  15.334  21.823   2.080
18826W        W19691  18.193  20.445   0.954
18827W        W19692  16.723  19.712   1.467
18828W        W19693  16.490  18.324   1.357
18829W        W19694  15.549  21.308   1.194
18830W        W19695  16.048  19.049   2.419
18831W        W19696  15.748  18.418   1.888
18832W        W19697  14.811  21.240   0.436
18833W        W19698  16.627  20.604   1.154
18834W        W19699  15.502  21.399   3.033
18835W        W19700  14.979  20.222   0.729
18836W        W19701  14.864  18.765   1.728
18837W        W19702  16.412  20.730   1.785
18838W        W19703  14.664  18.584   0.805
18839W        W19704  17.328  19.790   2.732
18840W        W19705  17.205  19.176   0.304
18841W        W19706  17.722  20.848   1.952
18842W        W19707  16.383  21.332   1.783
18843W        W19708  15.795  21.436   0.694
18844W        W19709  17.077  18.339   0.124
18845W        W19710  14.877  21.599   1.865
18846W        W19711  17.074  19.357   3.500
18847W        W19712  15.057  18.887   3.499
18848W        W19713  14.788  19.487   0.832
18849W        W19714  15.479  19.476   0.557
18850W        W19715  17.242  19.803   3.374
18851W        W19716  15.585  20.084   2.083
18852W        W19717  17.059  18.370   1.203
18853W        W19718  16.190  21.801   1.706
18854W        W19719  17.404  21.263   2.643
18855W        W19720  16.988  21.412   1.754
18856W        W19721  17.007  20.392   1.348
18857W        W19722  16.469  18.617   0.419
18858W        W19723  18.150  18.245   1.141
18859W        W19724  15.838  19.880   0.304
18860W        W19725  18.004  19.217   1.294
18861W        W19726  16.696  20.387   0.171
18862W        W19727  17.632  20.587   2.919
18863W        W19728  17.286  21.288   0.386
18864W        W19729  15.901  18.963   3.292
18865W        W19730  15.721  19.547   2.533
18866W        W19731  17.813  21.042   2.810
18867W        W19732  16.913  18.992   3.187
18868W        W19733  14.757  19.463   2.964
18869W        W19734  16.517  19.940   2.690
18870W        W19735  14.874  20.698   1.347
18871W        W19736  15.021  19.995   2.237
18872W        W19737  17.338  20.281   2.587
18873W        W19738  17.110  21.661   3.398
18874W        W19739  17.006  19.400   2.951
18875W        W19740  17.283  21.454   1.356
18876W        W19741  16.285  21.174   2.679
18877W        W19742  15.770  21.529   1.948
18878W        W19743  17.575  20.700   2.367
18879W        W19744  16.625  20.772   3.504
18880W        W19745  15.230  20.725   1.843
18881W        W19746  17.576  20.484   1.488
18882W        W19747  17.217  21.550   2.239
18883W        W19748  15.195  21.279   2.109
18884W        W19749  16.216  19.331   3.319
18885W        W19750  16.667  21.497   0.830
18886W        W19751  15.975  20.752   3.468
18887W        W19752  16.101  20.990   0.845
18888W        W19753  15.322  19.730   0.104
18889W        W19754  14.661  21.816   7.003
18890W        W19755  15.037  20.709   6.526
18891W        W19756  17.742  20.439   4.296
18892W        W19757  17.872  21.524   6.323
18893W        W19758  15.790  21.515   3.849
18894W        W19759  15.873  19.667   4.832
18895W        W19760  15.388  19.515   4.996
18896W        W19761  16.379  20.330   4.430
18897W        W19762  16.054  21.422   6.785
18898W        W19763  14.703  18.983   6.748
18899W        W19764  15.465  18.263   6.550
18900W        W19765  17.159  18.651   5.437
18901W        W19766  16.808  19.522   4.007
18902W        W19767  17.378  18.956   7.098
18903W        W19768  14.744  18.748   6.223
18904W        W19769  14.843  21.367   7.244
18905W        W19770  16.365  20.757   3.976
18906W        W19771  14.797  19.540   5.669
18907W        W19772  15.690  19.431   6.906
18908W        W19773  18.149  19.290   5.405
18909W        W19774  17.913  20.333   6.264
18910W        W19775  16.221  19.666   5.291
18911W        W19776  16.767  21.005   5.660
18912W        W19777  15.267  20.439   5.892
18913W        W19778  14.626  19.967   5.463
18914W        W19779  15.662  19.939   6.655
18915W        W19780  17.933  19.722   6.909
18916W        W19781  15.549  21.166   5.354
18917W        W19782  16.670  20.855   6.488
18918W        W19783  15.890  19.495   5.713
18919W        W19784  16.182  20.279   5.356
18920W        W19785  17.179  21.052   7.204
18921W        W19786  16.258  20.372   7.214
18922W        W19787  16.239  20.088   6.692
18923W        W19788  14.648  19.479   7.214
18924W        W19789  17.480  21.014   6.813
18925W        W19790  15.061  18.596   4.811
18926W        W19791  15.588  20.854   5.810
18927W        W19792  18.051  20.637   5.100
18928W        W19793  17.464  19.037   5.667
18929W        W19794  17.749  18.990   3.762
18930W        W19795  18.214  19.791   6.068
18931W        W19796  16.181  21.498   5.821
18932W        W19797  17.955  20.964   4.259
18933W        W19798  15.084  21.750   4.013
18934W        W19799  15.477  21.796   4.689
18935W        W19800  15.274  18.550   6.115
18936W        W19801  17.897  19.568   6.390
18937W        W19802  17.302  19.990   4.849
18938W        W19803  17.268  19.678   3.876
18939W        W19804  16.476  20.822   6.016
18940W        W19805  16.282  19.152   5.215
18941W        W19806  16.882  21.239   6.209
18942W        W19807  17.753  20.030   4.631
18943W        W19808  16.655  18.688   4.647
18944W        W19809  15.312  21.382   4.330
18945W        W19810  14.683  18.881   4.929
18946W        W19811  17.469  19.488   5.403
18947W        W19812  14.927  21.105   5.318
18948W        W19813  16.268  21.455   4.188
18949W        W19814  17.660  19.481   3.652
18950W        W19815  14.683  21.239   5.816
18951W        W19816  15.474  20.811   6.296
18952W        W19817  15.847  20.171   4.915
18953W        W19818  15.869  18.576   6.008
18954W        W19819  18.098  18.338   5.305
18955W        W19820  15.317  20.210   3.773
18956W        W19821  14.972  19.243   3.952
18957W        W19822  15.034  21.199   4.746
18958W        W19823  16.165  20.682   4.994
18959W        W19824  17.497  21.541   6.708
18960W        W19825  16.423  19.183   4.392
18961W        W19826  17.806  21.581   5.164
18962W        W19827  17.483  19.434   6.762
18963W        W19828  18.196  21.090   4.896
18964W        W19829  16.823  20.382   6.380
18965W        W19830  14.589  19.933   4.586
18966W        W19831  15.700  20.348   6.159
18967W        W19832  16.904  19.612   4.537
18968W        W19833  16.781  20.102   4.641
18969W        W19834  15.124  19.522   6.115
18970W        W19835  15.109  19.398   7.037
18971W        W19836  14.999  18.315   5.196
18972W        W19837  16.767  18.662   5.757
18973W        W19838  16.415  18.847   6.920
18974W        W19839  16.770  18.996   4.098
18975W        W19840  17.953  21.389   6.852
18976W        W19841  16.920  18.470   6.891
18977W        W19842  17.939  20.771   7.013
18978W        W19843  17.369  18.938   6.609
18979W        W19844  17.169  18.876   4.879
18980W        W19845  17.562  20.010   7.283
18981W        W19846  15.302  21.586   5.269
18982W        W19847  15.960  19.303   4.255
18983W        W19848  15.529  18.587   6.919
18984W        W19849  17.581  19.071   4.600
18985W        W19850  17.948  19.553   4.545
18986W        W19851  15.691  21.770   7.016
18987W        W19852  15.617  18.306   4.251
18988W        W19853  17.938  18.840   5.286
18989W        W19854  18.088  21.089   3.731
18990W        W19855  14.995  20.292   5.433
18991W        W19856  16.912  18.879   3.663
18992W        W19857  18.046  21.211   5.383
18993W        W19858  18.085  18.405   6.133
18994W        W19859  16.530  19.617   6.687
18995W        W19860  16.623  20.956   4.390
18996W        W19861  17.023  20.250   7.130
18997W        W19862  16.697  18.227   5.439
18998W        W19863  15.309  19.130   5.502
18999W        W19864  14.863  20.330   6.276
19000W        W19865  16.722  21.523   4.982
19001W        W19866  17.916  19.120   5.854
19002W        W19867  16.553  21.467   6.621
19003W        W19868  17.896  20.526   3.826
19004W        W19869  16.331  20.009   4.887
19005W        W19870  18.183  18.520   6.628
19006W        W19871  16.332  20.355   6.222
19007W        W19872  16.549  19.241   5.667
19008W        W19873  17.401  19.539   4.505
19009W        W19874  17.688  19.272   4.147
19010W        W19875  17.497  21.312   4.536
19011W        W19876  17.331  20.915   5.332
19012W        W19877  17.227  19.994   4.310
19013W        W19878  16.660  20.204   5.296
19014W        W19879  17.541  19.992   5.363
19015W        W19880  14.916  19.007   5.787
19016W        W19881  17.694  20.059   6.614
19017W        W19882  18.045  21.677   5.760
19018W        W19883  15.975  21.121   5.162
19019W        W19884  16.982  21.654   6.486
19020W        W19885  16.976  18.984   6.250
19021W        W19886  16.183  21.692   6.311
19022W        W19887  17.880  18.646   4.777
19023W        W19888  17.671  19.965   6.078
19024W        W19889  14.654  19.286   6.116
19025W        W19890  17.514  19.081   5.134
19026W        W19891  17.925  19.232   6.911
19027W        W19892  16.810  20.931   5.129
19028W        W19893  16.066  21.522   4.742
19029W        W19894  15.181  18.702   4.000
19030W        W19895  16.285  18.356   5.810
19031W        W19896  15.313  21.476   3.658
19032W        W19897  15.687  19.942   4.409
19033W        W19898  16.341  20.571   6.722
19034W        W19899  16.171  18.929   4.712
19035W        W19900  17.527  18.526   5.140
19036W        W19901  17.247  21.808   5.468
19037W        W19902  16.659  21.456   5.808
19038W        W19903  16.055  20.493   5.769
19039W        W19904  17.825  21.216   5.895
19040W        W19905  15.519  18.719   4.664
19041W        W19906  16.041  21.016   5.624
19042W        W19907  15.524  18.947   3.689
19043W        W19908  16.325  19.556   6.083
19044W        W19909  17.173  18.422   5.953
19045W        W19910  14.593  20.265   5.838
19046W        W19911  16.297  20.083   3.996
19047W        W19912  15.565  18.398   3.766
19048W        W19913  16.303  19.479   4.817
19049W        W19914  17.273  18.455   6.516
19050W        W19915  15.861  20.467   6.625
19051W        W19916  16.665  20.249   6.842
19052W        W19917  17.282  20.279   6.735
19053W        W19918  16.566  18.419   7.240
19054W        W19919  15.788  19.035   5.633
19055W        W19920  15.214  18.991   5.031
19056W        W19921  15.000  21.703   4.707
19057W        W19922  16.332  21.033   6.832
19058W        W19923  15.367  20.518   4.191
19059W        W19924  17.047  19.903   5.412
19060W        W19925  17.327  19.702   5.811
19061W        W19926  16.532  20.376   5.745
19062W        W19927  17.002  20.750   3.877
19063W        W19928  16.674  18.771   5.205
19064W        W19929  18.153  19.049   4.473
19065W        W19930  14.647  21.638   6.504
19066W        W19931  15.064  20.864   6.036
19067W        W19932  14.631  21.710   4.268
19068W        W19933  16.530  18.980   6.074
19069W        W19934  15.893  21.003   3.923
19070W        W19935  17.798  21.385   4.109
19071W        W19936  16.773  20.038   4.123
19072W        W19937  15.616  19.229   4.640
19073W        W19938  16.448  19.139   3.692
19074W        W19939  17.032  20.704   6.870
19075W        W19940  17.385  18.610   4.487
19076W        W19941  14.715  18.458   3.935
19077W        W19942  16.001  20.777   6.225
19078W        W19943  15.800  20.693   5.317
19079W        W19944  15.542  20.645   3.715
19080W        W19945  14.783  20.886   4.483
19081W        W19946  15.287  19.956   6.925
19082W        W19947  15.991  18.516   7.111
19083W        W19948  16.700  18.658   6.467
19084W        W19949  15.895  18.426   4.748
19085W        W19950  16.954  18.503   4.253
19086W        W19951  14.899  18.435   5.830
19087W        W19952  14.947  19.398   5.200
19088W        W19953  17.636  18.506   5.606
19089W        W19954  15.058  19.004   4.420
19090W        W19955  17.629  18.692   6.036
19091W        W19956  18.025  19.895   3.721
19092W        W19957  15.317  18.653   5.540
19093W        W19958  16.431  19.225   6.480
19094W        W19959  14.579  18.915   3.958
19095W        W19960  15.365  20.304   6.519
19096W        W19961  16.723  19.702   5.698
19097W        W19962  16.590  21.781   3.994
19098W        W19963  14.736  20.288   3.691
19099W        W19964  15.471  20.699   6.817
19100W        W19965  14.992  19.866   6.448
19101W        W19966  15.983  19.971   6.242
19102W        W19967  17.751  18.330   6.504
19103W        W19968  18.149  19.940   6.495
19104W        W19969  18.137  20.140   4.181
19105W        W19970  17.000  20.472   4.280
19106W        W19971  17.474  21.772   3.975
19107W        W19972  16.651  19.762   7.117
19108W        W19973  14.981  20.729   7.157
19109W        W19974  18.187  18.651   7.109
19110W        W19975  17.905  19.579   5.730
19111W        W19976  16.213  21.709   7.207
19112W        W19977  16.068  18.338   3.934
19113W        W19978  17.607  20.937   3.877
19114W        W19979  15.376  19.030   6.763
19115W        W19980  15.810  21.024   6.625
19116W        W19981  17.936  19.015   6.423
19117W        W19982  17.147  21.674   4.391
19118W        W19983  17.386  20.293   5.758
19119W        W19984  15.636  18.709   6.425
19120W        W19985  16.105  19.778   7.182
19121W        W19986  15.608  20.957   4.376
19122W        W19987  17.363  20.455   4.640
19123W        W19988  15.131  19.081   6.364
19124W        W19989  16.460  21.143   4.828
19125W        W19990  18.210  19.703   5.009
19126W        W19991  16.432  18.336   6.728
19127W        W19992  17.212  21.041   5.807
19128W        W19993  17.515  21.385   5.515
19129W        W19994  16.734  21.187   3.943
19130W        W19995  14.744  21.079   6.785
19131W        W19996  15.487  19.071   6.023
19132W        W19997  15.457  18.419   5.133
19133W        W19998  17.078  19.261   5.825
19134W        W19999  15.876  20.432   4.025
19135W        W20000  17.874  20.374   5.524
19136W        W20001  15.201  21.132   6.947
19137W        W20002  17.588  21.814   4.744
19138W        W20003  15.687  18.834   5.189
19139W        W20004  15.456  20.327   5.279
19140W        W20005  15.769  21.738   6.029
19141W        W20006  17.836  21.834   7.061
19142W        W20007  16.995  20.022   5.994
19143W        W20008  14.844  19.820   3.909
19144W        W20009  17.978  21.478   4.606
19145W        W20010  17.815  18.802   4.225
19146W        W20011  15.954  18.321   6.628
19147W        W20012  17.660  21.123   5.086
19148W        W20013  17.689  19.679   4.991
19149W        W20014  15.806  19.352   5.207
19150W        W20015  16.051  19.614   6.531
19151W        W20016  17.162  20.767   6.394
19152W        W20017  15.812  19.221   6.506
19153W        W20018  15.791  21.687   5.122
19154W        W20019  15.108  21.646   6.756
19155W        W20020  15.220  21.007   3.886
19156W        W20021  17.737  20.765   4.696
19157W        W20022  15.341  19.557   6.582
19158W        W20023  18.114  19.487   4.063
19159W        W20024  15.859  20.544   4.534
19160W        W20025  16.958  19.926   6.615
19161W        W20026  16.849  19.554   6.159
19162W        W20027  15.409  19.926   6.188
19163W        W20028  17.619  21.814   6.017
19164W        W20029  17.410  18.448   7.011
19165W        W20030  15.074  18.598   6.598
19166W        W20031  15.413  19.621   5.651
19167W        W20032  15.782  19.435   3.773
19168W        W20033  14.585  21.194   6.318
19169W        W20034  16.170  19.903   5.761
19170W        W20035  15.993  18.928   3.866
19171W        W20036  15.128  19.744   4.647
19172W        W20037  14.899  21.596   6.084
19173W        W20038  17.694  19.822   4.192
19174W        W20039  17.789  18.738   6.878
19175W        W20040  17.225  20.947   4.841
19176W        W20041  14.823  19.871   7.018
19177W        W20042  17.789  18.335   4.314
19178W        W20043  17.309  20.810   4.325
19179W        W20044  16.211  19.868   4.410
19180W        W20045  17.398  18.672   3.933
19181W        W20046  17.463  19.279   6.119
19182W        W20047  15.172  19.872   5.326
19183W        W20048  15.466  20.811   4.975
19184W        W20049  17.229  19.431   4.940
19185W        W20050  16.252  18.810   5.636
19186W        W20051  18.214  20.721   6.147
19187W        W20052  18.132  18.708   5.708
19188W        W20053  14.671  21.538   5.084
19189W        W20054  15.180  20.725   4.620
19190W        W20055  15.095  18.342   7.173
19191W        W20056  16.214  21.195   7.275
19192W        W20057  17.969  20.163   5.065
19193W        W20058  17.323  20.340   3.945
19194W        W20059  16.618  21.861   6.157
19195W        W20060  17.475  20.583   7.194
19196W        W20061  16.290  18.293   4.474
19197W        W20062  17.003  19.162   5.333
19198W        W20063  14.689  20.749   5.665
19199W        W20064  15.942  18.711   4.306
19200W        W20065  15.746  20.195   7.155
19201W        W20066  16.740  19.176   4.869
19202W        W20067  16.945  20.586   5.991
19203W        W20068  15.099  21.191   6.426
19204W        W20069  15.690  21.174   7.149
19205W        W20070  15.541  18.971   4.163
19206W        W20071  17.058  19.113   4.488
19207W        W20072  17.016  21.221   6.725
19208W        W20073  15.701  19.813   5.324
19209W        W20074  15.356  21.511   6.189
19210W        W20075  18.101  21.628   3.790
19211W        W20076  14.964  20.300   6.786
19212W        W20077  16.959  20.562   5.474
19213W        W20078  15.395  20.211   4.716
19214W        W20079  15.766  21.218   6.111
19215W        W20080  16.144  18.637   5.152
19216W        W20081  14.755  20.621   4.082
19217W        W20082  16.274  19.572   3.952
19218W        W20083  14.920  20.121   4.971
19219W        W20084  16.210  18.763   6.435
19220W        W20085  17.882  18.472   3.862
19221W        W20086  17.975  20.218   6.961
19222W        W20087  16.629  21.475   7.113
19223W        W20088  18.187  20.569   6.635
19224W        W20089  17.595  21.367   7.246
19225W        W20090  15.334  21.823   5.724
19226W        W20091  18.193  20.445   4.598
19227W        W20092  16.723  19.712   5.111
19228W        W20093  16.490  18.324   5.001
19229W        W20094  15.549  21.308   4.838
19230W        W20095  16.048  19.049   6.063
19231W        W20096  15.748  18.418   5.532
19232W        W20097  14.811  21.240   4.080
19233W        W20098  16.627  20.604   4.798
19234W        W20099  15.502  21.399   6.677
19235W        W20100  14.979  20.222   4.373
19236W        W20101  14.864  18.765   5.372
19237W        W20102  16.412  20.730   5.429
19238W        W20103  14.664  18.584   4.449
19239W        W20104  17.328  19.790   6.376
19240W        W20105  17.205  19.176   3.948
19241W        W20106  17.722  20.848   5.596
19242W        W20107  16.383  21.332   5.427
19243W        W20108  15.795  21.436   4.338
19244W        W20109  17.077  18.339   3.768
19245W        W20110  14.877  21.599   5.509
19246W        W20111  17.074  19.357   7.144
19247W        W20112  15.057  18.887   7.143
19248W        W20113  14.788  19.487   4.476
19249W        W20114  15.479  19.476   4.201
19250W        W20115  17.242  19.803   7.018
19251W        W20116  15.585  20.084   5.727
19252W        W20117  17.059  18.370   4.847
19253W        W20118  16.190  21.801   5.350
19254W        W20119  17.404  21.263   6.287
19255W        W20120  16.988  21.412   5.398
19256W        W20121  17.007  20.392   4.992
19257W        W20122  16.469  18.617   4.063
19258W        W20123  18.150  18.245   4.785
19259W        W20124  15.838  19.880   3.948
19260W        W20125  18.004  19.217   4.938
19261W        W20126  16.696  20.387   3.815
19262W        W20127  17.632  20.587   6.563
19263W        W20128  17.286  21.288   4.030
19264W        W20129  15.901  18.963   6.936
19265W        W20130  15.721  19.547   6.177
19266W        W20131  17.813  21.042   6.454
19267W        W20132  16.913  18.992   6.831
19268W        W20133  14.757  19.463   6.608
19269W        W20134  16.517  19.940   6.334
19270W        W20135  14.874  20.698   4.991
19271W        W20136  15.021  19.995   5.881
19272W        W20137  17.338  20.281   6.231
19273W        W20138  17.110  21.661   7.042
19274W        W20139  17.006  19.400   6.595
19275W        W20140  17.283  21.454   5.000
19276W        W20141  16.285  21.174   6.323
19277W        W20142  15.770  21.529   5.592
19278W        W20143  17.575  20.700   6.011
19279W        W20144  16.625  20.772   7.148
19280W        W20145  15.230  20.725   5.487
19281W        W20146  17.576  20.484   5.132
19282W        W20147  17.217  21.550   5.883
19283W        W20148  15.195  21.279   5.753
19284W        W20149  16.216  19.331   6.963
19285W        W20150  16.667  21.497   4.474
19286W        W20151  15.975  20.752   7.112
19287W        W20152  16.101  20.990   4.489
19288W        W20153  15.322  19.730   3.748
19289W        W20154  14.661  21.816  10.648
19290W        W20155  15.037  20.709  10.171
19291W        W20156  17.742  20.439   7.941
19292W        W20157  17.872  21.524   9.968
19293W        W20158  15.790  21.515   7.494
19294W        W20159  15.873  19.667   8.477
19295W        W20160  15.388  19.515   8.641
19296W        W20161  16.379  20.330   8.075
19297W        W20162  16.054  21.422  10.430
19298W        W20163  14.703  18.983  10.393
19299W        W20164  15.465  18.263  10.195
19300W        W20165  17.159  18.651   9.082
19301W        W20166  16.808  19.522   7.652
19302W        W20167  17.378  18.956  10.743
19303W        W20168  14.744  18.748   9.868
19304W        W20169  14.843  21.367  10.889
19305W        W20170  16.365  20.757   7.621
19306W        W20171  14.797  19.540   9.314
19307W        W20172  15.690  19.431  10.551
19308W        W20173  18.149  19.290   9.050
19309W        W20174  17.913  20.333   9.909
19310W        W20175  16.221  19.666   8.936
19311W        W20176  16.767  21.005   9.305
19312W        W20177  15.267  20.439   9.537
19313W        W20178  14.626  19.967   9.108
19314W        W20179  15.662  19.939  10.300
19315W        W20180  17.933  19.722  10.554
19316W        W20181  15.549  21.166   8.999
19317W        W20182  16.670  20.855  10.133
19318W        W20183  15.890  19.495   9.358
19319W        W20184  16.182  20.279   9.001
19320W        W20185  17.179  21.052  10.849
19321W        W20186  16.258  20.372  10.859
19322W        W20187  16.239  20.088  10.337
19323W        W20188  14.648  19.479  10.859
19324W        W20189  17.480  21.014  10.458
19325W        W20190  15.061  18.596   8.456
19326W        W20191  15.588  20.854   9.455
19327W        W20192  18.051  20.637   8.745
19328W        W20193  17.464  19.037   9.312
19329W        W20194  17.749  18.990   7.407
19330W        W20195  18.214  19.791   9.713
19331W        W20196  16.181  21.498   9.466
19332W        W20197  17.955  20.964   7.904
19333W        W20198  15.084  21.750   7.658
19334W        W20199  15.477  21.796   8.334
19335W        W20200  15.274  18.550   9.760
19336W        W20201  17.897  19.568  10.035
19337W        W20202  17.302  19.990   8.494
19338W        W20203  17.268  19.678   7.521
19339W        W20204  16.476  20.822   9.661
19340W        W20205  16.282  19.152   8.860
19341W        W20206  16.882  21.239   9.854
19342W        W20207  17.753  20.030   8.276
19343W        W20208  16.655  18.688   8.292
19344W        W20209  15.312  21.382   7.975
19345W        W20210  14.683  18.881   8.574
19346W        W20211  17.469  19.488   9.048
19347W        W20212  14.927  21.105   8.963
19348W        W20213  16.268  21.455   7.833
19349W        W20214  17.660  19.481   7.297
19350W        W20215  14.683  21.239   9.461
19351W        W20216  15.474  20.811   9.941
19352W        W20217  15.847  20.171   8.560
19353W        W20218  15.869  18.576   9.653
19354W        W20219  18.098  18.338   8.950
19355W        W20220  15.317  20.210   7.418
19356W        W20221  14.972  19.243   7.597
19357W        W20222  15.034  21.199   8.391
19358W        W20223  16.165  20.682   8.639
19359W        W20224  17.497  21.541  10.353
19360W        W20225  16.423  19.183   8.037
19361W        W20226  17.806  21.581   8.809
19362W        W20227  17.483  19.434  10.407
19363W        W20228  18.196  21.090   8.541
19364W        W20229  16.823  20.382  10.025
19365W        W20230  14.589  19.933   8.231
19366W        W20231  15.700  20.348   9.804
19367W        W20232  16.904  19.612   8.182
19368W        W20233  16.781  20.102   8.286
19369W        W20234  15.124  19.522   9.760
19370W        W20235  15.109  19.398  10.682
19371W        W20236  14.999  18.315   8.841
19372W        W20237  16.767  18.662   9.402
19373W        W20238  16.415  18.847  10.565
19374W        W20239  16.770  18.996   7.743
19375W        W20240  17.953  21.389  10.497
19376W        W20241  16.920  18.470  10.536
19377W        W20242  17.939  20.771  10.658
19378W        W20243  17.369  18.938  10.254
19379W        W20244  17.169  18.876   8.524
19380W        W20245  17.562  20.010  10.928
19381W        W20246  15.302  21.586   8.914
19382W        W20247  15.960  19.303   7.900
19383W        W20248  15.529  18.587  10.564
19384W        W20249  17.581  19.071   8.245
19385W        W20250  17.948  19.553   8.190
19386W        W20251  15.691  21.770  10.661
19387W        W20252  15.617  18.306   7.896
19388W        W20253  17.938  18.840   8.931
19389W        W20254  18.088  21.089   7.376
19390W        W20255  14.995  20.292   9.078
19391W        W20256  16.912  18.879   7.308
19392W        W20257  18.046  21.211   9.028
19393W        W20258  18.085  18.405   9.778
19394W        W20259  16.530  19.617  10.332
19395W        W20260  16.623  20.956   8.035
19396W        W20261  17.023  20.250  10.775
19397W        W20262  16.697  18.227   9.084
19398W        W20263  15.309  19.130   9.147
19399W        W20264  14.863  20.330   9.921
19400W        W20265  16.722  21.523   8.627
19401W        W20266  17.916  19.120   9.499
19402W        W20267  16.553  21.467  10.266
19403W        W20268  17.896  20.526   7.471
19404W        W20269  16.331  20.009   8.532
19405W        W20270  18.183  18.520  10.273
19406W        W20271  16.332  20.355   9.867
19407W        W20272  16.549  19.241   9.312
19408W        W20273  17.401  19.539   8.150
19409W        W20274  17.688  19.272   7.792
19410W        W20275  17.497  21.312   8.181
19411W        W20276  17.331  20.915   8.977
19412W        W20277  17.227  19.994   7.955
19413W        W20278  16.660  20.204   8.941
19414W        W20279  17.541  19.992   9.008
19415W        W20280  14.916  19.007   9.432
19416W        W20281  17.694  20.059  10.259
19417W        W20282  18.045  21.677   9.405
19418W        W20283  15.975  21.121   8.807
19419W        W20284  16.982  21.654  10.131
19420W        W20285  16.976  18.984   9.895
19421W        W20286  16.183  21.692   9.956
19422W        W20287  17.880  18.646   8.422
19423W        W20288  17.671  19.965   9.723
19424W        W20289  14.654  19.286   9.761
19425W        W20290  17.514  19.081   8.779
19426W        W20291  17.925  19.232  10.556
19427W        W20292  16.810  20.931   8.774
19428W        W20293  16.066  21.522   8.387
19429W        W20294  15.181  18.702   7.645
19430W        W20295  16.285  18.356   9.455
19431W        W20296  15.313  21.476   7.303
19432W        W20297  15.687  19.942   8.054
19433W        W20298  16.341  20.571  10.367
19434W        W20299  16.171  18.929   8.357
19435W        W20300  17.527  18.526   8.785
19436W        W20301  17.247  21.808   9.113
19437W        W20302  16.659  21.456   9.453
19438W        W20303  16.055  20.493   9.414
19439W        W20304  17.825  21.216   9.540
19440W        W20305  15.519  18.719   8.309
19441W        W20306  16.041  21.016   9.269
19442W        W20307  15.524  18.947   7.334
19443W        W20308  16.325  19.556   9.728
19444W        W20309  17.173  18.422   9.598
19445W        W20310  14.593  20.265   9.483
19446W        W20311  16.297  20.083   7.641
19447W        W20312  15.565  18.398   7.411
19448W        W20313  16.303  19.479   8.462
19449W        W20314  17.273  18.455  10.161
19450W        W20315  15.861  20.467  10.270
19451W        W20316  16.665  20.249  10.487
19452W        W20317  17.282  20.279  10.380
19453W        W20318  16.566  18.419  10.885
19454W        W20319  15.788  19.035   9.278
19455W        W20320  15.214  18.991   8.676
19456W        W20321  15.000  21.703   8.352
19457W        W20322  16.332  21.033  10.477
19458W        W20323  15.367  20.518   7.836
19459W        W20324  17.047  19.903   9.057
19460W        W20325  17.327  19.702   9.456
19461W        W20326  16.532  20.376   9.390
19462W        W20327  17.002  20.750   7.522
19463W        W20328  16.674  18.771   8.850
19464W        W20329  18.153  19.049   8.118
19465W        W20330  14.647  21.638  10.149
19466W        W20331  15.064  20.864   9.681
19467W        W20332  14.631  21.710   7.913
19468W        W20333  16.530  18.980   9.719
19469W        W20334  15.893  21.003   7.568
19470W        W20335  17.798  21.385   7.754
19471W        W20336  16.773  20.038   7.768
19472W        W20337  15.616  19.229   8.285
19473W        W20338  16.448  19.139   7.337
19474W        W20339  17.032  20.704  10.515
19475W        W20340  17.385  18.610   8.132
19476W        W20341  14.715  18.458   7.580
19477W        W20342  16.001  20.777   9.870
19478W        W20343  15.800  20.693   8.962
19479W        W20344  15.542  20.645   7.360
19480W        W20345  14.783  20.886   8.128
19481W        W20346  15.287  19.956  10.570
19482W        W20347  15.991  18.516  10.756
19483W        W20348  16.700  18.658  10.112
19484W        W20349  15.895  18.426   8.393
19485W        W20350  16.954  18.503   7.898
19486W        W20351  14.899  18.435   9.475
19487W        W20352  14.947  19.398   8.845
19488W        W20353  17.636  18.506   9.251
19489W        W20354  15.058  19.004   8.065
19490W        W20355  17.629  18.692   9.681
19491W        W20356  18.025  19.895   7.366
19492W        W20357  15.317  18.653   9.185
19493W        W20358  16.431  19.225  10.125
19494W        W20359  14.579  18.915   7.603
19495W        W20360  15.365  20.304  10.164
19496W        W20361  16.723  19.702   9.343
19497W        W20362  16.590  21.781   7.639
19498W        W20363  14.736  20.288   7.336
19499W        W20364  15.471  20.699  10.462
19500W        W20365  14.992  19.866  10.093
19501W        W20366  15.983  19.971   9.887
19502W        W20367  17.751  18.330  10.149
19503W        W20368  18.149  19.940  10.140
19504W        W20369  18.137  20.140   7.826
19505W        W20370  17.000  20.472   7.925
19506W        W20371  17.474  21.772   7.620
19507W        W20372  16.651  19.762  10.762
19508W        W20373  14.981  20.729  10.802
19509W        W20374  18.187  18.651  10.754
19510W        W20375  17.905  19.579   9.375
19511W        W20376  16.213  21.709  10.852
19512W        W20377  16.068  18.338   7.579
19513W        W20378  17.607  20.937   7.522
19514W        W20379  15.376  19.030  10.408
19515W        W20380  15.810  21.024  10.270
19516W        W20381  17.936  19.015  10.068
19517W        W20382  17.147  21.674   8.036
19518W        W20383  17.386  20.293   9.403
19519W        W20384  15.636  18.709  10.070
19520W        W20385  16.105  19.778  10.827
19521W        W20386  15.608  20.957   8.021
19522W        W20387  17.363  20.455   8.285
19523W        W20388  15.131  19.081  10.009
19524W        W20389  16.460  21.143   8.473
19525W        W20390  18.210  19.703   8.654
19526W        W20391  16.432  18.336  10.373
19527W        W20392  17.212  21.041   9.452
19528W        W20393  17.515  21.385   9.160
19529W        W20394  16.734  21.187   7.588
19530W        W20395  14.744  21.079  10.430
19531W        W20396  15.487  19.071   9.668
19532W        W20397  15.457  18.419   8.778
19533W        W20398  17.078  19.261   9.470
19534W        W20399  15.876  20.432   7.670
19535W        W20400  17.874  20.374   9.169
19536W        W20401  15.201  21.132  10.592
19537W        W20402  17.588  21.814   8.389
19538W        W20403  15.687  18.834   8.834
19539W        W20404  15.456  20.327   8.924
19540W        W20405  15.769  21.738   9.674
19541W        W20406  17.836  21.834  10.706
19542W        W20407  16.995  20.022   9.639
19543W        W20408  14.844  19.820   7.554
19544W        W20409  17.978  21.478   8.251
19545W        W20410  17.815  18.802   7.870
19546W        W20411  15.954  18.321  10.273
19547W        W20412  17.660  21.123   8.731
19548W        W20413  17.689  19.679   8.636
19549W        W20414  15.806  19.352   8.852
19550W        W20415  16.051  19.614  10.176
19551W        W20416  17.162  20.767  10.039
19552W        W20417  15.812  19.221  10.151
19553W        W20418  15.791  21.687   8.767
19554W        W20419  15.108  21.646  10.401
19555W        W20420  15.220  21.007   7.531
19556W        W20421  17.737  20.765   8.341
19557W        W20422  15.341  19.557  10.227
19558W        W20423  18.114  19.487   7.708
19559W        W20424  15.859  20.544   8.179
19560W        W20425  16.958  19.926  10.260
19561W        W20426  16.849  19.554   9.804
19562W        W20427  15.409  19.926   9.833
19563W        W20428  17.619  21.814   9.662
19564W        W20429  17.410  18.448  10.656
19565W        W20430  15.074  18.598  10.243
19566W        W20431  15.413  19.621   9.296
19567W        W20432  15.782  19.435   7.418
19568W        W20433  14.585  21.194   9.963
19569W        W20434  16.170  19.903   9.406
19570W        W20435  15.993  18.928   7.511
19571W        W20436  15.128  19.744   8.292
19572W        W20437  14.899  21.596   9.729
19573W        W20438  17.694  19.822   7.837
19574W        W20439  17.789  18.738  10.523
19575W        W20440  17.225  20.947   8.486
19576W        W20441  14.823  19.871  10.663
19577W        W20442  17.789  18.335   7.959
19578W        W20443  17.309  20.810   7.970
19579W        W20444  16.211  19.868   8.055
19580W        W20445  17.398  18.672   7.578
19581W        W20446  17.463  19.279   9.764
19582W        W20447  15.172  19.872   8.971
19583W        W20448  15.466  20.811   8.620
19584W        W20449  17.229  19.431   8.585
19585W        W20450  16.252  18.810   9.281
19586W        W20451  18.214  20.721   9.792
19587W        W20452  18.132  18.708   9.353
19588W        W20453  14.671  21.538   8.729
19589W        W20454  15.180  20.725   8.265
19590W        W20455  15.095  18.342  10.818
19591W        W20456  16.214  21.195  10.920
19592W        W20457  17.969  20.163   8.710
19593W        W20458  17.323  20.340   7.590
19594W        W20459  16.618  21.861   9.802
19595W        W20460  17.475  20.583  10.839
19596W        W20461  16.290  18.293   8.119
19597W        W20462  17.003  19.162   8.978
19598W        W20463  14.689  20.749   9.310
19599W        W20464  15.942  18.711   7.951
19600W        W20465  15.746  20.195  10.800
19601W        W20466  16.740  19.176   8.514
19602W        W20467  16.945  20.586   9.636
19603W        W20468  15.099  21.191  10.071
19604W        W20469  15.690  21.174  10.794
19605W        W20470  15.541  18.971   7.808
19606W        W20471  17.058  19.113   8.133
19607W        W20472  17.016  21.221  10.370
19608W        W20473  15.701  19.813   8.969
19609W        W20474  15.356  21.511   9.834
19610W        W20475  18.101  21.628   7.435
19611W        W20476  14.964  20.300  10.431
19612W        W20477  16.959  20.562   9.119
19613W        W20478  15.395  20.211   8.361
19614W        W20479  15.766  21.218   9.756
19615W        W20480  16.144  18.637   8.797
19616W        W20481  14.755  20.621   7.727
19617W        W20482  16.274  19.572   7.597
19618W        W20483  14.920  20.121   8.616
19619W        W20484  16.210  18.763  10.080
19620W        W20485  17.882  18.472   7.507
19621W        W20486  17.975  20.218  10.606
19622W        W20487  16.629  21.475  10.758
19623W        W20488  18.187  20.569  10.280
19624W        W20489  17.595  21.367  10.891
19625W        W20490  15.334  21.823   9.369
19626W        W20491  18.193  20.445   8.243
19627W        W20492  16.723  19.712   8.756
19628W        W20493  16.490  18.324   8.646
19629W        W20494  15.549  21.308   8.483
19630W        W20495  16.048  19.049   9.708
19631W        W20496  15.748  18.418   9.177
19632W        W20497  14.811  21.240   7.725
19633W        W20498  16.627  20.604   8.443
19634W        W20499  15.502  21.399  10.322
19635W        W20500  14.979  20.222   8.018
19636W        W20501  14.864  18.765   9.017
19637W        W20502  16.412  20.730   9.074
19638W        W20503  14.664  18.584   8.094
19639W        W20504  17.205  19.176   7.593
19640W        W20505  17.722  20.848   9.241
19641W        W20506  16.383  21.332   9.072
19642W        W20507  15.795  21.436   7.983
19643W        W20508  17.077  18.339   7.413
19644W        W20509  14.877  21.599   9.154
19645W        W20510  17.074  19.357  10.789
19646W        W20511  15.057  18.887  10.788
19647W        W20512  14.788  19.487   8.121
19648W        W20513  15.479  19.476   7.846
19649W        W20514  17.242  19.803  10.663
19650W        W20515  15.585  20.084   9.372
19651W        W20516  17.059  18.370   8.492
19652W        W20517  16.190  21.801   8.995
19653W        W20518  17.404  21.263   9.932
19654W        W20519  16.988  21.412   9.043
19655W        W20520  17.007  20.392   8.637
19656W        W20521  16.469  18.617   7.708
19657W        W20522  18.150  18.245   8.430
19658W        W20523  15.838  19.880   7.593
19659W        W20524  18.004  19.217   8.583
19660W        W20525  16.696  20.387   7.460
19661W        W20526  17.632  20.587  10.208
19662W        W20527  17.286  21.288   7.675
19663W        W20528  15.901  18.963  10.581
19664W        W20529  15.721  19.547   9.822
19665W        W20530  17.813  21.042  10.099
19666W        W20531  16.913  18.992  10.476
19667W        W20532  14.757  19.463  10.253
19668W        W20533  16.517  19.940   9.979
19669W        W20534  14.874  20.698   8.636
19670W        W20535  15.021  19.995   9.526
19671W        W20536  17.338  20.281   9.876
19672W        W20537  17.110  21.661  10.687
19673W        W20538  17.006  19.400  10.240
19674W        W20539  17.283  21.454   8.645
19675W        W20540  16.285  21.174   9.968
19676W        W20541  15.770  21.529   9.237
19677W        W20542  17.575  20.700   9.656
19678W        W20543  16.625  20.772  10.793
19679W        W20544  15.230  20.725   9.132
19680W        W20545  17.576  20.484   8.777
19681W        W20546  17.217  21.550   9.528
19682W        W20547  15.195  21.279   9.398
19683W        W20548  16.216  19.331  10.608
19684W        W20549  16.667  21.497   8.119
19685W        W20550  15.975  20.752  10.757
19686W        W20551  16.101  20.990   8.134
19687W        W20552  15.322  19.730   7.393
19688W        W20553  14.661  21.816  14.292
19689W        W20554  15.037  20.709  13.815
19690W        W20555  17.742  20.439  11.585
19691W        W20556  17.872  21.524  13.612
19692W        W20557  15.790  21.515  11.138
19693W        W20558  15.873  19.667  12.121
19694W        W20559  15.388  19.515  12.285
19695W        W20560  16.379  20.330  11.719
19696W        W20561  16.054  21.422  14.074
19697W        W20562  14.703  18.983  14.037
19698W        W20563  15.465  18.263  13.839
19699W        W20564  17.159  18.651  12.726
19700W        W20565  16.808  19.522  11.296
19701W        W20566  17.378  18.956  14.387
19702W        W20567  14.744  18.748  13.512
19703W        W20568  14.843  21.367  14.533
19704W        W20569  16.365  20.757  11.265
19705W        W20570  14.797  19.540  12.958
19706W        W20571  15.690  19.431  14.195
19707W        W20572  18.149  19.290  12.694
19708W        W20573  17.913  20.333  13.553
19709W        W20574  16.221  19.666  12.580
19710W        W20575  16.767  21.005  12.949
19711W        W20576  15.267  20.439  13.181
19712W        W20577  14.626  19.967  12.752
19713W        W20578  15.662  19.939  13.944
19714W        W20579  17.933  19.722  14.198
19715W        W20580  15.549  21.166  12.643
19716W        W20581  16.670  20.855  13.777
19717W        W20582  15.890  19.495  13.002
19718W        W20583  16.182  20.279  12.645
19719W        W20584  17.179  21.052  14.493
19720W        W20585  16.258  20.372  14.503
19721W        W20586  16.239  20.088  13.981
19722W        W20587  14.648  19.479  14.503
19723W        W20588  17.480  21.014  14.102
19724W        W20589  15.061  18.596  12.100
19725W        W20590  15.588  20.854  13.099
19726W        W20591  18.051  20.637  12.389
19727W        W20592  17.464  19.037  12.956
19728W        W20593  17.749  18.990  11.051
19729W        W20594  18.214  19.791  13.357
19730W        W20595  16.181  21.498  13.110
19731W        W20596  17.955  20.964  11.548
19732W        W20597  15.084  21.750  11.302
19733W        W20598  15.477  21.796  11.978
19734W        W20599  15.274  18.550  13.404
19735W        W20600  17.897  19.568  13.679
19736W        W20601  17.302  19.990  12.138
19737W        W20602  17.268  19.678  11.165
19738W        W20603  16.476  20.822  13.305
19739W        W20604  16.282  19.152  12.504
19740W        W20605  16.882  21.239  13.498
19741W        W20606  17.753  20.030  11.920
19742W        W20607  16.655  18.688  11.936
19743W        W20608  15.312  21.382  11.619
19744W        W20609  14.683  18.881  12.218
19745W        W20610  17.469  19.488  12.692
19746W        W20611  14.927  21.105  12.607
19747W        W20612  16.268  21.455  11.477
19748W        W20613  17.660  19.481  10.941
19749W        W20614  14.683  21.239  13.105
19750W        W20615  15.474  20.811  13.585
19751W        W20616  15.847  20.171  12.204
19752W        W20617  15.869  18.576  13.297
19753W        W20618  18.098  18.338  12.594
19754W        W20619  15.317  20.210  11.062
19755W        W20620  14.972  19.243  11.241
19756W        W20621  15.034  21.199  12.035
19757W        W20622  16.165  20.682  12.283
19758W        W20623  17.497  21.541  13.997
19759W        W20624  16.423  19.183  11.681
19760W        W20625  17.806  21.581  12.453
19761W        W20626  17.483  19.434  14.051
19762W        W20627  18.196  21.090  12.185
19763W        W20628  16.823  20.382  13.669
19764W        W20629  14.589  19.933  11.875
19765W        W20630  15.700  20.348  13.448
19766W        W20631  16.904  19.612  11.826
19767W        W20632  16.781  20.102  11.930
19768W        W20633  15.124  19.522  13.404
19769W        W20634  15.109  19.398  14.326
19770W        W20635  14.999  18.315  12.485
19771W        W20636  16.767  18.662  13.046
19772W        W20637  16.415  18.847  14.209
19773W        W20638  16.770  18.996  11.387
19774W        W20639  17.953  21.389  14.141
19775W        W20640  16.920  18.470  14.180
19776W        W20641  17.939  20.771  14.302
19777W        W20642  17.369  18.938  13.898
19778W        W20643  17.169  18.876  12.168
19779W        W20644  17.562  20.010  14.572
19780W        W20645  15.302  21.586  12.558
19781W        W20646  15.960  19.303  11.544
19782W        W20647  17.581  19.071  11.889
19783W        W20648  17.948  19.553  11.834
19784W        W20649  15.691  21.770  14.305
19785W        W20650  15.617  18.306  11.540
19786W        W20651  17.938  18.840  12.575
19787W        W20652  18.088  21.089  11.020
19788W        W20653  14.995  20.292  12.722
19789W        W20654  16.912  18.879  10.952
19790W        W20655  18.046  21.211  12.672
19791W        W20656  18.085  18.405  13.422
19792W        W20657  16.530  19.617  13.976
19793W        W20658  16.623  20.956  11.679
19794W        W20659  17.023  20.250  14.419
19795W        W20660  16.697  18.227  12.728
19796W        W20661  15.309  19.130  12.791
19797W        W20662  14.863  20.330  13.565
19798W        W20663  16.722  21.523  12.271
19799W        W20664  17.916  19.120  13.143
19800W        W20665  16.553  21.467  13.910
19801W        W20666  17.896  20.526  11.115
19802W        W20667  16.331  20.009  12.176
19803W        W20668  18.183  18.520  13.917
19804W        W20669  16.332  20.355  13.511
19805W        W20670  16.549  19.241  12.956
19806W        W20671  17.401  19.539  11.794
19807W        W20672  17.688  19.272  11.436
19808W        W20673  17.497  21.312  11.825
19809W        W20674  17.331  20.915  12.621
19810W        W20675  17.227  19.994  11.599
19811W        W20676  16.660  20.204  12.585
19812W        W20677  17.541  19.992  12.652
19813W        W20678  14.916  19.007  13.076
19814W        W20679  17.694  20.059  13.903
19815W        W20680  18.045  21.677  13.049
19816W        W20681  15.975  21.121  12.451
19817W        W20682  16.982  21.654  13.775
19818W        W20683  16.976  18.984  13.539
19819W        W20684  16.183  21.692  13.600
19820W        W20685  17.880  18.646  12.066
19821W        W20686  17.671  19.965  13.367
19822W        W20687  14.654  19.286  13.405
19823W        W20688  17.514  19.081  12.423
19824W        W20689  17.925  19.232  14.200
19825W        W20690  16.810  20.931  12.418
19826W        W20691  16.066  21.522  12.031
19827W        W20692  15.181  18.702  11.289
19828W        W20693  16.285  18.356  13.099
19829W        W20694  15.313  21.476  10.947
19830W        W20695  15.687  19.942  11.698
19831W        W20696  16.341  20.571  14.011
19832W        W20697  16.171  18.929  12.001
19833W        W20698  17.527  18.526  12.429
19834W        W20699  17.247  21.808  12.757
19835W        W20700  16.659  21.456  13.097
19836W        W20701  16.055  20.493  13.058
19837W        W20702  17.825  21.216  13.184
19838W        W20703  15.519  18.719  11.953
19839W        W20704  16.041  21.016  12.913
19840W        W20705  15.524  18.947  10.978
19841W        W20706  16.325  19.556  13.372
19842W        W20707  17.173  18.422  13.242
19843W        W20708  14.593  20.265  13.127
19844W        W20709  16.297  20.083  11.285
19845W        W20710  15.565  18.398  11.055
19846W        W20711  16.303  19.479  12.106
19847W        W20712  17.273  18.455  13.805
19848W        W20713  15.861  20.467  13.914
19849W        W20714  16.665  20.249  14.131
19850W        W20715  17.282  20.279  14.024
19851W        W20716  16.566  18.419  14.529
19852W        W20717  15.788  19.035  12.922
19853W        W20718  15.214  18.991  12.320
19854W        W20719  15.000  21.703  11.996
19855W        W20720  16.332  21.033  14.121
19856W        W20721  15.367  20.518  11.480
19857W        W20722  17.047  19.903  12.701
19858W        W20723  17.327  19.702  13.100
19859W        W20724  16.532  20.376  13.034
19860W        W20725  17.002  20.750  11.166
19861W        W20726  16.674  18.771  12.494
19862W        W20727  18.153  19.049  11.762
19863W        W20728  14.647  21.638  13.793
19864W        W20729  14.631  21.710  11.557
19865W        W20730  16.530  18.980  13.363
19866W        W20731  15.893  21.003  11.212
19867W        W20732  17.798  21.385  11.398
19868W        W20733  16.773  20.038  11.412
19869W        W20734  15.616  19.229  11.929
19870W        W20735  16.448  19.139  10.981
19871W        W20736  17.032  20.704  14.159
19872W        W20737  17.385  18.610  11.776
19873W        W20738  14.715  18.458  11.224
19874W        W20739  16.001  20.777  13.514
19875W        W20740  15.800  20.693  12.606
19876W        W20741  15.542  20.645  11.004
19877W        W20742  14.783  20.886  11.772
19878W        W20743  15.287  19.956  14.214
19879W        W20744  15.991  18.516  14.400
19880W        W20745  16.700  18.658  13.756
19881W        W20746  15.895  18.426  12.037
19882W        W20747  16.954  18.503  11.542
19883W        W20748  14.899  18.435  13.119
19884W        W20749  14.947  19.398  12.489
19885W        W20750  17.636  18.506  12.895
19886W        W20751  15.058  19.004  11.709
19887W        W20752  17.629  18.692  13.325
19888W        W20753  18.025  19.895  11.010
19889W        W20754  15.317  18.653  12.829
19890W        W20755  16.431  19.225  13.769
19891W        W20756  14.579  18.915  11.247
19892W        W20757  15.365  20.304  13.808
19893W        W20758  16.723  19.702  12.987
19894W        W20759  16.590  21.781  11.283
19895W        W20760  14.736  20.288  10.980
19896W        W20761  15.471  20.699  14.106
19897W        W20762  14.992  19.866  13.737
19898W        W20763  15.983  19.971  13.531
19899W        W20764  17.751  18.330  13.793
19900W        W20765  18.149  19.940  13.784
19901W        W20766  18.137  20.140  11.470
19902W        W20767  17.000  20.472  11.569
19903W        W20768  17.474  21.772  11.264
19904W        W20769  16.651  19.762  14.406
19905W        W20770  14.981  20.729  14.446
19906W        W20771  18.187  18.651  14.398
19907W        W20772  17.905  19.579  13.019
19908W        W20773  16.213  21.709  14.496
19909W        W20774  16.068  18.338  11.223
19910W        W20775  17.607  20.937  11.166
19911W        W20776  15.376  19.030  14.052
19912W        W20777  15.810  21.024  13.914
19913W        W20778  17.936  19.015  13.712
19914W        W20779  17.147  21.674  11.680
19915W        W20780  17.386  20.293  13.047
19916W        W20781  15.636  18.709  13.714
19917W        W20782  16.105  19.778  14.471
19918W        W20783  15.608  20.957  11.665
19919W        W20784  17.363  20.455  11.929
19920W        W20785  15.131  19.081  13.653
19921W        W20786  16.460  21.143  12.117
19922W        W20787  18.210  19.703  12.298
19923W        W20788  16.432  18.336  14.017
19924W        W20789  17.212  21.041  13.096
19925W        W20790  17.515  21.385  12.804
19926W        W20791  16.734  21.187  11.232
19927W        W20792  14.744  21.079  14.074
19928W        W20793  15.487  19.071  13.312
19929W        W20794  15.457  18.419  12.422
19930W        W20795  17.078  19.261  13.114
19931W        W20796  15.876  20.432  11.314
19932W        W20797  17.874  20.374  12.813
19933W        W20798  15.201  21.132  14.236
19934W        W20799  17.588  21.814  12.033
19935W        W20800  15.687  18.834  12.478
19936W        W20801  15.456  20.327  12.568
19937W        W20802  15.769  21.738  13.318
19938W        W20803  17.836  21.834  14.350
19939W        W20804  16.995  20.022  13.283
19940W        W20805  14.844  19.820  11.198
19941W        W20806  17.978  21.478  11.895
19942W        W20807  17.815  18.802  11.514
19943W        W20808  15.954  18.321  13.917
19944W        W20809  17.660  21.123  12.375
19945W        W20810  17.689  19.679  12.280
19946W        W20811  15.806  19.352  12.496
19947W        W20812  16.051  19.614  13.820
19948W        W20813  17.162  20.767  13.683
19949W        W20814  15.812  19.221  13.795
19950W        W20815  15.791  21.687  12.411
19951W        W20816  15.108  21.646  14.045
19952W        W20817  15.220  21.007  11.175
19953W        W20818  17.737  20.765  11.985
19954W        W20819  15.341  19.557  13.871
19955W        W20820  18.114  19.487  11.352
19956W        W20821  15.859  20.544  11.823
19957W        W20822  16.958  19.926  13.904
19958W        W20823  16.849  19.554  13.448
19959W        W20824  15.409  19.926  13.477
19960W        W20825  17.619  21.814  13.306
19961W        W20826  17.410  18.448  14.300
19962W        W20827  15.074  18.598  13.887
19963W        W20828  15.413  19.621  12.940
19964W        W20829  15.782  19.435  11.062
19965W        W20830  14.585  21.194  13.607
19966W        W20831  16.170  19.903  13.050
19967W        W20832  15.993  18.928  11.155
19968W        W20833  15.128  19.744  11.936
19969W        W20834  14.899  21.596  13.373
19970W        W20835  17.694  19.822  11.481
19971W        W20836  17.789  18.738  14.167
19972W        W20837  17.225  20.947  12.130
19973W        W20838  14.823  19.871  14.307
19974W        W20839  17.789  18.335  11.603
19975W        W20840  17.309  20.810  11.614
19976W        W20841  16.211  19.868  11.699
19977W        W20842  17.398  18.672  11.222
19978W        W20843  17.463  19.279  13.408
19979W        W20844  15.172  19.872  12.615
19980W        W20845  15.466  20.811  12.264
19981W        W20846  17.229  19.431  12.229
19982W        W20847  16.252  18.810  12.925
19983W        W20848  18.214  20.721  13.436
19984W        W20849  18.132  18.708  12.997
19985W        W20850  14.671  21.538  12.373
19986W        W20851  15.180  20.725  11.909
19987W        W20852  15.095  18.342  14.462
19988W        W20853  16.214  21.195  14.564
19989W        W20854  17.969  20.163  12.354
19990W        W20855  17.323  20.340  11.234
19991W        W20856  16.618  21.861  13.446
19992W        W20857  17.475  20.583  14.483
19993W        W20858  16.290  18.293  11.763
19994W        W20859  17.003  19.162  12.622
19995W        W20860  14.689  20.749  12.954
19996W        W20861  15.942  18.711  11.595
19997W        W20862  15.746  20.195  14.444
19998W        W20863  16.740  19.176  12.158
19999W        W20864  16.945  20.586  13.280
20000W        W20865  15.099  21.191  13.715
20001W        W20866  15.690  21.174  14.438
20002W        W20867  15.541  18.971  11.452
20003W        W20868  17.058  19.113  11.777
20004W        W20869  17.016  21.221  14.014
20005W        W20870  15.701  19.813  12.613
20006W        W20871  15.356  21.511  13.478
20007W        W20872  18.101  21.628  11.079
20008W        W20873  14.964  20.300  14.075
20009W        W20874  16.959  20.562  12.763
20010W        W20875  15.395  20.211  12.005
20011W        W20876  15.766  21.218  13.400
20012W        W20877  16.144  18.637  12.441
20013W        W20878  14.755  20.621  11.371
20014W        W20879  16.274  19.572  11.241
20015W        W20880  14.920  20.121  12.260
20016W        W20881  16.210  18.763  13.724
20017W        W20882  17.882  18.472  11.151
20018W        W20883  17.975  20.218  14.250
20019W        W20884  16.629  21.475  14.402
20020W        W20885  18.187  20.569  13.924
20021W        W20886  17.595  21.367  14.535
20022W        W20887  15.334  21.823  13.013
20023W        W20888  18.193  20.445  11.887
20024W        W20889  16.723  19.712  12.400
20025W        W20890  16.490  18.324  12.290
20026W        W20891  15.549  21.308  12.127
20027W        W20892  16.048  19.049  13.352
20028W        W20893  15.748  18.418  12.821
20029W        W20894  14.811  21.240  11.369
20030W        W20895  16.627  20.604  12.087
20031W        W20896  15.502  21.399  13.966
20032W        W20897  14.979  20.222  11.662
20033W        W20898  14.864  18.765  12.661
20034W        W20899  16.412  20.730  12.718
20035W        W20900  14.664  18.584  11.738
20036W        W20901  17.328  19.790  13.665
20037W        W20902  17.205  19.176  11.237
20038W        W20903  17.722  20.848  12.885
20039W        W20904  16.383  21.332  12.716
20040W        W20905  15.795  21.436  11.627
20041W        W20906  17.077  18.339  11.057
20042W        W20907  14.877  21.599  12.798
20043W        W20908  17.074  19.357  14.433
20044W        W20909  15.057  18.887  14.432
20045W        W20910  14.788  19.487  11.765
20046W        W20911  15.479  19.476  11.490
20047W        W20912  17.242  19.803  14.307
20048W        W20913  15.585  20.084  13.016
20049W        W20914  17.059  18.370  12.136
20050W        W20915  16.190  21.801  12.639
20051W        W20916  17.404  21.263  13.576
20052W        W20917  16.988  21.412  12.687
20053W        W20918  17.007  20.392  12.281
20054W        W20919  16.469  18.617  11.352
20055W        W20920  18.150  18.245  12.074
20056W        W20921  15.838  19.880  11.237
20057W        W20922  18.004  19.217  12.227
20058W        W20923  16.696  20.387  11.104
20059W        W20924  17.632  20.587  13.852
20060W        W20925  17.286  21.288  11.319
20061W        W20926  15.901  18.963  14.225
20062W        W20927  15.721  19.547  13.466
20063W        W20928  17.813  21.042  13.743
20064W        W20929  16.913  18.992  14.120
20065W        W20930  14.757  19.463  13.897
20066W        W20931  16.517  19.940  13.623
20067W        W20932  14.874  20.698  12.280
20068W        W20933  15.021  19.995  13.170
20069W        W20934  17.338  20.281  13.520
20070W        W20935  17.110  21.661  14.331
20071W        W20936  17.006  19.400  13.884
20072W        W20937  17.283  21.454  12.289
20073W        W20938  16.285  21.174  13.612
20074W        W20939  15.770  21.529  12.881
20075W        W20940  17.575  20.700  13.300
20076W        W20941  16.625  20.772  14.437
20077W        W20942  15.230  20.725  12.776
20078W        W20943  17.576  20.484  12.421
20079W        W20944  17.217  21.550  13.172
20080W        W20945  15.195  21.279  13.042
20081W        W20946  16.216  19.331  14.252
20082W        W20947  16.667  21.497  11.763
20083W        W20948  15.975  20.752  14.401
20084W        W20949  16.101  20.990  11.778
20085W        W20950  15.322  19.730  11.037
20086W        W20951  14.661  21.816  17.936
20087W        W20952  15.037  20.709  17.459
20088W        W20953  17.742  20.439  15.229
20089W        W20954  17.872  21.524  17.256
20090W        W20955  15.790  21.515  14.782
20091W        W20956  15.873  19.667  15.765
20092W        W20957  15.388  19.515  15.929
20093W        W20958  16.379  20.330  15.363
20094W        W20959  16.054  21.422  17.718
20095W        W20960  14.703  18.983  17.681
20096W        W20961  15.465  18.263  17.483
20097W        W20962  17.159  18.651  16.370
20098W        W20963  16.808  19.522  14.940
20099W        W20964  17.378  18.956  18.031
20100W        W20965  14.744  18.748  17.156
20101W        W20966  14.843  21.367  18.177
20102W        W20967  16.365  20.757  14.909
20103W        W20968  14.797  19.540  16.602
20104W        W20969  15.690  19.431  17.839
20105W        W20970  18.149  19.290  16.338
20106W        W20971  17.913  20.333  17.197
20107W        W20972  16.221  19.666  16.224
20108W        W20973  16.767  21.005  16.593
20109W        W20974  15.267  20.439  16.825
20110W        W20975  14.626  19.967  16.396
20111W        W20976  15.662  19.939  17.588
20112W        W20977  17.933  19.722  17.842
20113W        W20978  15.549  21.166  16.287
20114W        W20979  16.670  20.855  17.421
20115W        W20980  15.890  19.495  16.646
20116W        W20981  16.182  20.279  16.289
20117W        W20982  17.179  21.052  18.137
20118W        W20983  16.258  20.372  18.147
20119W        W20984  16.239  20.088  17.625
20120W        W20985  14.648  19.479  18.147
20121W        W20986  17.480  21.014  17.746
20122W        W20987  15.061  18.596  15.744
20123W        W20988  15.588  20.854  16.743
20124W        W20989  18.051  20.637  16.033
20125W        W20990  17.464  19.037  16.600
20126W        W20991  17.749  18.990  14.695
20127W        W20992  18.214  19.791  17.001
20128W        W20993  16.181  21.498  16.754
20129W        W20994  17.955  20.964  15.192
20130W        W20995  15.084  21.750  14.946
20131W        W20996  15.477  21.796  15.622
20132W        W20997  15.274  18.550  17.048
20133W        W20998  17.897  19.568  17.323
20134W        W20999  17.302  19.990  15.782
20135W        W21000  17.268  19.678  14.809
20136W        W21001  16.476  20.822  16.949
20137W        W21002  16.282  19.152  16.148
20138W        W21003  16.882  21.239  17.142
20139W        W21004  17.753  20.030  15.564
20140W        W21005  16.655  18.688  15.580
20141W        W21006  15.312  21.382  15.263
20142W        W21007  14.683  18.881  15.862
20143W        W21008  17.469  19.488  16.336
20144W        W21009  14.927  21.105  16.251
20145W        W21010  16.268  21.455  15.121
20146W        W21011  17.660  19.481  14.585
20147W        W21012  14.683  21.239  16.749
20148W        W21013  15.474  20.811  17.229
20149W        W21014  15.847  20.171  15.848
20150W        W21015  15.869  18.576  16.941
20151W        W21016  18.098  18.338  16.238
20152W        W21017  15.317  20.210  14.706
20153W        W21018  14.972  19.243  14.885
20154W        W21019  15.034  21.199  15.679
20155W        W21020  16.165  20.682  15.927
20156W        W21021  17.497  21.541  17.641
20157W        W21022  16.423  19.183  15.325
20158W        W21023  17.806  21.581  16.097
20159W        W21024  17.483  19.434  17.695
20160W        W21025  18.196  21.090  15.829
20161W        W21026  16.823  20.382  17.313
20162W        W21027  14.589  19.933  15.519
20163W        W21028  15.700  20.348  17.092
20164W        W21029  16.904  19.612  15.470
20165W        W21030  16.781  20.102  15.574
20166W        W21031  15.124  19.522  17.048
20167W        W21032  15.109  19.398  17.970
20168W        W21033  14.999  18.315  16.129
20169W        W21034  16.767  18.662  16.690
20170W        W21035  16.415  18.847  17.853
20171W        W21036  16.770  18.996  15.031
20172W        W21037  17.953  21.389  17.785
20173W        W21038  16.920  18.470  17.824
20174W        W21039  17.939  20.771  17.946
20175W        W21040  17.369  18.938  17.542
20176W        W21041  17.169  18.876  15.812
20177W        W21042  17.562  20.010  18.216
20178W        W21043  15.302  21.586  16.202
20179W        W21044  15.960  19.303  15.188
20180W        W21045  15.529  18.587  17.852
20181W        W21046  17.581  19.071  15.533
20182W        W21047  17.948  19.553  15.478
20183W        W21048  15.691  21.770  17.949
20184W        W21049  15.617  18.306  15.184
20185W        W21050  17.938  18.840  16.219
20186W        W21051  18.088  21.089  14.664
20187W        W21052  14.995  20.292  16.366
20188W        W21053  16.912  18.879  14.596
20189W        W21054  18.046  21.211  16.316
20190W        W21055  18.085  18.405  17.066
20191W        W21056  16.530  19.617  17.620
20192W        W21057  16.623  20.956  15.323
20193W        W21058  17.023  20.250  18.063
20194W        W21059  16.697  18.227  16.372
20195W        W21060  15.309  19.130  16.435
20196W        W21061  14.863  20.330  17.209
20197W        W21062  16.722  21.523  15.915
20198W        W21063  17.916  19.120  16.787
20199W        W21064  16.553  21.467  17.554
20200W        W21065  17.896  20.526  14.759
20201W        W21066  16.331  20.009  15.820
20202W        W21067  18.183  18.520  17.561
20203W        W21068  16.332  20.355  17.155
20204W        W21069  16.549  19.241  16.600
20205W        W21070  17.401  19.539  15.438
20206W        W21071  17.688  19.272  15.080
20207W        W21072  17.497  21.312  15.469
20208W        W21073  17.331  20.915  16.265
20209W        W21074  17.227  19.994  15.243
20210W        W21075  16.660  20.204  16.229
20211W        W21076  17.541  19.992  16.296
20212W        W21077  14.916  19.007  16.720
20213W        W21078  17.694  20.059  17.547
20214W        W21079  18.045  21.677  16.693
20215W        W21080  15.975  21.121  16.095
20216W        W21081  16.982  21.654  17.419
20217W        W21082  16.976  18.984  17.183
20218W        W21083  16.183  21.692  17.244
20219W        W21084  17.880  18.646  15.710
20220W        W21085  17.671  19.965  17.011
20221W        W21086  14.654  19.286  17.049
20222W        W21087  17.514  19.081  16.067
20223W        W21088  17.925  19.232  17.844
20224W        W21089  16.810  20.931  16.062
20225W        W21090  16.066  21.522  15.675
20226W        W21091  15.181  18.702  14.933
20227W        W21092  16.285  18.356  16.743
20228W        W21093  15.313  21.476  14.591
20229W        W21094  15.687  19.942  15.342
20230W        W21095  16.341  20.571  17.655
20231W        W21096  16.171  18.929  15.645
20232W        W21097  17.527  18.526  16.073
20233W        W21098  17.247  21.808  16.401
20234W        W21099  16.659  21.456  16.741
20235W        W21100  16.055  20.493  16.702
20236W        W21101  17.825  21.216  16.828
20237W        W21102  15.519  18.719  15.597
20238W        W21103  16.041  21.016  16.557
20239W        W21104  15.524  18.947  14.622
20240W        W21105  16.325  19.556  17.016
20241W        W21106  17.173  18.422  16.886
20242W        W21107  14.593  20.265  16.771
20243W        W21108  16.297  20.083  14.929
20244W        W21109  15.565  18.398  14.699
20245W        W21110  16.303  19.479  15.750
20246W        W21111  17.273  18.455  17.449
20247W        W21112  15.861  20.467  17.558
20248W        W21113  16.665  20.249  17.775
20249W        W21114  17.282  20.279  17.668
20250W        W21115  16.566  18.419  18.173
20251W        W21116  15.788  19.035  16.566
20252W        W21117  15.214  18.991  15.964
20253W        W21118  15.000  21.703  15.640
20254W        W21119  16.332  21.033  17.765
20255W        W21120  15.367  20.518  15.124
20256W        W21121  17.047  19.903  16.345
20257W        W21122  17.327  19.702  16.744
20258W        W21123  16.532  20.376  16.678
20259W        W21124  17.002  20.750  14.810
20260W        W21125  16.674  18.771  16.138
20261W        W21126  18.153  19.049  15.406
20262W        W21127  14.647  21.638  17.437
20263W        W21128  15.064  20.864  16.969
20264W        W21129  14.631  21.710  15.201
20265W        W21130  16.530  18.980  17.007
20266W        W21131  15.893  21.003  14.856
20267W        W21132  17.798  21.385  15.042
20268W        W21133  16.773  20.038  15.056
20269W        W21134  15.616  19.229  15.573
20270W        W21135  16.448  19.139  14.625
20271W        W21136  17.032  20.704  17.803
20272W        W21137  17.385  18.610  15.420
20273W        W21138  14.715  18.458  14.868
20274W        W21139  16.001  20.777  17.158
20275W        W21140  15.800  20.693  16.250
20276W        W21141  15.542  20.645  14.648
20277W        W21142  14.783  20.886  15.416
20278W        W21143  15.287  19.956  17.858
20279W        W21144  15.991  18.516  18.044
20280W        W21145  16.700  18.658  17.400
20281W        W21146  15.895  18.426  15.681
20282W        W21147  16.954  18.503  15.186
20283W        W21148  14.899  18.435  16.763
20284W        W21149  14.947  19.398  16.133
20285W        W21150  17.636  18.506  16.539
20286W        W21151  15.058  19.004  15.353
20287W        W21152  17.629  18.692  16.969
20288W        W21153  18.025  19.895  14.654
20289W        W21154  15.317  18.653  16.473
20290W        W21155  16.431  19.225  17.413
20291W        W21156  14.579  18.915  14.891
20292W        W21157  15.365  20.304  17.452
20293W        W21158  16.723  19.702  16.631
20294W        W21159  16.590  21.781  14.927
20295W        W21160  14.736  20.288  14.624
20296W        W21161  15.471  20.699  17.750
20297W        W21162  14.992  19.866  17.381
20298W        W21163  15.983  19.971  17.175
20299W        W21164  17.751  18.330  17.437
20300W        W21165  18.149  19.940  17.428
20301W        W21166  18.137  20.140  15.114
20302W        W21167  17.000  20.472  15.213
20303W        W21168  17.474  21.772  14.908
20304W        W21169  16.651  19.762  18.050
20305W        W21170  14.981  20.729  18.090
20306W        W21171  18.187  18.651  18.042
20307W        W21172  17.905  19.579  16.663
20308W        W21173  16.213  21.709  18.140
20309W        W21174  16.068  18.338  14.867
20310W        W21175  17.607  20.937  14.810
20311W        W21176  15.376  19.030  17.696
20312W        W21177  15.810  21.024  17.558
20313W        W21178  17.936  19.015  17.356
20314W        W21179  17.147  21.674  15.324
20315W        W21180  17.386  20.293  16.691
20316W        W21181  15.636  18.709  17.358
20317W        W21182  16.105  19.778  18.115
20318W        W21183  15.608  20.957  15.309
20319W        W21184  17.363  20.455  15.573
20320W        W21185  15.131  19.081  17.297
20321W        W21186  16.460  21.143  15.761
20322W        W21187  18.210  19.703  15.942
20323W        W21188  16.432  18.336  17.661
20324W        W21189  17.212  21.041  16.740
20325W        W21190  17.515  21.385  16.448
20326W        W21191  16.734  21.187  14.876
20327W        W21192  14.744  21.079  17.718
20328W        W21193  15.487  19.071  16.956
20329W        W21194  15.457  18.419  16.066
20330W        W21195  17.078  19.261  16.758
20331W        W21196  15.876  20.432  14.958
20332W        W21197  17.874  20.374  16.457
20333W        W21198  15.201  21.132  17.880
20334W        W21199  17.588  21.814  15.677
20335W        W21200  15.687  18.834  16.122
20336W        W21201  15.456  20.327  16.212
20337W        W21202  15.769  21.738  16.962
20338W        W21203  17.836  21.834  17.994
20339W        W21204  16.995  20.022  16.927
20340W        W21205  14.844  19.820  14.842
20341W        W21206  17.978  21.478  15.539
20342W        W21207  17.815  18.802  15.158
20343W        W21208  15.954  18.321  17.561
20344W        W21209  17.660  21.123  16.019
20345W        W21210  17.689  19.679  15.924
20346W        W21211  15.806  19.352  16.140
20347W        W21212  16.051  19.614  17.464
20348W        W21213  17.162  20.767  17.327
20349W        W21214  15.812  19.221  17.439
20350W        W21215  15.791  21.687  16.055
20351W        W21216  15.108  21.646  17.689
20352W        W21217  15.220  21.007  14.819
20353W        W21218  17.737  20.765  15.629
20354W        W21219  15.341  19.557  17.515
20355W        W21220  18.114  19.487  14.996
20356W        W21221  15.859  20.544  15.467
20357W        W21222  16.958  19.926  17.548
20358W        W21223  16.849  19.554  17.092
20359W        W21224  15.409  19.926  17.121
20360W        W21225  17.619  21.814  16.950
20361W        W21226  17.410  18.448  17.944
20362W        W21227  15.074  18.598  17.531
20363W        W21228  15.413  19.621  16.584
20364W        W21229  15.782  19.435  14.706
20365W        W21230  14.585  21.194  17.251
20366W        W21231  16.170  19.903  16.694
20367W        W21232  15.993  18.928  14.799
20368W        W21233  15.128  19.744  15.580
20369W        W21234  14.899  21.596  17.017
20370W        W21235  17.694  19.822  15.125
20371W        W21236  17.789  18.738  17.811
20372W        W21237  17.225  20.947  15.774
20373W        W21238  14.823  19.871  17.951
20374W        W21239  17.789  18.335  15.247
20375W        W21240  17.309  20.810  15.258
20376W        W21241  16.211  19.868  15.343
20377W        W21242  17.398  18.672  14.866
20378W        W21243  17.463  19.279  17.052
20379W        W21244  15.172  19.872  16.259
20380W        W21245  15.466  20.811  15.908
20381W        W21246  17.229  19.431  15.873
20382W        W21247  16.252  18.810  16.569
20383W        W21248  18.214  20.721  17.080
20384W        W21249  18.132  18.708  16.641
20385W        W21250  14.671  21.538  16.017
20386W        W21251  15.180  20.725  15.553
20387W        W21252  15.095  18.342  18.106
20388W        W21253  16.214  21.195  18.208
20389W        W21254  17.969  20.163  15.998
20390W        W21255  17.323  20.340  14.878
20391W        W21256  16.618  21.861  17.090
20392W        W21257  17.475  20.583  18.127
20393W        W21258  16.290  18.293  15.407
20394W        W21259  17.003  19.162  16.266
20395W        W21260  14.689  20.749  16.598
20396W        W21261  15.942  18.711  15.239
20397W        W21262  15.746  20.195  18.088
20398W        W21263  16.740  19.176  15.802
20399W        W21264  16.945  20.586  16.924
20400W        W21265  15.099  21.191  17.359
20401W        W21266  15.690  21.174  18.082
20402W        W21267  15.541  18.971  15.096
20403W        W21268  17.058  19.113  15.421
20404W        W21269  17.016  21.221  17.658
20405W        W21270  15.701  19.813  16.257
20406W        W21271  15.356  21.511  17.122
20407W        W21272  18.101  21.628  14.723
20408W        W21273  14.964  20.300  17.719
20409W        W21274  16.959  20.562  16.407
20410W        W21275  15.395  20.211  15.649
20411W        W21276  15.766  21.218  17.044
20412W        W21277  16.144  18.637  16.085
20413W        W21278  14.755  20.621  15.015
20414W        W21279  16.274  19.572  14.885
20415W        W21280  14.920  20.121  15.904
20416W        W21281  16.210  18.763  17.368
20417W        W21282  17.882  18.472  14.795
20418W        W21283  17.975  20.218  17.894
20419W        W21284  16.629  21.475  18.046
20420W        W21285  18.187  20.569  17.568
20421W        W21286  17.595  21.367  18.179
20422W        W21287  15.334  21.823  16.657
20423W        W21288  18.193  20.445  15.531
20424W        W21289  16.723  19.712  16.044
20425W        W21290  16.490  18.324  15.934
20426W        W21291  15.549  21.308  15.771
20427W        W21292  16.048  19.049  16.996
20428W        W21293  15.748  18.418  16.465
20429W        W21294  14.811  21.240  15.013
20430W        W21295  16.627  20.604  15.731
20431W        W21296  15.502  21.399  17.610
20432W        W21297  14.979  20.222  15.306
20433W        W21298  14.864  18.765  16.305
20434W        W21299  16.412  20.730  16.362
20435W        W21300  14.664  18.584  15.382
20436W        W21301  17.328  19.790  17.309
20437W        W21302  17.205  19.176  14.881
20438W        W21303  17.722  20.848  16.529
20439W        W21304  16.383  21.332  16.360
20440W        W21305  15.795  21.436  15.271
20441W        W21306  17.077  18.339  14.701
20442W        W21307  14.877  21.599  16.442
20443W        W21308  17.074  19.357  18.077
20444W        W21309  15.057  18.887  18.076
20445W        W21310  14.788  19.487  15.409
20446W        W21311  15.479  19.476  15.134
20447W        W21312  17.242  19.803  17.951
20448W        W21313  15.585  20.084  16.660
20449W        W21314  17.059  18.370  15.780
20450W        W21315  16.190  21.801  16.283
20451W        W21316  17.404  21.263  17.220
20452W        W21317  16.988  21.412  16.331
20453W        W21318  17.007  20.392  15.925
20454W        W21319  16.469  18.617  14.996
20455W        W21320  18.150  18.245  15.718
20456W        W21321  15.838  19.880  14.881
20457W        W21322  18.004  19.217  15.871
20458W        W21323  16.696  20.387  14.748
20459W        W21324  17.632  20.587  17.496
20460W        W21325  17.286  21.288  14.963
20461W        W21326  15.901  18.963  17.869
20462W        W21327  15.721  19.547  17.110
20463W        W21328  17.813  21.042  17.387
20464W        W21329  16.913  18.992  17.764
20465W        W21330  14.757  19.463  17.541
20466W        W21331  16.517  19.940  17.267
20467W        W21332  14.874  20.698  15.924
20468W        W21333  15.021  19.995  16.814
20469W        W21334  17.338  20.281  17.164
20470W        W21335  17.110  21.661  17.975
20471W        W21336  17.006  19.400  17.528
20472W        W21337  17.283  21.454  15.933
20473W        W21338  16.285  21.174  17.256
20474W        W21339  15.770  21.529  16.525
20475W        W21340  17.575  20.700  16.944
20476W        W21341  16.625  20.772  18.081
20477W        W21342  15.230  20.725  16.420
20478W        W21343  17.576  20.484  16.065
20479W        W21344  17.217  21.550  16.816
20480W        W21345  15.195  21.279  16.686
20481W        W21346  16.216  19.331  17.896
20482W        W21347  16.667  21.497  15.407
20483W        W21348  15.975  20.752  18.045
20484W        W21349  16.101  20.990  15.422
20485W        W21350  15.322  19.730  14.681
20486W        W21351  14.661  21.816  21.580
20487W        W21352  15.037  20.709  21.103
20488W        W21353  17.742  20.439  18.873
20489W        W21354  17.872  21.524  20.900
20490W        W21355  15.790  21.515  18.426
20491W        W21356  15.873  19.667  19.409
20492W        W21357  15.388  19.515  19.573
20493W        W21358  16.379  20.330  19.007
20494W        W21359  16.054  21.422  21.362
20495W        W21360  14.703  18.983  21.325
20496W        W21361  15.465  18.263  21.127
20497W        W21362  17.159  18.651  20.014
20498W        W21363  16.808  19.522  18.584
20499W        W21364  17.378  18.956  21.675
20500W        W21365  14.744  18.748  20.800
20501W        W21366  14.843  21.367  21.821
20502W        W21367  16.365  20.757  18.553
20503W        W21368  14.797  19.540  20.246
20504W        W21369  15.690  19.431  21.483
20505W        W21370  18.149  19.290  19.982
20506W        W21371  17.913  20.333  20.841
20507W        W21372  16.221  19.666  19.868
20508W        W21373  16.767  21.005  20.237
20509W        W21374  15.267  20.439  20.469
20510W        W21375  14.626  19.967  20.040
20511W        W21376  15.662  19.939  21.232
20512W        W21377  17.933  19.722  21.486
20513W        W21378  15.549  21.166  19.931
20514W        W21379  16.670  20.855  21.065
20515W        W21380  15.890  19.495  20.290
20516W        W21381  16.182  20.279  19.933
20517W        W21382  17.179  21.052  21.781
20518W        W21383  16.258  20.372  21.791
20519W        W21384  16.239  20.088  21.269
20520W        W21385  14.648  19.479  21.791
20521W        W21386  17.480  21.014  21.390
20522W        W21387  15.061  18.596  19.388
20523W        W21388  15.588  20.854  20.387
20524W        W21389  18.051  20.637  19.677
20525W        W21390  17.464  19.037  20.244
20526W        W21391  17.749  18.990  18.339
20527W        W21392  18.214  19.791  20.645
20528W        W21393  16.181  21.498  20.398
20529W        W21394  17.955  20.964  18.836
20530W        W21395  15.084  21.750  18.590
20531W        W21396  15.477  21.796  19.266
20532W        W21397  15.274  18.550  20.692
20533W        W21398  17.897  19.568  20.967
20534W        W21399  17.302  19.990  19.426
20535W        W21400  17.268  19.678  18.453
20536W        W21401  16.476  20.822  20.593
20537W        W21402  16.282  19.152  19.792
20538W        W21403  16.882  21.239  20.786
20539W        W21404  17.753  20.030  19.208
20540W        W21405  16.655  18.688  19.224
20541W        W21406  15.312  21.382  18.907
20542W        W21407  14.683  18.881  19.506
20543W        W21408  17.469  19.488  19.980
20544W        W21409  14.927  21.105  19.895
20545W        W21410  16.268  21.455  18.765
20546W        W21411  17.660  19.481  18.229
20547W        W21412  14.683  21.239  20.393
20548W        W21413  15.474  20.811  20.873
20549W        W21414  15.847  20.171  19.492
20550W        W21415  15.869  18.576  20.585
20551W        W21416  18.098  18.338  19.882
20552W        W21417  15.317  20.210  18.350
20553W        W21418  14.972  19.243  18.529
20554W        W21419  15.034  21.199  19.323
20555W        W21420  16.165  20.682  19.571
20556W        W21421  17.497  21.541  21.285
20557W        W21422  16.423  19.183  18.969
20558W        W21423  17.806  21.581  19.741
20559W        W21424  17.483  19.434  21.339
20560W        W21425  18.196  21.090  19.473
20561W        W21426  16.823  20.382  20.957
20562W        W21427  14.589  19.933  19.163
20563W        W21428  15.700  20.348  20.736
20564W        W21429  16.904  19.612  19.114
20565W        W21430  16.781  20.102  19.218
20566W        W21431  15.124  19.522  20.692
20567W        W21432  15.109  19.398  21.614
20568W        W21433  14.999  18.315  19.773
20569W        W21434  16.767  18.662  20.334
20570W        W21435  16.415  18.847  21.497
20571W        W21436  16.770  18.996  18.675
20572W        W21437  17.953  21.389  21.429
20573W        W21438  16.920  18.470  21.468
20574W        W21439  17.939  20.771  21.590
20575W        W21440  17.369  18.938  21.186
20576W        W21441  17.169  18.876  19.456
20577W        W21442  17.562  20.010  21.860
20578W        W21443  15.302  21.586  19.846
20579W        W21444  15.960  19.303  18.832
20580W        W21445  15.529  18.587  21.496
20581W        W21446  17.581  19.071  19.177
20582W        W21447  17.948  19.553  19.122
20583W        W21448  15.691  21.770  21.593
20584W        W21449  15.617  18.306  18.828
20585W        W21450  17.938  18.840  19.863
20586W        W21451  18.088  21.089  18.308
20587W        W21452  14.995  20.292  20.010
20588W        W21453  16.912  18.879  18.240
20589W        W21454  18.046  21.211  19.960
20590W        W21455  18.085  18.405  20.710
20591W        W21456  16.530  19.617  21.264
20592W        W21457  16.623  20.956  18.967
20593W        W21458  17.023  20.250  21.707
20594W        W21459  16.697  18.227  20.016
20595W        W21460  15.309  19.130  20.079
20596W        W21461  14.863  20.330  20.853
20597W        W21462  16.722  21.523  19.559
20598W        W21463  17.916  19.120  20.431
20599W        W21464  16.553  21.467  21.198
20600W        W21465  17.896  20.526  18.403
20601W        W21466  16.331  20.009  19.464
20602W        W21467  18.183  18.520  21.205
20603W        W21468  16.332  20.355  20.799
20604W        W21469  16.549  19.241  20.244
20605W        W21470  17.401  19.539  19.082
20606W        W21471  17.688  19.272  18.724
20607W        W21472  17.497  21.312  19.113
20608W        W21473  17.331  20.915  19.909
20609W        W21474  17.227  19.994  18.887
20610W        W21475  16.660  20.204  19.873
20611W        W21476  17.541  19.992  19.940
20612W        W21477  14.916  19.007  20.364
20613W        W21478  17.694  20.059  21.191
20614W        W21479  18.045  21.677  20.337
20615W        W21480  15.975  21.121  19.739
20616W        W21481  16.982  21.654  21.063
20617W        W21482  16.976  18.984  20.827
20618W        W21483  16.183  21.692  20.888
20619W        W21484  17.880  18.646  19.354
20620W        W21485  17.671  19.965  20.655
20621W        W21486  14.654  19.286  20.693
20622W        W21487  17.514  19.081  19.711
20623W        W21488  17.925  19.232  21.488
20624W        W21489  16.810  20.931  19.706
20625W        W21490  16.066  21.522  19.319
20626W        W21491  15.181  18.702  18.577
20627W        W21492  16.285  18.356  20.387
20628W        W21493  15.313  21.476  18.235
20629W        W21494  15.687  19.942  18.986
20630W        W21495  16.341  20.571  21.299
20631W        W21496  16.171  18.929  19.289
20632W        W21497  17.527  18.526  19.717
20633W        W21498  17.247  21.808  20.045
20634W        W21499  16.659  21.456  20.385
20635W        W21500  16.055  20.493  20.346
20636W        W21501  17.825  21.216  20.472
20637W        W21502  15.519  18.719  19.241
20638W        W21503  16.041  21.016  20.201
20639W        W21504  15.524  18.947  18.266
20640W        W21505  16.325  19.556  20.660
20641W        W21506  17.173  18.422  20.530
20642W        W21507  14.593  20.265  20.415
20643W        W21508  16.297  20.083  18.573
20644W        W21509  15.565  18.398  18.343
20645W        W21510  16.303  19.479  19.394
20646W        W21511  17.273  18.455  21.093
20647W        W21512  15.861  20.467  21.202
20648W        W21513  16.665  20.249  21.419
20649W        W21514  17.282  20.279  21.312
20650W        W21515  16.566  18.419  21.817
20651W        W21516  15.788  19.035  20.210
20652W        W21517  15.214  18.991  19.608
20653W        W21518  15.000  21.703  19.284
20654W        W21519  16.332  21.033  21.409
20655W        W21520  15.367  20.518  18.768
20656W        W21521  17.047  19.903  19.989
20657W        W21522  17.327  19.702  20.388
20658W        W21523  16.532  20.376  20.322
20659W        W21524  17.002  20.750  18.454
20660W        W21525  16.674  18.771  19.782
20661W        W21526  18.153  19.049  19.050
20662W        W21527  14.647  21.638  21.081
20663W        W21528  15.064  20.864  20.613
20664W        W21529  14.631  21.710  18.845
20665W        W21530  16.530  18.980  20.651
20666W        W21531  15.893  21.003  18.500
20667W        W21532  17.798  21.385  18.686
20668W        W21533  16.773  20.038  18.700
20669W        W21534  15.616  19.229  19.217
20670W        W21535  16.448  19.139  18.269
20671W        W21536  17.032  20.704  21.447
20672W        W21537  17.385  18.610  19.064
20673W        W21538  14.715  18.458  18.512
20674W        W21539  16.001  20.777  20.802
20675W        W21540  15.800  20.693  19.894
20676W        W21541  15.542  20.645  18.292
20677W        W21542  14.783  20.886  19.060
20678W        W21543  15.287  19.956  21.502
20679W        W21544  15.991  18.516  21.688
20680W        W21545  16.700  18.658  21.044
20681W        W21546  15.895  18.426  19.325
20682W        W21547  16.954  18.503  18.830
20683W        W21548  14.899  18.435  20.407
20684W        W21549  14.947  19.398  19.777
20685W        W21550  17.636  18.506  20.183
20686W        W21551  15.058  19.004  18.997
20687W        W21552  17.629  18.692  20.613
20688W        W21553  18.025  19.895  18.298
20689W        W21554  15.317  18.653  20.117
20690W        W21555  16.431  19.225  21.057
20691W        W21556  14.579  18.915  18.535
20692W        W21557  15.365  20.304  21.096
20693W        W21558  16.723  19.702  20.275
20694W        W21559  16.590  21.781  18.571
20695W        W21560  14.736  20.288  18.268
20696W        W21561  15.471  20.699  21.394
20697W        W21562  14.992  19.866  21.025
20698W        W21563  15.983  19.971  20.819
20699W        W21564  17.751  18.330  21.081
20700W        W21565  18.149  19.940  21.072
20701W        W21566  18.137  20.140  18.758
20702W        W21567  17.000  20.472  18.857
20703W        W21568  17.474  21.772  18.552
20704W        W21569  16.651  19.762  21.694
20705W        W21570  14.981  20.729  21.734
20706W        W21571  18.187  18.651  21.686
20707W        W21572  17.905  19.579  20.307
20708W        W21573  16.213  21.709  21.784
20709W        W21574  16.068  18.338  18.511
20710W        W21575  17.607  20.937  18.454
20711W        W21576  15.376  19.030  21.340
20712W        W21577  15.810  21.024  21.202
20713W        W21578  17.936  19.015  21.000
20714W        W21579  17.147  21.674  18.968
20715W        W21580  17.386  20.293  20.335
20716W        W21581  15.636  18.709  21.002
20717W        W21582  16.105  19.778  21.759
20718W        W21583  15.608  20.957  18.953
20719W        W21584  17.363  20.455  19.217
20720W        W21585  15.131  19.081  20.941
20721W        W21586  16.460  21.143  19.405
20722W        W21587  18.210  19.703  19.586
20723W        W21588  16.432  18.336  21.305
20724W        W21589  17.212  21.041  20.384
20725W        W21590  17.515  21.385  20.092
20726W        W21591  16.734  21.187  18.520
20727W        W21592  14.744  21.079  21.362
20728W        W21593  15.487  19.071  20.600
20729W        W21594  15.457  18.419  19.710
20730W        W21595  17.078  19.261  20.402
20731W        W21596  15.876  20.432  18.602
20732W        W21597  17.874  20.374  20.101
20733W        W21598  15.201  21.132  21.524
20734W        W21599  17.588  21.814  19.321
20735W        W21600  15.687  18.834  19.766
20736W        W21601  15.456  20.327  19.856
20737W        W21602  15.769  21.738  20.606
20738W        W21603  17.836  21.834  21.638
20739W        W21604  16.995  20.022  20.571
20740W        W21605  14.844  19.820  18.486
20741W        W21606  17.978  21.478  19.183
20742W        W21607  17.815  18.802  18.802
20743W        W21608  15.954  18.321  21.205
20744W        W21609  17.660  21.123  19.663
20745W        W21610  17.689  19.679  19.568
20746W        W21611  15.806  19.352  19.784
20747W        W21612  16.051  19.614  21.108
20748W        W21613  17.162  20.767  20.971
20749W        W21614  15.812  19.221  21.083
20750W        W21615  15.791  21.687  19.699
20751W        W21616  15.108  21.646  21.333
20752W        W21617  15.220  21.007  18.463
20753W        W21618  17.737  20.765  19.273
20754W        W21619  15.341  19.557  21.159
20755W        W21620  18.114  19.487  18.640
20756W        W21621  15.859  20.544  19.111
20757W        W21622  16.958  19.926  21.192
20758W        W21623  16.849  19.554  20.736
20759W        W21624  15.409  19.926  20.765
20760W        W21625  17.619  21.814  20.594
20761W        W21626  17.410  18.448  21.588
20762W        W21627  15.074  18.598  21.175
20763W        W21628  15.413  19.621  20.228
20764W        W21629  15.782  19.435  18.350
20765W        W21630  14.585  21.194  20.895
20766W        W21631  16.170  19.903  20.338
20767W        W21632  15.993  18.928  18.443
20768W        W21633  15.128  19.744  19.224
20769W        W21634  14.899  21.596  20.661
20770W        W21635  17.694  19.822  18.769
20771W        W21636  17.789  18.738  21.455
20772W        W21637  17.225  20.947  19.418
20773W        W21638  14.823  19.871  21.595
20774W        W21639  17.789  18.335  18.891
20775W        W21640  17.309  20.810  18.902
20776W        W21641  16.211  19.868  18.987
20777W        W21642  17.398  18.672  18.510
20778W        W21643  17.463  19.279  20.696
20779W        W21644  15.172  19.872  19.903
20780W        W21645  15.466  20.811  19.552
20781W        W21646  17.229  19.431  19.517
20782W        W21647  16.252  18.810  20.213
20783W        W21648  18.214  20.721  20.724
20784W        W21649  18.132  18.708  20.285
20785W        W21650  14.671  21.538  19.661
20786W        W21651  15.180  20.725  19.197
20787W        W21652  15.095  18.342  21.750
20788W        W21653  16.214  21.195  21.852
20789W        W21654  17.969  20.163  19.642
20790W        W21655  17.323  20.340  18.522
20791W        W21656  16.618  21.861  20.734
20792W        W21657  17.475  20.583  21.771
20793W        W21658  16.290  18.293  19.051
20794W        W21659  17.003  19.162  19.910
20795W        W21660  14.689  20.749  20.242
20796W        W21661  15.942  18.711  18.883
20797W        W21662  15.746  20.195  21.732
20798W        W21663  16.740  19.176  19.446
20799W        W21664  16.945  20.586  20.568
20800W        W21665  15.099  21.191  21.003
20801W        W21666  15.690  21.174  21.726
20802W        W21667  15.541  18.971  18.740
20803W        W21668  17.058  19.113  19.065
20804W        W21669  17.016  21.221  21.302
20805W        W21670  15.701  19.813  19.901
20806W        W21671  15.356  21.511  20.766
20807W        W21672  18.101  21.628  18.367
20808W        W21673  14.964  20.300  21.363
20809W        W21674  16.959  20.562  20.051
20810W        W21675  15.395  20.211  19.293
20811W        W21676  15.766  21.218  20.688
20812W        W21677  16.144  18.637  19.729
20813W        W21678  14.755  20.621  18.659
20814W        W21679  16.274  19.572  18.529
20815W        W21680  14.920  20.121  19.548
20816W        W21681  16.210  18.763  21.012
20817W        W21682  17.882  18.472  18.439
20818W        W21683  17.975  20.218  21.538
20819W        W21684  16.629  21.475  21.690
20820W        W21685  18.187  20.569  21.212
20821W        W21686  17.595  21.367  21.823
20822W        W21687  15.334  21.823  20.301
20823W        W21688  18.193  20.445  19.175
20824W        W21689  16.723  19.712  19.688
20825W        W21690  16.490  18.324  19.578
20826W        W21691  15.549  21.308  19.415
20827W        W21692  16.048  19.049  20.640
20828W        W21693  15.748  18.418  20.109
20829W        W21694  14.811  21.240  18.657
20830W        W21695  16.627  20.604  19.375
20831W        W21696  15.502  21.399  21.254
20832W        W21697  14.979  20.222  18.950
20833W        W21698  14.864  18.765  19.949
20834W        W21699  16.412  20.730  20.006
20835W        W21700  14.664  18.584  19.026
20836W        W21701  17.328  19.790  20.953
20837W        W21702  17.205  19.176  18.525
20838W        W21703  17.722  20.848  20.173
20839W        W21704  16.383  21.332  20.004
20840W        W21705  15.795  21.436  18.915
20841W        W21706  17.077  18.339  18.345
20842W        W21707  14.877  21.599  20.086
20843W        W21708  17.074  19.357  21.721
20844W        W21709  15.057  18.887  21.720
20845W        W21710  14.788  19.487  19.053
20846W        W21711  15.479  19.476  18.778
20847W        W21712  17.242  19.803  21.595
20848W        W21713  15.585  20.084  20.304
20849W        W21714  17.059  18.370  19.424
20850W        W21715  16.190  21.801  19.927
20851W        W21716  17.404  21.263  20.864
20852W        W21717  16.988  21.412  19.975
20853W        W21718  17.007  20.392  19.569
20854W        W21719  16.469  18.617  18.640
20855W        W21720  18.150  18.245  19.362
20856W        W21721  15.838  19.880  18.525
20857W        W21722  18.004  19.217  19.515
20858W        W21723  16.696  20.387  18.392
20859W        W21724  17.632  20.587  21.140
20860W        W21725  17.286  21.288  18.607
20861W        W21726  15.901  18.963  21.513
20862W        W21727  15.721  19.547  20.754
20863W        W21728  17.813  21.042  21.031
20864W        W21729  16.913  18.992  21.408
20865W        W21730  14.757  19.463  21.185
20866W        W21731  16.517  19.940  20.911
20867W        W21732  14.874  20.698  19.568
20868W        W21733  15.021  19.995  20.458
20869W        W21734  17.338  20.281  20.808
20870W        W21735  17.110  21.661  21.619
20871W        W21736  17.006  19.400  21.172
20872W        W21737  17.283  21.454  19.577
20873W        W21738  16.285  21.174  20.900
20874W        W21739  15.770  21.529  20.169
20875W        W21740  17.575  20.700  20.588
20876W        W21741  16.625  20.772  21.725
20877W        W21742  15.230  20.725  20.064
20878W        W21743  17.576  20.484  19.709
20879W        W21744  17.217  21.550  20.460
20880W        W21745  15.195  21.279  20.330
20881W        W21746  16.216  19.331  21.540
20882W        W21747  16.667  21.497  19.051
20883W        W21748  15.975  20.752  21.689
20884W        W21749  16.101  20.990  19.066
20885W        W21750  15.322  19.730  18.325
20886W        W21751  14.661  21.816  25.225
20887W        W21752  15.037  20.709  24.748
20888W        W21753  17.742  20.439  22.518
20889W        W21754  17.872  21.524  24.545
20890W        W21755  15.790  21.515  22.071
20891W        W21756  15.873  19.667  23.054
20892W        W21757  15.388  19.515  23.218
20893W        W21758  16.379  20.330  22.652
20894W        W21759  16.054  21.422  25.007
20895W        W21760  14.703  18.983  24.970
20896W        W21761  15.465  18.263  24.772
20897W        W21762  17.159  18.651  23.659
20898W        W21763  16.808  19.522  22.229
20899W        W21764  17.378  18.956  25.320
20900W        W21765  14.744  18.748  24.445
20901W        W21766  14.843  21.367  25.466
20902W        W21767  16.365  20.757  22.198
20903W        W21768  14.797  19.540  23.891
20904W        W21769  15.690  19.431  25.128
20905W        W21770  18.149  19.290  23.627
20906W        W21771  17.913  20.333  24.486
20907W        W21772  16.221  19.666  23.513
20908W        W21773  16.767  21.005  23.882
20909W        W21774  15.267  20.439  24.114
20910W        W21775  14.626  19.967  23.685
20911W        W21776  15.662  19.939  24.877
20912W        W21777  17.933  19.722  25.131
20913W        W21778  15.549  21.166  23.576
20914W        W21779  16.670  20.855  24.710
20915W        W21780  15.890  19.495  23.935
20916W        W21781  16.182  20.279  23.578
20917W        W21782  17.179  21.052  25.426
20918W        W21783  16.258  20.372  25.436
20919W        W21784  16.239  20.088  24.914
20920W        W21785  14.648  19.479  25.436
20921W        W21786  17.480  21.014  25.035
20922W        W21787  15.061  18.596  23.033
20923W        W21788  15.588  20.854  24.032
20924W        W21789  18.051  20.637  23.322
20925W        W21790  17.464  19.037  23.889
20926W        W21791  17.749  18.990  21.984
20927W        W21792  18.214  19.791  24.290
20928W        W21793  16.181  21.498  24.043
20929W        W21794  17.955  20.964  22.481
20930W        W21795  15.084  21.750  22.235
20931W        W21796  15.477  21.796  22.911
20932W        W21797  15.274  18.550  24.337
20933W        W21798  17.897  19.568  24.612
20934W        W21799  17.302  19.990  23.071
20935W        W21800  17.268  19.678  22.098
20936W        W21801  16.476  20.822  24.238
20937W        W21802  16.282  19.152  23.437
20938W        W21803  16.882  21.239  24.431
20939W        W21804  17.753  20.030  22.853
20940W        W21805  16.655  18.688  22.869
20941W        W21806  15.312  21.382  22.552
20942W        W21807  14.683  18.881  23.151
20943W        W21808  17.469  19.488  23.625
20944W        W21809  14.927  21.105  23.540
20945W        W21810  16.268  21.455  22.410
20946W        W21811  17.660  19.481  21.874
20947W        W21812  14.683  21.239  24.038
20948W        W21813  15.474  20.811  24.518
20949W        W21814  15.847  20.171  23.137
20950W        W21815  15.869  18.576  24.230
20951W        W21816  18.098  18.338  23.527
20952W        W21817  15.317  20.210  21.995
20953W        W21818  14.972  19.243  22.174
20954W        W21819  15.034  21.199  22.968
20955W        W21820  16.165  20.682  23.216
20956W        W21821  17.497  21.541  24.930
20957W        W21822  16.423  19.183  22.614
20958W        W21823  17.806  21.581  23.386
20959W        W21824  17.483  19.434  24.984
20960W        W21825  18.196  21.090  23.118
20961W        W21826  16.823  20.382  24.602
20962W        W21827  15.700  20.348  24.381
20963W        W21828  16.904  19.612  22.759
20964W        W21829  16.781  20.102  22.863
20965W        W21830  15.124  19.522  24.337
20966W        W21831  15.109  19.398  25.259
20967W        W21832  14.999  18.315  23.418
20968W        W21833  16.767  18.662  23.979
20969W        W21834  16.415  18.847  25.142
20970W        W21835  16.770  18.996  22.320
20971W        W21836  17.953  21.389  25.074
20972W        W21837  16.920  18.470  25.113
20973W        W21838  17.939  20.771  25.235
20974W        W21839  17.369  18.938  24.831
20975W        W21840  17.169  18.876  23.101
20976W        W21841  17.562  20.010  25.505
20977W        W21842  15.302  21.586  23.491
20978W        W21843  15.960  19.303  22.477
20979W        W21844  15.529  18.587  25.141
20980W        W21845  17.581  19.071  22.822
20981W        W21846  17.948  19.553  22.767
20982W        W21847  15.691  21.770  25.238
20983W        W21848  15.617  18.306  22.473
20984W        W21849  17.938  18.840  23.508
20985W        W21850  18.088  21.089  21.953
20986W        W21851  14.995  20.292  23.655
20987W        W21852  16.912  18.879  21.885
20988W        W21853  18.046  21.211  23.605
20989W        W21854  18.085  18.405  24.355
20990W        W21855  16.530  19.617  24.909
20991W        W21856  16.623  20.956  22.612
20992W        W21857  17.023  20.250  25.352
20993W        W21858  16.697  18.227  23.661
20994W        W21859  15.309  19.130  23.724
20995W        W21860  14.863  20.330  24.498
20996W        W21861  16.722  21.523  23.204
20997W        W21862  17.916  19.120  24.076
20998W        W21863  16.553  21.467  24.843
20999W        W21864  17.896  20.526  22.048
21000W        W21865  16.331  20.009  23.109
21001W        W21866  18.183  18.520  24.850
21002W        W21867  16.332  20.355  24.444
21003W        W21868  16.549  19.241  23.889
21004W        W21869  17.401  19.539  22.727
21005W        W21870  17.688  19.272  22.369
21006W        W21871  17.497  21.312  22.758
21007W        W21872  17.331  20.915  23.554
21008W        W21873  17.227  19.994  22.532
21009W        W21874  16.660  20.204  23.518
21010W        W21875  17.541  19.992  23.585
21011W        W21876  14.916  19.007  24.009
21012W        W21877  17.694  20.059  24.836
21013W        W21878  18.045  21.677  23.982
21014W        W21879  15.975  21.121  23.384
21015W        W21880  16.982  21.654  24.708
21016W        W21881  16.976  18.984  24.472
21017W        W21882  16.183  21.692  24.533
21018W        W21883  17.880  18.646  22.999
21019W        W21884  17.671  19.965  24.300
21020W        W21885  14.654  19.286  24.338
21021W        W21886  17.514  19.081  23.356
21022W        W21887  17.925  19.232  25.133
21023W        W21888  16.810  20.931  23.351
21024W        W21889  16.066  21.522  22.964
21025W        W21890  15.181  18.702  22.222
21026W        W21891  16.285  18.356  24.032
21027W        W21892  15.313  21.476  21.880
21028W        W21893  15.687  19.942  22.631
21029W        W21894  16.341  20.571  24.944
21030W        W21895  16.171  18.929  22.934
21031W        W21896  17.527  18.526  23.362
21032W        W21897  17.247  21.808  23.690
21033W        W21898  16.659  21.456  24.030
21034W        W21899  16.055  20.493  23.991
21035W        W21900  17.825  21.216  24.117
21036W        W21901  15.519  18.719  22.886
21037W        W21902  16.041  21.016  23.846
21038W        W21903  15.524  18.947  21.911
21039W        W21904  16.325  19.556  24.305
21040W        W21905  17.173  18.422  24.175
21041W        W21906  14.593  20.265  24.060
21042W        W21907  16.297  20.083  22.218
21043W        W21908  15.565  18.398  21.988
21044W        W21909  16.303  19.479  23.039
21045W        W21910  17.273  18.455  24.738
21046W        W21911  15.861  20.467  24.847
21047W        W21912  16.665  20.249  25.064
21048W        W21913  17.282  20.279  24.957
21049W        W21914  16.566  18.419  25.462
21050W        W21915  15.788  19.035  23.855
21051W        W21916  15.214  18.991  23.253
21052W        W21917  15.000  21.703  22.929
21053W        W21918  16.332  21.033  25.054
21054W        W21919  15.367  20.518  22.413
21055W        W21920  17.047  19.903  23.634
21056W        W21921  17.327  19.702  24.033
21057W        W21922  16.532  20.376  23.967
21058W        W21923  17.002  20.750  22.099
21059W        W21924  16.674  18.771  23.427
21060W        W21925  18.153  19.049  22.695
21061W        W21926  14.647  21.638  24.726
21062W        W21927  15.064  20.864  24.258
21063W        W21928  14.631  21.710  22.490
21064W        W21929  16.530  18.980  24.296
21065W        W21930  15.893  21.003  22.145
21066W        W21931  17.798  21.385  22.331
21067W        W21932  16.773  20.038  22.345
21068W        W21933  15.616  19.229  22.862
21069W        W21934  16.448  19.139  21.914
21070W        W21935  17.032  20.704  25.092
21071W        W21936  17.385  18.610  22.709
21072W        W21937  14.715  18.458  22.157
21073W        W21938  16.001  20.777  24.447
21074W        W21939  15.800  20.693  23.539
21075W        W21940  15.542  20.645  21.937
21076W        W21941  14.783  20.886  22.705
21077W        W21942  15.287  19.956  25.147
21078W        W21943  15.991  18.516  25.333
21079W        W21944  16.700  18.658  24.689
21080W        W21945  15.895  18.426  22.970
21081W        W21946  16.954  18.503  22.475
21082W        W21947  14.899  18.435  24.052
21083W        W21948  14.947  19.398  23.422
21084W        W21949  17.636  18.506  23.828
21085W        W21950  15.058  19.004  22.642
21086W        W21951  17.629  18.692  24.258
21087W        W21952  18.025  19.895  21.943
21088W        W21953  15.317  18.653  23.762
21089W        W21954  16.431  19.225  24.702
21090W        W21955  14.579  18.915  22.180
21091W        W21956  15.365  20.304  24.741
21092W        W21957  16.723  19.702  23.920
21093W        W21958  16.590  21.781  22.216
21094W        W21959  14.736  20.288  21.913
21095W        W21960  15.471  20.699  25.039
21096W        W21961  14.992  19.866  24.670
21097W        W21962  15.983  19.971  24.464
21098W        W21963  17.751  18.330  24.726
21099W        W21964  18.149  19.940  24.717
21100W        W21965  18.137  20.140  22.403
21101W        W21966  17.000  20.472  22.502
21102W        W21967  17.474  21.772  22.197
21103W        W21968  16.651  19.762  25.339
21104W        W21969  14.981  20.729  25.379
21105W        W21970  18.187  18.651  25.331
21106W        W21971  17.905  19.579  23.952
21107W        W21972  16.213  21.709  25.429
21108W        W21973  16.068  18.338  22.156
21109W        W21974  17.607  20.937  22.099
21110W        W21975  15.376  19.030  24.985
21111W        W21976  15.810  21.024  24.847
21112W        W21977  17.936  19.015  24.645
21113W        W21978  17.147  21.674  22.613
21114W        W21979  17.386  20.293  23.980
21115W        W21980  15.636  18.709  24.647
21116W        W21981  16.105  19.778  25.404
21117W        W21982  15.608  20.957  22.598
21118W        W21983  17.363  20.455  22.862
21119W        W21984  15.131  19.081  24.586
21120W        W21985  16.460  21.143  23.050
21121W        W21986  18.210  19.703  23.231
21122W        W21987  16.432  18.336  24.950
21123W        W21988  17.212  21.041  24.029
21124W        W21989  17.515  21.385  23.737
21125W        W21990  16.734  21.187  22.165
21126W        W21991  14.744  21.079  25.007
21127W        W21992  15.487  19.071  24.245
21128W        W21993  15.457  18.419  23.355
21129W        W21994  17.078  19.261  24.047
21130W        W21995  15.876  20.432  22.247
21131W        W21996  17.874  20.374  23.746
21132W        W21997  15.201  21.132  25.169
21133W        W21998  17.588  21.814  22.966
21134W        W21999  15.687  18.834  23.411
21135W        W22000  15.456  20.327  23.501
21136W        W22001  15.769  21.738  24.251
21137W        W22002  17.836  21.834  25.283
21138W        W22003  16.995  20.022  24.216
21139W        W22004  14.844  19.820  22.131
21140W        W22005  17.978  21.478  22.828
21141W        W22006  17.815  18.802  22.447
21142W        W22007  15.954  18.321  24.850
21143W        W22008  17.660  21.123  23.308
21144W        W22009  17.689  19.679  23.213
21145W        W22010  15.806  19.352  23.429
21146W        W22011  16.051  19.614  24.753
21147W        W22012  17.162  20.767  24.616
21148W        W22013  15.812  19.221  24.728
21149W        W22014  15.791  21.687  23.344
21150W        W22015  15.108  21.646  24.978
21151W        W22016  15.220  21.007  22.108
21152W        W22017  17.737  20.765  22.918
21153W        W22018  15.341  19.557  24.804
21154W        W22019  18.114  19.487  22.285
21155W        W22020  15.859  20.544  22.756
21156W        W22021  16.958  19.926  24.837
21157W        W22022  16.849  19.554  24.381
21158W        W22023  15.409  19.926  24.410
21159W        W22024  17.619  21.814  24.239
21160W        W22025  17.410  18.448  25.233
21161W        W22026  15.074  18.598  24.820
21162W        W22027  15.413  19.621  23.873
21163W        W22028  15.782  19.435  21.995
21164W        W22029  14.585  21.194  24.540
21165W        W22030  16.170  19.903  23.983
21166W        W22031  15.993  18.928  22.088
21167W        W22032  15.128  19.744  22.869
21168W        W22033  14.899  21.596  24.306
21169W        W22034  17.694  19.822  22.414
21170W        W22035  17.789  18.738  25.100
21171W        W22036  17.225  20.947  23.063
21172W        W22037  14.823  19.871  25.240
21173W        W22038  17.789  18.335  22.536
21174W        W22039  17.309  20.810  22.547
21175W        W22040  16.211  19.868  22.632
21176W        W22041  17.398  18.672  22.155
21177W        W22042  17.463  19.279  24.341
21178W        W22043  15.172  19.872  23.548
21179W        W22044  15.466  20.811  23.197
21180W        W22045  17.229  19.431  23.162
21181W        W22046  16.252  18.810  23.858
21182W        W22047  18.214  20.721  24.369
21183W        W22048  18.132  18.708  23.930
21184W        W22049  14.671  21.538  23.306
21185W        W22050  15.180  20.725  22.842
21186W        W22051  15.095  18.342  25.395
21187W        W22052  16.214  21.195  25.497
21188W        W22053  17.969  20.163  23.287
21189W        W22054  17.323  20.340  22.167
21190W        W22055  16.618  21.861  24.379
21191W        W22056  17.475  20.583  25.416
21192W        W22057  16.290  18.293  22.696
21193W        W22058  17.003  19.162  23.555
21194W        W22059  14.689  20.749  23.887
21195W        W22060  15.942  18.711  22.528
21196W        W22061  15.746  20.195  25.377
21197W        W22062  16.740  19.176  23.091
21198W        W22063  16.945  20.586  24.213
21199W        W22064  15.099  21.191  24.648
21200W        W22065  15.690  21.174  25.371
21201W        W22066  15.541  18.971  22.385
21202W        W22067  17.058  19.113  22.710
21203W        W22068  17.016  21.221  24.947
21204W        W22069  15.701  19.813  23.546
21205W        W22070  15.356  21.511  24.411
21206W        W22071  18.101  21.628  22.012
21207W        W22072  14.964  20.300  25.008
21208W        W22073  16.959  20.562  23.696
21209W        W22074  15.395  20.211  22.938
21210W        W22075  15.766  21.218  24.333
21211W        W22076  16.144  18.637  23.374
21212W        W22077  14.755  20.621  22.304
21213W        W22078  16.274  19.572  22.174
21214W        W22079  14.920  20.121  23.193
21215W        W22080  16.210  18.763  24.657
21216W        W22081  17.882  18.472  22.084
21217W        W22082  17.975  20.218  25.183
21218W        W22083  16.629  21.475  25.335
21219W        W22084  18.187  20.569  24.857
21220W        W22085  17.595  21.367  25.468
21221W        W22086  15.334  21.823  23.946
21222W        W22087  18.193  20.445  22.820
21223W        W22088  16.723  19.712  23.333
21224W        W22089  16.490  18.324  23.223
21225W        W22090  15.549  21.308  23.060
21226W        W22091  16.048  19.049  24.285
21227W        W22092  15.748  18.418  23.754
21228W        W22093  14.811  21.240  22.302
21229W        W22094  16.627  20.604  23.020
21230W        W22095  15.502  21.399  24.899
21231W        W22096  14.864  18.765  23.594
21232W        W22097  16.412  20.730  23.651
21233W        W22098  14.664  18.584  22.671
21234W        W22099  17.328  19.790  24.598
21235W        W22100  17.205  19.176  22.170
21236W        W22101  17.722  20.848  23.818
21237W        W22102  16.383  21.332  23.649
21238W        W22103  15.795  21.436  22.560
21239W        W22104  17.077  18.339  21.990
21240W        W22105  14.877  21.599  23.731
21241W        W22106  17.074  19.357  25.366
21242W        W22107  15.057  18.887  25.365
21243W        W22108  14.788  19.487  22.698
21244W        W22109  15.479  19.476  22.423
21245W        W22110  17.242  19.803  25.240
21246W        W22111  15.585  20.084  23.949
21247W        W22112  17.059  18.370  23.069
21248W        W22113  16.190  21.801  23.572
21249W        W22114  17.404  21.263  24.509
21250W        W22115  16.988  21.412  23.620
21251W        W22116  17.007  20.392  23.214
21252W        W22117  16.469  18.617  22.285
21253W        W22118  18.150  18.245  23.007
21254W        W22119  15.838  19.880  22.170
21255W        W22120  18.004  19.217  23.160
21256W        W22121  16.696  20.387  22.037
21257W        W22122  17.632  20.587  24.785
21258W        W22123  17.286  21.288  22.252
21259W        W22124  15.901  18.963  25.158
21260W        W22125  15.721  19.547  24.399
21261W        W22126  17.813  21.042  24.676
21262W        W22127  16.913  18.992  25.053
21263W        W22128  14.757  19.463  24.830
21264W        W22129  16.517  19.940  24.556
21265W        W22130  14.874  20.698  23.213
21266W        W22131  15.021  19.995  24.103
21267W        W22132  17.338  20.281  24.453
21268W        W22133  17.110  21.661  25.264
21269W        W22134  17.006  19.400  24.817
21270W        W22135  17.283  21.454  23.222
21271W        W22136  16.285  21.174  24.545
21272W        W22137  15.770  21.529  23.814
21273W        W22138  17.575  20.700  24.233
21274W        W22139  16.625  20.772  25.370
21275W        W22140  15.230  20.725  23.709
21276W        W22141  17.576  20.484  23.354
21277W        W22142  17.217  21.550  24.105
21278W        W22143  15.195  21.279  23.975
21279W        W22144  16.216  19.331  25.185
21280W        W22145  16.667  21.497  22.696
21281W        W22146  15.975  20.752  25.334
21282W        W22147  16.101  20.990  22.711
21283W        W22148  15.322  19.730  21.970
21284W        W22149  14.661  21.816  28.869
21285W        W22150  15.037  20.709  28.392
21286W        W22151  17.742  20.439  26.162
21287W        W22152  17.872  21.524  28.189
21288W        W22153  15.790  21.515  25.715
21289W        W22154  15.873  19.667  26.698
21290W        W22155  15.388  19.515  26.862
21291W        W22156  16.379  20.330  26.296
21292W        W22157  16.054  21.422  28.651
21293W        W22158  14.703  18.983  28.614
21294W        W22159  15.465  18.263  28.416
21295W        W22160  17.159  18.651  27.303
21296W        W22161  16.808  19.522  25.873
21297W        W22162  17.378  18.956  28.964
21298W        W22163  14.744  18.748  28.089
21299W        W22164  14.843  21.367  29.110
21300W        W22165  16.365  20.757  25.842
21301W        W22166  14.797  19.540  27.535
21302W        W22167  15.690  19.431  28.772
21303W        W22168  18.149  19.290  27.271
21304W        W22169  17.913  20.333  28.130
21305W        W22170  16.221  19.666  27.157
21306W        W22171  16.767  21.005  27.526
21307W        W22172  15.267  20.439  27.758
21308W        W22173  14.626  19.967  27.329
21309W        W22174  15.662  19.939  28.521
21310W        W22175  17.933  19.722  28.775
21311W        W22176  15.549  21.166  27.220
21312W        W22177  16.670  20.855  28.354
21313W        W22178  15.890  19.495  27.579
21314W        W22179  16.182  20.279  27.222
21315W        W22180  17.179  21.052  29.070
21316W        W22181  16.258  20.372  29.080
21317W        W22182  16.239  20.088  28.558
21318W        W22183  14.648  19.479  29.080
21319W        W22184  17.480  21.014  28.679
21320W        W22185  15.061  18.596  26.677
21321W        W22186  15.588  20.854  27.676
21322W        W22187  18.051  20.637  26.966
21323W        W22188  17.464  19.037  27.533
21324W        W22189  17.749  18.990  25.628
21325W        W22190  18.214  19.791  27.934
21326W        W22191  16.181  21.498  27.687
21327W        W22192  17.955  20.964  26.125
21328W        W22193  15.084  21.750  25.879
21329W        W22194  15.477  21.796  26.555
21330W        W22195  15.274  18.550  27.981
21331W        W22196  17.897  19.568  28.256
21332W        W22197  17.302  19.990  26.715
21333W        W22198  17.268  19.678  25.742
21334W        W22199  16.476  20.822  27.882
21335W        W22200  16.282  19.152  27.081
21336W        W22201  16.882  21.239  28.075
21337W        W22202  17.753  20.030  26.497
21338W        W22203  16.655  18.688  26.513
21339W        W22204  15.312  21.382  26.196
21340W        W22205  14.683  18.881  26.795
21341W        W22206  17.469  19.488  27.269
21342W        W22207  14.927  21.105  27.184
21343W        W22208  16.268  21.455  26.054
21344W        W22209  17.660  19.481  25.518
21345W        W22210  14.683  21.239  27.682
21346W        W22211  15.474  20.811  28.162
21347W        W22212  15.847  20.171  26.781
21348W        W22213  15.869  18.576  27.874
21349W        W22214  18.098  18.338  27.171
21350W        W22215  15.317  20.210  25.639
21351W        W22216  14.972  19.243  25.818
21352W        W22217  15.034  21.199  26.612
21353W        W22218  16.165  20.682  26.860
21354W        W22219  17.497  21.541  28.574
21355W        W22220  16.423  19.183  26.258
21356W        W22221  17.806  21.581  27.030
21357W        W22222  17.483  19.434  28.628
21358W        W22223  18.196  21.090  26.762
21359W        W22224  16.823  20.382  28.246
21360W        W22225  14.589  19.933  26.452
21361W        W22226  15.700  20.348  28.025
21362W        W22227  16.904  19.612  26.403
21363W        W22228  16.781  20.102  26.507
21364W        W22229  15.124  19.522  27.981
21365W        W22230  15.109  19.398  28.903
21366W        W22231  14.999  18.315  27.062
21367W        W22232  16.767  18.662  27.623
21368W        W22233  16.415  18.847  28.786
21369W        W22234  16.770  18.996  25.964
21370W        W22235  17.953  21.389  28.718
21371W        W22236  16.920  18.470  28.757
21372W        W22237  17.939  20.771  28.879
21373W        W22238  17.369  18.938  28.475
21374W        W22239  17.169  18.876  26.745
21375W        W22240  17.562  20.010  29.149
21376W        W22241  15.302  21.586  27.135
21377W        W22242  15.960  19.303  26.121
21378W        W22243  15.529  18.587  28.785
21379W        W22244  17.581  19.071  26.466
21380W        W22245  17.948  19.553  26.411
21381W        W22246  15.691  21.770  28.882
21382W        W22247  15.617  18.306  26.117
21383W        W22248  17.938  18.840  27.152
21384W        W22249  18.088  21.089  25.597
21385W        W22250  14.995  20.292  27.299
21386W        W22251  16.912  18.879  25.529
21387W        W22252  18.046  21.211  27.249
21388W        W22253  18.085  18.405  27.999
21389W        W22254  16.530  19.617  28.553
21390W        W22255  16.623  20.956  26.256
21391W        W22256  17.023  20.250  28.996
21392W        W22257  16.697  18.227  27.305
21393W        W22258  15.309  19.130  27.368
21394W        W22259  14.863  20.330  28.142
21395W        W22260  16.722  21.523  26.848
21396W        W22261  17.916  19.120  27.720
21397W        W22262  16.553  21.467  28.487
21398W        W22263  17.896  20.526  25.692
21399W        W22264  16.331  20.009  26.753
21400W        W22265  18.183  18.520  28.494
21401W        W22266  16.332  20.355  28.088
21402W        W22267  16.549  19.241  27.533
21403W        W22268  17.401  19.539  26.371
21404W        W22269  17.688  19.272  26.013
21405W        W22270  17.497  21.312  26.402
21406W        W22271  17.331  20.915  27.198
21407W        W22272  17.227  19.994  26.176
21408W        W22273  16.660  20.204  27.162
21409W        W22274  17.541  19.992  27.229
21410W        W22275  14.916  19.007  27.653
21411W        W22276  17.694  20.059  28.480
21412W        W22277  18.045  21.677  27.626
21413W        W22278  15.975  21.121  27.028
21414W        W22279  16.982  21.654  28.352
21415W        W22280  16.976  18.984  28.116
21416W        W22281  16.183  21.692  28.177
21417W        W22282  17.880  18.646  26.643
21418W        W22283  17.671  19.965  27.944
21419W        W22284  14.654  19.286  27.982
21420W        W22285  17.514  19.081  27.000
21421W        W22286  17.925  19.232  28.777
21422W        W22287  16.810  20.931  26.995
21423W        W22288  16.066  21.522  26.608
21424W        W22289  15.181  18.702  25.866
21425W        W22290  16.285  18.356  27.676
21426W        W22291  15.313  21.476  25.524
21427W        W22292  15.687  19.942  26.275
21428W        W22293  16.341  20.571  28.588
21429W        W22294  16.171  18.929  26.578
21430W        W22295  17.527  18.526  27.006
21431W        W22296  17.247  21.808  27.334
21432W        W22297  16.659  21.456  27.674
21433W        W22298  16.055  20.493  27.635
21434W        W22299  17.825  21.216  27.761
21435W        W22300  15.519  18.719  26.530
21436W        W22301  16.041  21.016  27.490
21437W        W22302  15.524  18.947  25.555
21438W        W22303  16.325  19.556  27.949
21439W        W22304  17.173  18.422  27.819
21440W        W22305  14.593  20.265  27.704
21441W        W22306  16.297  20.083  25.862
21442W        W22307  15.565  18.398  25.632
21443W        W22308  16.303  19.479  26.683
21444W        W22309  17.273  18.455  28.382
21445W        W22310  15.861  20.467  28.491
21446W        W22311  16.665  20.249  28.708
21447W        W22312  17.282  20.279  28.601
21448W        W22313  16.566  18.419  29.106
21449W        W22314  15.788  19.035  27.499
21450W        W22315  15.214  18.991  26.897
21451W        W22316  15.000  21.703  26.573
21452W        W22317  16.332  21.033  28.698
21453W        W22318  15.367  20.518  26.057
21454W        W22319  17.047  19.903  27.278
21455W        W22320  17.327  19.702  27.677
21456W        W22321  16.532  20.376  27.611
21457W        W22322  17.002  20.750  25.743
21458W        W22323  16.674  18.771  27.071
21459W        W22324  18.153  19.049  26.339
21460W        W22325  14.647  21.638  28.370
21461W        W22326  15.064  20.864  27.902
21462W        W22327  14.631  21.710  26.134
21463W        W22328  16.530  18.980  27.940
21464W        W22329  15.893  21.003  25.789
21465W        W22330  17.798  21.385  25.975
21466W        W22331  16.773  20.038  25.989
21467W        W22332  15.616  19.229  26.506
21468W        W22333  16.448  19.139  25.558
21469W        W22334  17.032  20.704  28.736
21470W        W22335  17.385  18.610  26.353
21471W        W22336  14.715  18.458  25.801
21472W        W22337  16.001  20.777  28.091
21473W        W22338  15.800  20.693  27.183
21474W        W22339  15.542  20.645  25.581
21475W        W22340  14.783  20.886  26.349
21476W        W22341  15.287  19.956  28.791
21477W        W22342  15.991  18.516  28.977
21478W        W22343  16.700  18.658  28.333
21479W        W22344  15.895  18.426  26.614
21480W        W22345  16.954  18.503  26.119
21481W        W22346  14.899  18.435  27.696
21482W        W22347  14.947  19.398  27.066
21483W        W22348  17.636  18.506  27.472
21484W        W22349  15.058  19.004  26.286
21485W        W22350  17.629  18.692  27.902
21486W        W22351  18.025  19.895  25.587
21487W        W22352  15.317  18.653  27.406
21488W        W22353  16.431  19.225  28.346
21489W        W22354  14.579  18.915  25.824
21490W        W22355  15.365  20.304  28.385
21491W        W22356  16.723  19.702  27.564
21492W        W22357  16.590  21.781  25.860
21493W        W22358  14.736  20.288  25.557
21494W        W22359  15.471  20.699  28.683
21495W        W22360  14.992  19.866  28.314
21496W        W22361  15.983  19.971  28.108
21497W        W22362  17.751  18.330  28.370
21498W        W22363  18.149  19.940  28.361
21499W        W22364  18.137  20.140  26.047
21500W        W22365  17.000  20.472  26.146
21501W        W22366  17.474  21.772  25.841
21502W        W22367  16.651  19.762  28.983
21503W        W22368  14.981  20.729  29.023
21504W        W22369  18.187  18.651  28.975
21505W        W22370  17.905  19.579  27.596
21506W        W22371  16.213  21.709  29.073
21507W        W22372  16.068  18.338  25.800
21508W        W22373  17.607  20.937  25.743
21509W        W22374  15.376  19.030  28.629
21510W        W22375  15.810  21.024  28.491
21511W        W22376  17.936  19.015  28.289
21512W        W22377  17.147  21.674  26.257
21513W        W22378  17.386  20.293  27.624
21514W        W22379  15.636  18.709  28.291
21515W        W22380  16.105  19.778  29.048
21516W        W22381  15.608  20.957  26.242
21517W        W22382  17.363  20.455  26.506
21518W        W22383  15.131  19.081  28.230
21519W        W22384  16.460  21.143  26.694
21520W        W22385  18.210  19.703  26.875
21521W        W22386  16.432  18.336  28.594
21522W        W22387  17.212  21.041  27.673
21523W        W22388  17.515  21.385  27.381
21524W        W22389  16.734  21.187  25.809
21525W        W22390  14.744  21.079  28.651
21526W        W22391  15.487  19.071  27.889
21527W        W22392  15.457  18.419  26.999
21528W        W22393  17.078  19.261  27.691
21529W        W22394  15.876  20.432  25.891
21530W        W22395  17.874  20.374  27.390
21531W        W22396  15.201  21.132  28.813
21532W        W22397  17.588  21.814  26.610
21533W        W22398  15.687  18.834  27.055
21534W        W22399  15.456  20.327  27.145
21535W        W22400  15.769  21.738  27.895
21536W        W22401  17.836  21.834  28.927
21537W        W22402  16.995  20.022  27.860
21538W        W22403  14.844  19.820  25.775
21539W        W22404  17.978  21.478  26.472
21540W        W22405  17.815  18.802  26.091
21541W        W22406  15.954  18.321  28.494
21542W        W22407  17.660  21.123  26.952
21543W        W22408  17.689  19.679  26.857
21544W        W22409  15.806  19.352  27.073
21545W        W22410  16.051  19.614  28.397
21546W        W22411  17.162  20.767  28.260
21547W        W22412  15.812  19.221  28.372
21548W        W22413  15.791  21.687  26.988
21549W        W22414  15.108  21.646  28.622
21550W        W22415  15.220  21.007  25.752
21551W        W22416  17.737  20.765  26.562
21552W        W22417  15.341  19.557  28.448
21553W        W22418  18.114  19.487  25.929
21554W        W22419  15.859  20.544  26.400
21555W        W22420  16.958  19.926  28.481
21556W        W22421  16.849  19.554  28.025
21557W        W22422  15.409  19.926  28.054
21558W        W22423  17.619  21.814  27.883
21559W        W22424  17.410  18.448  28.877
21560W        W22425  15.074  18.598  28.464
21561W        W22426  15.413  19.621  27.517
21562W        W22427  15.782  19.435  25.639
21563W        W22428  14.585  21.194  28.184
21564W        W22429  16.170  19.903  27.627
21565W        W22430  15.993  18.928  25.732
21566W        W22431  15.128  19.744  26.513
21567W        W22432  14.899  21.596  27.950
21568W        W22433  17.694  19.822  26.058
21569W        W22434  17.789  18.738  28.744
21570W        W22435  17.225  20.947  26.707
21571W        W22436  14.823  19.871  28.884
21572W        W22437  17.789  18.335  26.180
21573W        W22438  17.309  20.810  26.191
21574W        W22439  16.211  19.868  26.276
21575W        W22440  17.398  18.672  25.799
21576W        W22441  17.463  19.279  27.985
21577W        W22442  15.172  19.872  27.192
21578W        W22443  15.466  20.811  26.841
21579W        W22444  17.229  19.431  26.806
21580W        W22445  16.252  18.810  27.502
21581W        W22446  18.214  20.721  28.013
21582W        W22447  18.132  18.708  27.574
21583W        W22448  14.671  21.538  26.950
21584W        W22449  15.180  20.725  26.486
21585W        W22450  15.095  18.342  29.039
21586W        W22451  16.214  21.195  29.141
21587W        W22452  17.969  20.163  26.931
21588W        W22453  17.323  20.340  25.811
21589W        W22454  16.618  21.861  28.023
21590W        W22455  17.475  20.583  29.060
21591W        W22456  16.290  18.293  26.340
21592W        W22457  17.003  19.162  27.199
21593W        W22458  14.689  20.749  27.531
21594W        W22459  15.942  18.711  26.172
21595W        W22460  15.746  20.195  29.021
21596W        W22461  16.740  19.176  26.735
21597W        W22462  16.945  20.586  27.857
21598W        W22463  15.099  21.191  28.292
21599W        W22464  15.690  21.174  29.015
21600W        W22465  15.541  18.971  26.029
21601W        W22466  17.058  19.113  26.354
21602W        W22467  17.016  21.221  28.591
21603W        W22468  15.701  19.813  27.190
21604W        W22469  15.356  21.511  28.055
21605W        W22470  18.101  21.628  25.656
21606W        W22471  14.964  20.300  28.652
21607W        W22472  16.959  20.562  27.340
21608W        W22473  15.395  20.211  26.582
21609W        W22474  15.766  21.218  27.977
21610W        W22475  16.144  18.637  27.018
21611W        W22476  14.755  20.621  25.948
21612W        W22477  16.274  19.572  25.818
21613W        W22478  14.920  20.121  26.837
21614W        W22479  16.210  18.763  28.301
21615W        W22480  17.882  18.472  25.728
21616W        W22481  17.975  20.218  28.827
21617W        W22482  16.629  21.475  28.979
21618W        W22483  18.187  20.569  28.501
21619W        W22484  17.595  21.367  29.112
21620W        W22485  15.334  21.823  27.590
21621W        W22486  18.193  20.445  26.464
21622W        W22487  16.723  19.712  26.977
21623W        W22488  16.490  18.324  26.867
21624W        W22489  15.549  21.308  26.704
21625W        W22490  16.048  19.049  27.929
21626W        W22491  15.748  18.418  27.398
21627W        W22492  14.811  21.240  25.946
21628W        W22493  16.627  20.604  26.664
21629W        W22494  15.502  21.399  28.543
21630W        W22495  14.979  20.222  26.239
21631W        W22496  14.864  18.765  27.238
21632W        W22497  16.412  20.730  27.295
21633W        W22498  14.664  18.584  26.315
21634W        W22499  17.328  19.790  28.242
21635W        W22500  17.205  19.176  25.814
21636W        W22501  17.722  20.848  27.462
21637W        W22502  16.383  21.332  27.293
21638W        W22503  15.795  21.436  26.204
21639W        W22504  17.077  18.339  25.634
21640W        W22505  14.877  21.599  27.375
21641W        W22506  17.074  19.357  29.010
21642W        W22507  15.057  18.887  29.009
21643W        W22508  14.788  19.487  26.342
21644W        W22509  15.479  19.476  26.067
21645W        W22510  17.242  19.803  28.884
21646W        W22511  15.585  20.084  27.593
21647W        W22512  17.059  18.370  26.713
21648W        W22513  16.190  21.801  27.216
21649W        W22514  17.404  21.263  28.153
21650W        W22515  16.988  21.412  27.264
21651W        W22516  17.007  20.392  26.858
21652W        W22517  16.469  18.617  25.929
21653W        W22518  18.150  18.245  26.651
21654W        W22519  15.838  19.880  25.814
21655W        W22520  18.004  19.217  26.804
21656W        W22521  16.696  20.387  25.681
21657W        W22522  17.632  20.587  28.429
21658W        W22523  17.286  21.288  25.896
21659W        W22524  15.901  18.963  28.802
21660W        W22525  15.721  19.547  28.043
21661W        W22526  17.813  21.042  28.320
21662W        W22527  16.913  18.992  28.697
21663W        W22528  14.757  19.463  28.474
21664W        W22529  16.517  19.940  28.200
21665W        W22530  14.874  20.698  26.857
21666W        W22531  15.021  19.995  27.747
21667W        W22532  17.338  20.281  28.097
21668W        W22533  17.110  21.661  28.908
21669W        W22534  17.006  19.400  28.461
21670W        W22535  17.283  21.454  26.866
21671W        W22536  16.285  21.174  28.189
21672W        W22537  15.770  21.529  27.458
21673W        W22538  17.575  20.700  27.877
21674W        W22539  16.625  20.772  29.014
21675W        W22540  15.230  20.725  27.353
21676W        W22541  17.576  20.484  26.998
21677W        W22542  17.217  21.550  27.749
21678W        W22543  15.195  21.279  27.619
21679W        W22544  16.216  19.331  28.829
21680W        W22545  16.667  21.497  26.340
21681W        W22546  15.975  20.752  28.978
21682W        W22547  16.101  20.990  26.355
21683W        W22548  15.322  19.730  25.614
21684W        W22549  14.661  25.461   3.359
21685W        W22550  15.037  24.354   2.882
21686W        W22551  17.742  24.084   0.652
21687W        W22552  17.872  25.169   2.679
21688W        W22553  15.790  25.160   0.205
21689W        W22554  15.873  23.312   1.188
21690W        W22555  15.388  23.160   1.352
21691W        W22556  16.379  23.975   0.786
21692W        W22557  16.054  25.067   3.141
21693W        W22558  14.703  22.628   3.104
21694W        W22559  15.465  21.908   2.906
21695W        W22560  17.159  22.296   1.793
21696W        W22561  16.808  23.167   0.363
21697W        W22562  17.378  22.601   3.454
21698W        W22563  14.744  22.393   2.579
21699W        W22564  14.843  25.012   3.600
21700W        W22565  16.365  24.402   0.332
21701W        W22566  14.797  23.185   2.025
21702W        W22567  15.690  23.076   3.262
21703W        W22568  18.149  22.935   1.761
21704W        W22569  17.913  23.978   2.620
21705W        W22570  16.221  23.311   1.647
21706W        W22571  16.767  24.650   2.016
21707W        W22572  15.267  24.084   2.248
21708W        W22573  14.626  23.612   1.819
21709W        W22574  15.662  23.584   3.011
21710W        W22575  17.933  23.367   3.265
21711W        W22576  15.549  24.811   1.710
21712W        W22577  16.670  24.500   2.844
21713W        W22578  15.890  23.140   2.069
21714W        W22579  16.182  23.924   1.712
21715W        W22580  17.179  24.697   3.560
21716W        W22581  16.258  24.017   3.570
21717W        W22582  16.239  23.733   3.048
21718W        W22583  14.648  23.124   3.570
21719W        W22584  17.480  24.659   3.169
21720W        W22585  15.061  22.241   1.167
21721W        W22586  15.588  24.499   2.166
21722W        W22587  18.051  24.282   1.456
21723W        W22588  17.464  22.682   2.023
21724W        W22589  17.749  22.635   0.118
21725W        W22590  18.214  23.436   2.424
21726W        W22591  16.181  25.143   2.177
21727W        W22592  17.955  24.609   0.615
21728W        W22593  15.084  25.395   0.369
21729W        W22594  15.477  25.441   1.045
21730W        W22595  15.274  22.195   2.471
21731W        W22596  17.897  23.213   2.746
21732W        W22597  17.302  23.635   1.205
21733W        W22598  17.268  23.323   0.232
21734W        W22599  16.476  24.467   2.372
21735W        W22600  16.282  22.797   1.571
21736W        W22601  16.882  24.884   2.565
21737W        W22602  17.753  23.675   0.987
21738W        W22603  16.655  22.333   1.003
21739W        W22604  15.312  25.027   0.686
21740W        W22605  14.683  22.526   1.285
21741W        W22606  17.469  23.133   1.759
21742W        W22607  14.927  24.750   1.674
21743W        W22608  16.268  25.100   0.544
21744W        W22609  17.660  23.126   0.008
21745W        W22610  14.683  24.884   2.172
21746W        W22611  15.474  24.456   2.652
21747W        W22612  15.847  23.816   1.271
21748W        W22613  15.869  22.221   2.364
21749W        W22614  18.098  21.983   1.661
21750W        W22615  15.317  23.855   0.129
21751W        W22616  14.972  22.888   0.308
21752W        W22617  15.034  24.844   1.102
21753W        W22618  16.165  24.327   1.350
21754W        W22619  17.497  25.186   3.064
21755W        W22620  16.423  22.828   0.748
21756W        W22621  17.806  25.226   1.520
21757W        W22622  17.483  23.079   3.118
21758W        W22623  18.196  24.735   1.252
21759W        W22624  16.823  24.027   2.736
21760W        W22625  14.589  23.578   0.942
21761W        W22626  15.700  23.993   2.515
21762W        W22627  16.904  23.257   0.893
21763W        W22628  16.781  23.747   0.997
21764W        W22629  15.124  23.167   2.471
21765W        W22630  15.109  23.043   3.393
21766W        W22631  14.999  21.960   1.552
21767W        W22632  16.767  22.307   2.113
21768W        W22633  16.415  22.492   3.276
21769W        W22634  16.770  22.641   0.454
21770W        W22635  17.953  25.034   3.208
21771W        W22636  16.920  22.115   3.247
21772W        W22637  17.939  24.416   3.369
21773W        W22638  17.369  22.583   2.965
21774W        W22639  17.169  22.521   1.235
21775W        W22640  17.562  23.655   3.639
21776W        W22641  15.302  25.231   1.625
21777W        W22642  15.960  22.948   0.611
21778W        W22643  15.529  22.232   3.275
21779W        W22644  17.581  22.716   0.956
21780W        W22645  17.948  23.198   0.901
21781W        W22646  15.691  25.415   3.372
21782W        W22647  15.617  21.951   0.607
21783W        W22648  17.938  22.485   1.642
21784W        W22649  18.088  24.734   0.087
21785W        W22650  14.995  23.937   1.789
21786W        W22651  16.912  22.524   0.019
21787W        W22652  18.046  24.856   1.739
21788W        W22653  18.085  22.050   2.489
21789W        W22654  16.530  23.262   3.043
21790W        W22655  16.623  24.601   0.746
21791W        W22656  17.023  23.895   3.486
21792W        W22657  16.697  21.872   1.795
21793W        W22658  15.309  22.775   1.858
21794W        W22659  14.863  23.975   2.632
21795W        W22660  16.722  25.168   1.338
21796W        W22661  17.916  22.765   2.210
21797W        W22662  16.553  25.112   2.977
21798W        W22663  17.896  24.171   0.182
21799W        W22664  16.331  23.654   1.243
21800W        W22665  18.183  22.165   2.984
21801W        W22666  16.332  24.000   2.578
21802W        W22667  16.549  22.886   2.023
21803W        W22668  17.401  23.184   0.861
21804W        W22669  17.688  22.917   0.503
21805W        W22670  17.497  24.957   0.892
21806W        W22671  17.331  24.560   1.688
21807W        W22672  17.227  23.639   0.666
21808W        W22673  16.660  23.849   1.652
21809W        W22674  17.541  23.637   1.719
21810W        W22675  14.916  22.652   2.143
21811W        W22676  17.694  23.704   2.970
21812W        W22677  18.045  25.322   2.116
21813W        W22678  15.975  24.766   1.518
21814W        W22679  16.982  25.299   2.842
21815W        W22680  16.976  22.629   2.606
21816W        W22681  16.183  25.337   2.667
21817W        W22682  17.880  22.291   1.133
21818W        W22683  17.671  23.610   2.434
21819W        W22684  14.654  22.931   2.472
21820W        W22685  17.514  22.726   1.490
21821W        W22686  17.925  22.877   3.267
21822W        W22687  16.810  24.576   1.485
21823W        W22688  16.066  25.167   1.098
21824W        W22689  15.181  22.347   0.356
21825W        W22690  16.285  22.001   2.166
21826W        W22691  15.313  25.121   0.014
21827W        W22692  15.687  23.587   0.765
21828W        W22693  16.341  24.216   3.078
21829W        W22694  16.171  22.574   1.068
21830W        W22695  17.527  22.171   1.496
21831W        W22696  17.247  25.453   1.824
21832W        W22697  16.659  25.101   2.164
21833W        W22698  16.055  24.138   2.125
21834W        W22699  17.825  24.861   2.251
21835W        W22700  15.519  22.364   1.020
21836W        W22701  16.041  24.661   1.980
21837W        W22702  15.524  22.592   0.045
21838W        W22703  16.325  23.201   2.439
21839W        W22704  17.173  22.067   2.309
21840W        W22705  14.593  23.910   2.194
21841W        W22706  16.297  23.728   0.352
21842W        W22707  15.565  22.043   0.122
21843W        W22708  16.303  23.124   1.173
21844W        W22709  17.273  22.100   2.872
21845W        W22710  15.861  24.112   2.981
21846W        W22711  16.665  23.894   3.198
21847W        W22712  17.282  23.924   3.091
21848W        W22713  16.566  22.064   3.596
21849W        W22714  15.788  22.680   1.989
21850W        W22715  15.214  22.636   1.387
21851W        W22716  15.000  25.348   1.063
21852W        W22717  16.332  24.678   3.188
21853W        W22718  15.367  24.163   0.547
21854W        W22719  17.047  23.548   1.768
21855W        W22720  17.327  23.347   2.167
21856W        W22721  16.532  24.021   2.101
21857W        W22722  17.002  24.395   0.233
21858W        W22723  16.674  22.416   1.561
21859W        W22724  18.153  22.694   0.829
21860W        W22725  14.647  25.283   2.860
21861W        W22726  15.064  24.509   2.392
21862W        W22727  14.631  25.355   0.624
21863W        W22728  16.530  22.625   2.430
21864W        W22729  15.893  24.648   0.279
21865W        W22730  17.798  25.030   0.465
21866W        W22731  16.773  23.683   0.479
21867W        W22732  15.616  22.874   0.996
21868W        W22733  16.448  22.784   0.048
21869W        W22734  17.032  24.349   3.226
21870W        W22735  17.385  22.255   0.843
21871W        W22736  14.715  22.103   0.291
21872W        W22737  16.001  24.422   2.581
21873W        W22738  15.800  24.338   1.673
21874W        W22739  15.542  24.290   0.071
21875W        W22740  14.783  24.531   0.839
21876W        W22741  15.287  23.601   3.281
21877W        W22742  15.991  22.161   3.467
21878W        W22743  16.700  22.303   2.823
21879W        W22744  15.895  22.071   1.104
21880W        W22745  16.954  22.148   0.609
21881W        W22746  14.899  22.080   2.186
21882W        W22747  14.947  23.043   1.556
21883W        W22748  17.636  22.151   1.962
21884W        W22749  15.058  22.649   0.776
21885W        W22750  17.629  22.337   2.392
21886W        W22751  18.025  23.540   0.077
21887W        W22752  15.317  22.298   1.896
21888W        W22753  16.431  22.870   2.836
21889W        W22754  14.579  22.560   0.314
21890W        W22755  15.365  23.949   2.875
21891W        W22756  16.723  23.347   2.054
21892W        W22757  16.590  25.426   0.350
21893W        W22758  14.736  23.933   0.047
21894W        W22759  15.471  24.344   3.173
21895W        W22760  14.992  23.511   2.804
21896W        W22761  15.983  23.616   2.598
21897W        W22762  17.751  21.975   2.860
21898W        W22763  18.149  23.585   2.851
21899W        W22764  18.137  23.785   0.537
21900W        W22765  17.000  24.117   0.636
21901W        W22766  17.474  25.417   0.331
21902W        W22767  16.651  23.407   3.473
21903W        W22768  14.981  24.374   3.513
21904W        W22769  18.187  22.296   3.465
21905W        W22770  17.905  23.224   2.086
21906W        W22771  16.213  25.354   3.563
21907W        W22772  16.068  21.983   0.290
21908W        W22773  17.607  24.582   0.233
21909W        W22774  15.376  22.675   3.119
21910W        W22775  15.810  24.669   2.981
21911W        W22776  17.936  22.660   2.779
21912W        W22777  17.147  25.319   0.747
21913W        W22778  17.386  23.938   2.114
21914W        W22779  15.636  22.354   2.781
21915W        W22780  16.105  23.423   3.538
21916W        W22781  15.608  24.602   0.732
21917W        W22782  17.363  24.100   0.996
21918W        W22783  15.131  22.726   2.720
21919W        W22784  16.460  24.788   1.184
21920W        W22785  18.210  23.348   1.365
21921W        W22786  16.432  21.981   3.084
21922W        W22787  17.212  24.686   2.163
21923W        W22788  17.515  25.030   1.871
21924W        W22789  16.734  24.832   0.299
21925W        W22790  14.744  24.724   3.141
21926W        W22791  15.487  22.716   2.379
21927W        W22792  15.457  22.064   1.489
21928W        W22793  17.078  22.906   2.181
21929W        W22794  15.876  24.077   0.381
21930W        W22795  17.874  24.019   1.880
21931W        W22796  15.201  24.777   3.303
21932W        W22797  17.588  25.459   1.100
21933W        W22798  15.687  22.479   1.545
21934W        W22799  15.456  23.972   1.635
21935W        W22800  15.769  25.383   2.385
21936W        W22801  17.836  25.479   3.417
21937W        W22802  16.995  23.667   2.350
21938W        W22803  14.844  23.465   0.265
21939W        W22804  17.978  25.123   0.962
21940W        W22805  17.815  22.447   0.581
21941W        W22806  15.954  21.966   2.984
21942W        W22807  17.660  24.768   1.442
21943W        W22808  17.689  23.324   1.347
21944W        W22809  15.806  22.997   1.563
21945W        W22810  16.051  23.259   2.887
21946W        W22811  17.162  24.412   2.750
21947W        W22812  15.812  22.866   2.862
21948W        W22813  15.791  25.332   1.478
21949W        W22814  15.108  25.291   3.112
21950W        W22815  15.220  24.652   0.242
21951W        W22816  17.737  24.410   1.052
21952W        W22817  15.341  23.202   2.938
21953W        W22818  18.114  23.132   0.419
21954W        W22819  15.859  24.189   0.890
21955W        W22820  16.958  23.571   2.971
21956W        W22821  16.849  23.199   2.515
21957W        W22822  15.409  23.571   2.544
21958W        W22823  17.619  25.459   2.373
21959W        W22824  17.410  22.093   3.367
21960W        W22825  15.074  22.243   2.954
21961W        W22826  15.413  23.266   2.007
21962W        W22827  15.782  23.080   0.129
21963W        W22828  14.585  24.839   2.674
21964W        W22829  16.170  23.548   2.117
21965W        W22830  15.993  22.573   0.222
21966W        W22831  15.128  23.389   1.003
21967W        W22832  14.899  25.241   2.440
21968W        W22833  17.694  23.467   0.548
21969W        W22834  17.789  22.383   3.234
21970W        W22835  17.225  24.592   1.197
21971W        W22836  14.823  23.516   3.374
21972W        W22837  17.789  21.980   0.670
21973W        W22838  17.309  24.455   0.681
21974W        W22839  16.211  23.513   0.766
21975W        W22840  17.398  22.317   0.289
21976W        W22841  17.463  22.924   2.475
21977W        W22842  15.172  23.517   1.682
21978W        W22843  15.466  24.456   1.331
21979W        W22844  17.229  23.076   1.296
21980W        W22845  16.252  22.455   1.992
21981W        W22846  18.214  24.366   2.503
21982W        W22847  18.132  22.353   2.064
21983W        W22848  14.671  25.183   1.440
21984W        W22849  15.180  24.370   0.976
21985W        W22850  15.095  21.987   3.529
21986W        W22851  16.214  24.840   3.631
21987W        W22852  17.969  23.808   1.421
21988W        W22853  17.323  23.985   0.301
21989W        W22854  16.618  25.506   2.513
21990W        W22855  17.475  24.228   3.550
21991W        W22856  16.290  21.938   0.830
21992W        W22857  17.003  22.807   1.689
21993W        W22858  14.689  24.394   2.021
21994W        W22859  15.942  22.356   0.662
21995W        W22860  15.746  23.840   3.511
21996W        W22861  16.740  22.821   1.225
21997W        W22862  16.945  24.231   2.347
21998W        W22863  15.099  24.836   2.782
21999W        W22864  15.690  24.819   3.505
22000W        W22865  15.541  22.616   0.519
22001W        W22866  17.058  22.758   0.844
22002W        W22867  17.016  24.866   3.081
22003W        W22868  15.701  23.458   1.680
22004W        W22869  15.356  25.156   2.545
22005W        W22870  18.101  25.273   0.146
22006W        W22871  14.964  23.945   3.142
22007W        W22872  16.959  24.207   1.830
22008W        W22873  15.395  23.856   1.072
22009W        W22874  15.766  24.863   2.467
22010W        W22875  16.144  22.282   1.508
22011W        W22876  14.755  24.266   0.438
22012W        W22877  16.274  23.217   0.308
22013W        W22878  14.920  23.766   1.327
22014W        W22879  16.210  22.408   2.791
22015W        W22880  17.882  22.117   0.218
22016W        W22881  17.975  23.863   3.317
22017W        W22882  16.629  25.120   3.469
22018W        W22883  18.187  24.214   2.991
22019W        W22884  17.595  25.012   3.602
22020W        W22885  15.334  25.468   2.080
22021W        W22886  18.193  24.090   0.954
22022W        W22887  16.723  23.357   1.467
22023W        W22888  16.490  21.969   1.357
22024W        W22889  15.549  24.953   1.194
22025W        W22890  16.048  22.694   2.419
22026W        W22891  15.748  22.063   1.888
22027W        W22892  14.811  24.885   0.436
22028W        W22893  16.627  24.249   1.154
22029W        W22894  15.502  25.044   3.033
22030W        W22895  14.979  23.867   0.729
22031W        W22896  14.864  22.410   1.728
22032W        W22897  16.412  24.375   1.785
22033W        W22898  14.664  22.229   0.805
22034W        W22899  17.328  23.435   2.732
22035W        W22900  17.205  22.821   0.304
22036W        W22901  17.722  24.493   1.952
22037W        W22902  16.383  24.977   1.783
22038W        W22903  15.795  25.081   0.694
22039W        W22904  17.077  21.984   0.124
22040W        W22905  14.877  25.244   1.865
22041W        W22906  17.074  23.002   3.500
22042W        W22907  15.057  22.532   3.499
22043W        W22908  14.788  23.132   0.832
22044W        W22909  15.479  23.121   0.557
22045W        W22910  17.242  23.448   3.374
22046W        W22911  15.585  23.729   2.083
22047W        W22912  17.059  22.015   1.203
22048W        W22913  16.190  25.446   1.706
22049W        W22914  17.404  24.908   2.643
22050W        W22915  16.988  25.057   1.754
22051W        W22916  17.007  24.037   1.348
22052W        W22917  16.469  22.262   0.419
22053W        W22918  18.150  21.890   1.141
22054W        W22919  15.838  23.525   0.304
22055W        W22920  18.004  22.862   1.294
22056W        W22921  16.696  24.032   0.171
22057W        W22922  17.632  24.232   2.919
22058W        W22923  17.286  24.933   0.386
22059W        W22924  15.901  22.608   3.292
22060W        W22925  15.721  23.192   2.533
22061W        W22926  17.813  24.687   2.810
22062W        W22927  16.913  22.637   3.187
22063W        W22928  14.757  23.108   2.964
22064W        W22929  16.517  23.585   2.690
22065W        W22930  14.874  24.343   1.347
22066W        W22931  15.021  23.640   2.237
22067W        W22932  17.338  23.926   2.587
22068W        W22933  17.110  25.306   3.398
22069W        W22934  17.006  23.045   2.951
22070W        W22935  17.283  25.099   1.356
22071W        W22936  16.285  24.819   2.679
22072W        W22937  15.770  25.174   1.948
22073W        W22938  17.575  24.345   2.367
22074W        W22939  16.625  24.417   3.504
22075W        W22940  15.230  24.370   1.843
22076W        W22941  17.576  24.129   1.488
22077W        W22942  17.217  25.195   2.239
22078W        W22943  15.195  24.924   2.109
22079W        W22944  16.216  22.976   3.319
22080W        W22945  16.667  25.142   0.830
22081W        W22946  15.975  24.397   3.468
22082W        W22947  16.101  24.635   0.845
22083W        W22948  15.322  23.375   0.104
22084W        W22949  14.661  25.461   7.003
22085W        W22950  15.037  24.354   6.526
22086W        W22951  17.742  24.084   4.296
22087W        W22952  17.872  25.169   6.323
22088W        W22953  15.790  25.160   3.849
22089W        W22954  15.873  23.312   4.832
22090W        W22955  15.388  23.160   4.996
22091W        W22956  16.379  23.975   4.430
22092W        W22957  16.054  25.067   6.785
22093W        W22958  14.703  22.628   6.748
22094W        W22959  15.465  21.908   6.550
22095W        W22960  17.159  22.296   5.437
22096W        W22961  16.808  23.167   4.007
22097W        W22962  17.378  22.601   7.098
22098W        W22963  14.744  22.393   6.223
22099W        W22964  14.843  25.012   7.244
22100W        W22965  16.365  24.402   3.976
22101W        W22966  14.797  23.185   5.669
22102W        W22967  15.690  23.076   6.906
22103W        W22968  18.149  22.935   5.405
22104W        W22969  17.913  23.978   6.264
22105W        W22970  16.221  23.311   5.291
22106W        W22971  16.767  24.650   5.660
22107W        W22972  15.267  24.084   5.892
22108W        W22973  14.626  23.612   5.463
22109W        W22974  15.662  23.584   6.655
22110W        W22975  17.933  23.367   6.909
22111W        W22976  15.549  24.811   5.354
22112W        W22977  16.670  24.500   6.488
22113W        W22978  15.890  23.140   5.713
22114W        W22979  16.182  23.924   5.356
22115W        W22980  17.179  24.697   7.204
22116W        W22981  16.258  24.017   7.214
22117W        W22982  16.239  23.733   6.692
22118W        W22983  14.648  23.124   7.214
22119W        W22984  17.480  24.659   6.813
22120W        W22985  15.061  22.241   4.811
22121W        W22986  15.588  24.499   5.810
22122W        W22987  18.051  24.282   5.100
22123W        W22988  17.464  22.682   5.667
22124W        W22989  17.749  22.635   3.762
22125W        W22990  18.214  23.436   6.068
22126W        W22991  16.181  25.143   5.821
22127W        W22992  17.955  24.609   4.259
22128W        W22993  15.084  25.395   4.013
22129W        W22994  15.477  25.441   4.689
22130W        W22995  15.274  22.195   6.115
22131W        W22996  17.897  23.213   6.390
22132W        W22997  17.302  23.635   4.849
22133W        W22998  17.268  23.323   3.876
22134W        W22999  16.476  24.467   6.016
22135W        W23000  16.282  22.797   5.215
22136W        W23001  16.882  24.884   6.209
22137W        W23002  17.753  23.675   4.631
22138W        W23003  16.655  22.333   4.647
22139W        W23004  15.312  25.027   4.330
22140W        W23005  14.683  22.526   4.929
22141W        W23006  17.469  23.133   5.403
22142W        W23007  14.927  24.750   5.318
22143W        W23008  16.268  25.100   4.188
22144W        W23009  17.660  23.126   3.652
22145W        W23010  14.683  24.884   5.816
22146W        W23011  15.474  24.456   6.296
22147W        W23012  15.847  23.816   4.915
22148W        W23013  15.869  22.221   6.008
22149W        W23014  18.098  21.983   5.305
22150W        W23015  15.317  23.855   3.773
22151W        W23016  14.972  22.888   3.952
22152W        W23017  15.034  24.844   4.746
22153W        W23018  16.165  24.327   4.994
22154W        W23019  17.497  25.186   6.708
22155W        W23020  16.423  22.828   4.392
22156W        W23021  17.806  25.226   5.164
22157W        W23022  17.483  23.079   6.762
22158W        W23023  18.196  24.735   4.896
22159W        W23024  16.823  24.027   6.380
22160W        W23025  14.589  23.578   4.586
22161W        W23026  15.700  23.993   6.159
22162W        W23027  16.904  23.257   4.537
22163W        W23028  16.781  23.747   4.641
22164W        W23029  15.124  23.167   6.115
22165W        W23030  15.109  23.043   7.037
22166W        W23031  14.999  21.960   5.196
22167W        W23032  16.767  22.307   5.757
22168W        W23033  16.415  22.492   6.920
22169W        W23034  16.770  22.641   4.098
22170W        W23035  17.953  25.034   6.852
22171W        W23036  16.920  22.115   6.891
22172W        W23037  17.939  24.416   7.013
22173W        W23038  17.369  22.583   6.609
22174W        W23039  17.169  22.521   4.879
22175W        W23040  17.562  23.655   7.283
22176W        W23041  15.302  25.231   5.269
22177W        W23042  15.960  22.948   4.255
22178W        W23043  15.529  22.232   6.919
22179W        W23044  17.581  22.716   4.600
22180W        W23045  17.948  23.198   4.545
22181W        W23046  15.691  25.415   7.016
22182W        W23047  15.617  21.951   4.251
22183W        W23048  17.938  22.485   5.286
22184W        W23049  18.088  24.734   3.731
22185W        W23050  14.995  23.937   5.433
22186W        W23051  16.912  22.524   3.663
22187W        W23052  18.046  24.856   5.383
22188W        W23053  18.085  22.050   6.133
22189W        W23054  16.530  23.262   6.687
22190W        W23055  16.623  24.601   4.390
22191W        W23056  17.023  23.895   7.130
22192W        W23057  16.697  21.872   5.439
22193W        W23058  15.309  22.775   5.502
22194W        W23059  14.863  23.975   6.276
22195W        W23060  16.722  25.168   4.982
22196W        W23061  17.916  22.765   5.854
22197W        W23062  16.553  25.112   6.621
22198W        W23063  17.896  24.171   3.826
22199W        W23064  16.331  23.654   4.887
22200W        W23065  18.183  22.165   6.628
22201W        W23066  16.332  24.000   6.222
22202W        W23067  16.549  22.886   5.667
22203W        W23068  17.401  23.184   4.505
22204W        W23069  17.688  22.917   4.147
22205W        W23070  17.497  24.957   4.536
22206W        W23071  17.331  24.560   5.332
22207W        W23072  17.227  23.639   4.310
22208W        W23073  16.660  23.849   5.296
22209W        W23074  17.541  23.637   5.363
22210W        W23075  14.916  22.652   5.787
22211W        W23076  17.694  23.704   6.614
22212W        W23077  18.045  25.322   5.760
22213W        W23078  15.975  24.766   5.162
22214W        W23079  16.982  25.299   6.486
22215W        W23080  16.976  22.629   6.250
22216W        W23081  16.183  25.337   6.311
22217W        W23082  17.880  22.291   4.777
22218W        W23083  17.671  23.610   6.078
22219W        W23084  14.654  22.931   6.116
22220W        W23085  17.514  22.726   5.134
22221W        W23086  17.925  22.877   6.911
22222W        W23087  16.810  24.576   5.129
22223W        W23088  16.066  25.167   4.742
22224W        W23089  15.181  22.347   4.000
22225W        W23090  16.285  22.001   5.810
22226W        W23091  15.313  25.121   3.658
22227W        W23092  15.687  23.587   4.409
22228W        W23093  16.341  24.216   6.722
22229W        W23094  16.171  22.574   4.712
22230W        W23095  17.527  22.171   5.140
22231W        W23096  17.247  25.453   5.468
22232W        W23097  16.659  25.101   5.808
22233W        W23098  16.055  24.138   5.769
22234W        W23099  17.825  24.861   5.895
22235W        W23100  15.519  22.364   4.664
22236W        W23101  16.041  24.661   5.624
22237W        W23102  15.524  22.592   3.689
22238W        W23103  16.325  23.201   6.083
22239W        W23104  17.173  22.067   5.953
22240W        W23105  14.593  23.910   5.838
22241W        W23106  16.297  23.728   3.996
22242W        W23107  15.565  22.043   3.766
22243W        W23108  16.303  23.124   4.817
22244W        W23109  17.273  22.100   6.516
22245W        W23110  15.861  24.112   6.625
22246W        W23111  16.665  23.894   6.842
22247W        W23112  17.282  23.924   6.735
22248W        W23113  16.566  22.064   7.240
22249W        W23114  15.788  22.680   5.633
22250W        W23115  15.214  22.636   5.031
22251W        W23116  15.000  25.348   4.707
22252W        W23117  16.332  24.678   6.832
22253W        W23118  15.367  24.163   4.191
22254W        W23119  17.047  23.548   5.412
22255W        W23120  17.327  23.347   5.811
22256W        W23121  16.532  24.021   5.745
22257W        W23122  17.002  24.395   3.877
22258W        W23123  16.674  22.416   5.205
22259W        W23124  18.153  22.694   4.473
22260W        W23125  14.647  25.283   6.504
22261W        W23126  15.064  24.509   6.036
22262W        W23127  14.631  25.355   4.268
22263W        W23128  16.530  22.625   6.074
22264W        W23129  15.893  24.648   3.923
22265W        W23130  17.798  25.030   4.109
22266W        W23131  16.773  23.683   4.123
22267W        W23132  15.616  22.874   4.640
22268W        W23133  16.448  22.784   3.692
22269W        W23134  17.032  24.349   6.870
22270W        W23135  17.385  22.255   4.487
22271W        W23136  14.715  22.103   3.935
22272W        W23137  16.001  24.422   6.225
22273W        W23138  15.800  24.338   5.317
22274W        W23139  15.542  24.290   3.715
22275W        W23140  14.783  24.531   4.483
22276W        W23141  15.287  23.601   6.925
22277W        W23142  15.991  22.161   7.111
22278W        W23143  16.700  22.303   6.467
22279W        W23144  15.895  22.071   4.748
22280W        W23145  16.954  22.148   4.253
22281W        W23146  14.899  22.080   5.830
22282W        W23147  14.947  23.043   5.200
22283W        W23148  17.636  22.151   5.606
22284W        W23149  15.058  22.649   4.420
22285W        W23150  17.629  22.337   6.036
22286W        W23151  18.025  23.540   3.721
22287W        W23152  15.317  22.298   5.540
22288W        W23153  16.431  22.870   6.480
22289W        W23154  14.579  22.560   3.958
22290W        W23155  15.365  23.949   6.519
22291W        W23156  16.723  23.347   5.698
22292W        W23157  16.590  25.426   3.994
22293W        W23158  14.736  23.933   3.691
22294W        W23159  15.471  24.344   6.817
22295W        W23160  14.992  23.511   6.448
22296W        W23161  15.983  23.616   6.242
22297W        W23162  17.751  21.975   6.504
22298W        W23163  18.149  23.585   6.495
22299W        W23164  18.137  23.785   4.181
22300W        W23165  17.000  24.117   4.280
22301W        W23166  17.474  25.417   3.975
22302W        W23167  16.651  23.407   7.117
22303W        W23168  14.981  24.374   7.157
22304W        W23169  18.187  22.296   7.109
22305W        W23170  17.905  23.224   5.730
22306W        W23171  16.213  25.354   7.207
22307W        W23172  16.068  21.983   3.934
22308W        W23173  17.607  24.582   3.877
22309W        W23174  15.376  22.675   6.763
22310W        W23175  15.810  24.669   6.625
22311W        W23176  17.936  22.660   6.423
22312W        W23177  17.147  25.319   4.391
22313W        W23178  17.386  23.938   5.758
22314W        W23179  15.636  22.354   6.425
22315W        W23180  16.105  23.423   7.182
22316W        W23181  15.608  24.602   4.376
22317W        W23182  17.363  24.100   4.640
22318W        W23183  15.131  22.726   6.364
22319W        W23184  16.460  24.788   4.828
22320W        W23185  18.210  23.348   5.009
22321W        W23186  16.432  21.981   6.728
22322W        W23187  17.212  24.686   5.807
22323W        W23188  17.515  25.030   5.515
22324W        W23189  16.734  24.832   3.943
22325W        W23190  14.744  24.724   6.785
22326W        W23191  15.487  22.716   6.023
22327W        W23192  15.457  22.064   5.133
22328W        W23193  17.078  22.906   5.825
22329W        W23194  15.876  24.077   4.025
22330W        W23195  17.874  24.019   5.524
22331W        W23196  15.201  24.777   6.947
22332W        W23197  17.588  25.459   4.744
22333W        W23198  15.687  22.479   5.189
22334W        W23199  15.456  23.972   5.279
22335W        W23200  15.769  25.383   6.029
22336W        W23201  17.836  25.479   7.061
22337W        W23202  16.995  23.667   5.994
22338W        W23203  14.844  23.465   3.909
22339W        W23204  17.978  25.123   4.606
22340W        W23205  17.815  22.447   4.225
22341W        W23206  15.954  21.966   6.628
22342W        W23207  17.660  24.768   5.086
22343W        W23208  17.689  23.324   4.991
22344W        W23209  15.806  22.997   5.207
22345W        W23210  16.051  23.259   6.531
22346W        W23211  17.162  24.412   6.394
22347W        W23212  15.812  22.866   6.506
22348W        W23213  15.791  25.332   5.122
22349W        W23214  15.108  25.291   6.756
22350W        W23215  15.220  24.652   3.886
22351W        W23216  17.737  24.410   4.696
22352W        W23217  15.341  23.202   6.582
22353W        W23218  18.114  23.132   4.063
22354W        W23219  15.859  24.189   4.534
22355W        W23220  16.958  23.571   6.615
22356W        W23221  16.849  23.199   6.159
22357W        W23222  15.409  23.571   6.188
22358W        W23223  17.619  25.459   6.017
22359W        W23224  17.410  22.093   7.011
22360W        W23225  15.074  22.243   6.598
22361W        W23226  15.413  23.266   5.651
22362W        W23227  15.782  23.080   3.773
22363W        W23228  14.585  24.839   6.318
22364W        W23229  16.170  23.548   5.761
22365W        W23230  15.993  22.573   3.866
22366W        W23231  15.128  23.389   4.647
22367W        W23232  14.899  25.241   6.084
22368W        W23233  17.694  23.467   4.192
22369W        W23234  17.789  22.383   6.878
22370W        W23235  17.225  24.592   4.841
22371W        W23236  14.823  23.516   7.018
22372W        W23237  17.789  21.980   4.314
22373W        W23238  17.309  24.455   4.325
22374W        W23239  16.211  23.513   4.410
22375W        W23240  17.398  22.317   3.933
22376W        W23241  17.463  22.924   6.119
22377W        W23242  15.172  23.517   5.326
22378W        W23243  15.466  24.456   4.975
22379W        W23244  17.229  23.076   4.940
22380W        W23245  16.252  22.455   5.636
22381W        W23246  18.214  24.366   6.147
22382W        W23247  18.132  22.353   5.708
22383W        W23248  14.671  25.183   5.084
22384W        W23249  15.180  24.370   4.620
22385W        W23250  15.095  21.987   7.173
22386W        W23251  16.214  24.840   7.275
22387W        W23252  17.969  23.808   5.065
22388W        W23253  17.323  23.985   3.945
22389W        W23254  16.618  25.506   6.157
22390W        W23255  17.475  24.228   7.194
22391W        W23256  16.290  21.938   4.474
22392W        W23257  17.003  22.807   5.333
22393W        W23258  14.689  24.394   5.665
22394W        W23259  15.942  22.356   4.306
22395W        W23260  15.746  23.840   7.155
22396W        W23261  16.740  22.821   4.869
22397W        W23262  16.945  24.231   5.991
22398W        W23263  15.099  24.836   6.426
22399W        W23264  15.690  24.819   7.149
22400W        W23265  15.541  22.616   4.163
22401W        W23266  17.058  22.758   4.488
22402W        W23267  17.016  24.866   6.725
22403W        W23268  15.701  23.458   5.324
22404W        W23269  15.356  25.156   6.189
22405W        W23270  18.101  25.273   3.790
22406W        W23271  14.964  23.945   6.786
22407W        W23272  16.959  24.207   5.474
22408W        W23273  15.395  23.856   4.716
22409W        W23274  15.766  24.863   6.111
22410W        W23275  16.144  22.282   5.152
22411W        W23276  14.755  24.266   4.082
22412W        W23277  16.274  23.217   3.952
22413W        W23278  14.920  23.766   4.971
22414W        W23279  16.210  22.408   6.435
22415W        W23280  17.882  22.117   3.862
22416W        W23281  17.975  23.863   6.961
22417W        W23282  16.629  25.120   7.113
22418W        W23283  18.187  24.214   6.635
22419W        W23284  17.595  25.012   7.246
22420W        W23285  15.334  25.468   5.724
22421W        W23286  18.193  24.090   4.598
22422W        W23287  16.723  23.357   5.111
22423W        W23288  16.490  21.969   5.001
22424W        W23289  15.549  24.953   4.838
22425W        W23290  16.048  22.694   6.063
22426W        W23291  15.748  22.063   5.532
22427W        W23292  14.811  24.885   4.080
22428W        W23293  16.627  24.249   4.798
22429W        W23294  15.502  25.044   6.677
22430W        W23295  14.979  23.867   4.373
22431W        W23296  14.864  22.410   5.372
22432W        W23297  16.412  24.375   5.429
22433W        W23298  14.664  22.229   4.449
22434W        W23299  17.328  23.435   6.376
22435W        W23300  17.205  22.821   3.948
22436W        W23301  17.722  24.493   5.596
22437W        W23302  16.383  24.977   5.427
22438W        W23303  15.795  25.081   4.338
22439W        W23304  17.077  21.984   3.768
22440W        W23305  14.877  25.244   5.509
22441W        W23306  17.074  23.002   7.144
22442W        W23307  15.057  22.532   7.143
22443W        W23308  14.788  23.132   4.476
22444W        W23309  15.479  23.121   4.201
22445W        W23310  17.242  23.448   7.018
22446W        W23311  15.585  23.729   5.727
22447W        W23312  17.059  22.015   4.847
22448W        W23313  16.190  25.446   5.350
22449W        W23314  17.404  24.908   6.287
22450W        W23315  16.988  25.057   5.398
22451W        W23316  17.007  24.037   4.992
22452W        W23317  16.469  22.262   4.063
22453W        W23318  18.150  21.890   4.785
22454W        W23319  15.838  23.525   3.948
22455W        W23320  18.004  22.862   4.938
22456W        W23321  16.696  24.032   3.815
22457W        W23322  17.632  24.232   6.563
22458W        W23323  17.286  24.933   4.030
22459W        W23324  15.901  22.608   6.936
22460W        W23325  15.721  23.192   6.177
22461W        W23326  17.813  24.687   6.454
22462W        W23327  16.913  22.637   6.831
22463W        W23328  14.757  23.108   6.608
22464W        W23329  16.517  23.585   6.334
22465W        W23330  14.874  24.343   4.991
22466W        W23331  15.021  23.640   5.881
22467W        W23332  17.338  23.926   6.231
22468W        W23333  17.110  25.306   7.042
22469W        W23334  17.006  23.045   6.595
22470W        W23335  17.283  25.099   5.000
22471W        W23336  16.285  24.819   6.323
22472W        W23337  15.770  25.174   5.592
22473W        W23338  17.575  24.345   6.011
22474W        W23339  16.625  24.417   7.148
22475W        W23340  15.230  24.370   5.487
22476W        W23341  17.576  24.129   5.132
22477W        W23342  17.217  25.195   5.883
22478W        W23343  15.195  24.924   5.753
22479W        W23344  16.216  22.976   6.963
22480W        W23345  16.667  25.142   4.474
22481W        W23346  15.975  24.397   7.112
22482W        W23347  16.101  24.635   4.489
22483W        W23348  15.322  23.375   3.748
22484W        W23349  14.661  25.461  10.648
22485W        W23350  15.037  24.354  10.171
22486W        W23351  17.742  24.084   7.941
22487W        W23352  17.872  25.169   9.968
22488W        W23353  15.790  25.160   7.494
22489W        W23354  15.873  23.312   8.477
22490W        W23355  15.388  23.160   8.641
22491W        W23356  16.379  23.975   8.075
22492W        W23357  16.054  25.067  10.430
22493W        W23358  14.703  22.628  10.393
22494W        W23359  15.465  21.908  10.195
22495W        W23360  17.159  22.296   9.082
22496W        W23361  16.808  23.167   7.652
22497W        W23362  17.378  22.601  10.743
22498W        W23363  14.744  22.393   9.868
22499W        W23364  14.843  25.012  10.889
22500W        W23365  16.365  24.402   7.621
22501W        W23366  14.797  23.185   9.314
22502W        W23367  15.690  23.076  10.551
22503W        W23368  18.149  22.935   9.050
22504W        W23369  17.913  23.978   9.909
22505W        W23370  16.221  23.311   8.936
22506W        W23371  16.767  24.650   9.305
22507W        W23372  15.267  24.084   9.537
22508W        W23373  14.626  23.612   9.108
22509W        W23374  15.662  23.584  10.300
22510W        W23375  17.933  23.367  10.554
22511W        W23376  15.549  24.811   8.999
22512W        W23377  16.670  24.500  10.133
22513W        W23378  15.890  23.140   9.358
22514W        W23379  16.182  23.924   9.001
22515W        W23380  17.179  24.697  10.849
22516W        W23381  16.258  24.017  10.859
22517W        W23382  16.239  23.733  10.337
22518W        W23383  14.648  23.124  10.859
22519W        W23384  17.480  24.659  10.458
22520W        W23385  15.061  22.241   8.456
22521W        W23386  15.588  24.499   9.455
22522W        W23387  18.051  24.282   8.745
22523W        W23388  17.464  22.682   9.312
22524W        W23389  17.749  22.635   7.407
22525W        W23390  18.214  23.436   9.713
22526W        W23391  16.181  25.143   9.466
22527W        W23392  17.955  24.609   7.904
22528W        W23393  15.084  25.395   7.658
22529W        W23394  15.477  25.441   8.334
22530W        W23395  15.274  22.195   9.760
22531W        W23396  17.897  23.213  10.035
22532W        W23397  17.302  23.635   8.494
22533W        W23398  17.268  23.323   7.521
22534W        W23399  16.476  24.467   9.661
22535W        W23400  16.282  22.797   8.860
22536W        W23401  16.882  24.884   9.854
22537W        W23402  17.753  23.675   8.276
22538W        W23403  16.655  22.333   8.292
22539W        W23404  15.312  25.027   7.975
22540W        W23405  14.683  22.526   8.574
22541W        W23406  17.469  23.133   9.048
22542W        W23407  14.927  24.750   8.963
22543W        W23408  16.268  25.100   7.833
22544W        W23409  17.660  23.126   7.297
22545W        W23410  14.683  24.884   9.461
22546W        W23411  15.474  24.456   9.941
22547W        W23412  15.847  23.816   8.560
22548W        W23413  15.869  22.221   9.653
22549W        W23414  18.098  21.983   8.950
22550W        W23415  15.317  23.855   7.418
22551W        W23416  14.972  22.888   7.597
22552W        W23417  15.034  24.844   8.391
22553W        W23418  16.165  24.327   8.639
22554W        W23419  17.497  25.186  10.353
22555W        W23420  16.423  22.828   8.037
22556W        W23421  17.806  25.226   8.809
22557W        W23422  17.483  23.079  10.407
22558W        W23423  18.196  24.735   8.541
22559W        W23424  16.823  24.027  10.025
22560W        W23425  14.589  23.578   8.231
22561W        W23426  15.700  23.993   9.804
22562W        W23427  16.904  23.257   8.182
22563W        W23428  16.781  23.747   8.286
22564W        W23429  15.124  23.167   9.760
22565W        W23430  15.109  23.043  10.682
22566W        W23431  14.999  21.960   8.841
22567W        W23432  16.767  22.307   9.402
22568W        W23433  16.415  22.492  10.565
22569W        W23434  16.770  22.641   7.743
22570W        W23435  17.953  25.034  10.497
22571W        W23436  16.920  22.115  10.536
22572W        W23437  17.939  24.416  10.658
22573W        W23438  17.369  22.583  10.254
22574W        W23439  17.169  22.521   8.524
22575W        W23440  17.562  23.655  10.928
22576W        W23441  15.302  25.231   8.914
22577W        W23442  15.960  22.948   7.900
22578W        W23443  15.529  22.232  10.564
22579W        W23444  17.581  22.716   8.245
22580W        W23445  17.948  23.198   8.190
22581W        W23446  15.691  25.415  10.661
22582W        W23447  15.617  21.951   7.896
22583W        W23448  17.938  22.485   8.931
22584W        W23449  18.088  24.734   7.376
22585W        W23450  14.995  23.937   9.078
22586W        W23451  16.912  22.524   7.308
22587W        W23452  18.046  24.856   9.028
22588W        W23453  18.085  22.050   9.778
22589W        W23454  16.530  23.262  10.332
22590W        W23455  16.623  24.601   8.035
22591W        W23456  17.023  23.895  10.775
22592W        W23457  16.697  21.872   9.084
22593W        W23458  15.309  22.775   9.147
22594W        W23459  14.863  23.975   9.921
22595W        W23460  16.722  25.168   8.627
22596W        W23461  17.916  22.765   9.499
22597W        W23462  16.553  25.112  10.266
22598W        W23463  17.896  24.171   7.471
22599W        W23464  16.331  23.654   8.532
22600W        W23465  18.183  22.165  10.273
22601W        W23466  16.332  24.000   9.867
22602W        W23467  16.549  22.886   9.312
22603W        W23468  17.401  23.184   8.150
22604W        W23469  17.688  22.917   7.792
22605W        W23470  17.497  24.957   8.181
22606W        W23471  17.331  24.560   8.977
22607W        W23472  17.227  23.639   7.955
22608W        W23473  16.660  23.849   8.941
22609W        W23474  17.541  23.637   9.008
22610W        W23475  14.916  22.652   9.432
22611W        W23476  17.694  23.704  10.259
22612W        W23477  18.045  25.322   9.405
22613W        W23478  15.975  24.766   8.807
22614W        W23479  16.982  25.299  10.131
22615W        W23480  16.976  22.629   9.895
22616W        W23481  16.183  25.337   9.956
22617W        W23482  17.880  22.291   8.422
22618W        W23483  17.671  23.610   9.723
22619W        W23484  14.654  22.931   9.761
22620W        W23485  17.514  22.726   8.779
22621W        W23486  17.925  22.877  10.556
22622W        W23487  16.810  24.576   8.774
22623W        W23488  16.066  25.167   8.387
22624W        W23489  15.181  22.347   7.645
22625W        W23490  16.285  22.001   9.455
22626W        W23491  15.313  25.121   7.303
22627W        W23492  15.687  23.587   8.054
22628W        W23493  16.341  24.216  10.367
22629W        W23494  16.171  22.574   8.357
22630W        W23495  17.527  22.171   8.785
22631W        W23496  17.247  25.453   9.113
22632W        W23497  16.659  25.101   9.453
22633W        W23498  16.055  24.138   9.414
22634W        W23499  17.825  24.861   9.540
22635W        W23500  15.519  22.364   8.309
22636W        W23501  16.041  24.661   9.269
22637W        W23502  15.524  22.592   7.334
22638W        W23503  16.325  23.201   9.728
22639W        W23504  17.173  22.067   9.598
22640W        W23505  14.593  23.910   9.483
22641W        W23506  16.297  23.728   7.641
22642W        W23507  15.565  22.043   7.411
22643W        W23508  16.303  23.124   8.462
22644W        W23509  17.273  22.100  10.161
22645W        W23510  15.861  24.112  10.270
22646W        W23511  16.665  23.894  10.487
22647W        W23512  17.282  23.924  10.380
22648W        W23513  16.566  22.064  10.885
22649W        W23514  15.788  22.680   9.278
22650W        W23515  15.214  22.636   8.676
22651W        W23516  15.000  25.348   8.352
22652W        W23517  16.332  24.678  10.477
22653W        W23518  15.367  24.163   7.836
22654W        W23519  17.047  23.548   9.057
22655W        W23520  17.327  23.347   9.456
22656W        W23521  16.532  24.021   9.390
22657W        W23522  17.002  24.395   7.522
22658W        W23523  16.674  22.416   8.850
22659W        W23524  18.153  22.694   8.118
22660W        W23525  14.647  25.283  10.149
22661W        W23526  15.064  24.509   9.681
22662W        W23527  14.631  25.355   7.913
22663W        W23528  16.530  22.625   9.719
22664W        W23529  15.893  24.648   7.568
22665W        W23530  17.798  25.030   7.754
22666W        W23531  16.773  23.683   7.768
22667W        W23532  15.616  22.874   8.285
22668W        W23533  16.448  22.784   7.337
22669W        W23534  17.032  24.349  10.515
22670W        W23535  17.385  22.255   8.132
22671W        W23536  14.715  22.103   7.580
22672W        W23537  16.001  24.422   9.870
22673W        W23538  15.800  24.338   8.962
22674W        W23539  15.542  24.290   7.360
22675W        W23540  14.783  24.531   8.128
22676W        W23541  15.287  23.601  10.570
22677W        W23542  15.991  22.161  10.756
22678W        W23543  16.700  22.303  10.112
22679W        W23544  15.895  22.071   8.393
22680W        W23545  16.954  22.148   7.898
22681W        W23546  14.899  22.080   9.475
22682W        W23547  14.947  23.043   8.845
22683W        W23548  17.636  22.151   9.251
22684W        W23549  15.058  22.649   8.065
22685W        W23550  17.629  22.337   9.681
22686W        W23551  18.025  23.540   7.366
22687W        W23552  15.317  22.298   9.185
22688W        W23553  16.431  22.870  10.125
22689W        W23554  14.579  22.560   7.603
22690W        W23555  15.365  23.949  10.164
22691W        W23556  16.723  23.347   9.343
22692W        W23557  16.590  25.426   7.639
22693W        W23558  14.736  23.933   7.336
22694W        W23559  15.471  24.344  10.462
22695W        W23560  14.992  23.511  10.093
22696W        W23561  15.983  23.616   9.887
22697W        W23562  17.751  21.975  10.149
22698W        W23563  18.149  23.585  10.140
22699W        W23564  18.137  23.785   7.826
22700W        W23565  17.000  24.117   7.925
22701W        W23566  17.474  25.417   7.620
22702W        W23567  16.651  23.407  10.762
22703W        W23568  14.981  24.374  10.802
22704W        W23569  18.187  22.296  10.754
22705W        W23570  17.905  23.224   9.375
22706W        W23571  16.213  25.354  10.852
22707W        W23572  16.068  21.983   7.579
22708W        W23573  17.607  24.582   7.522
22709W        W23574  15.376  22.675  10.408
22710W        W23575  15.810  24.669  10.270
22711W        W23576  17.936  22.660  10.068
22712W        W23577  17.147  25.319   8.036
22713W        W23578  17.386  23.938   9.403
22714W        W23579  15.636  22.354  10.070
22715W        W23580  16.105  23.423  10.827
22716W        W23581  15.608  24.602   8.021
22717W        W23582  17.363  24.100   8.285
22718W        W23583  15.131  22.726  10.009
22719W        W23584  16.460  24.788   8.473
22720W        W23585  18.210  23.348   8.654
22721W        W23586  16.432  21.981  10.373
22722W        W23587  17.212  24.686   9.452
22723W        W23588  17.515  25.030   9.160
22724W        W23589  16.734  24.832   7.588
22725W        W23590  14.744  24.724  10.430
22726W        W23591  15.487  22.716   9.668
22727W        W23592  15.457  22.064   8.778
22728W        W23593  17.078  22.906   9.470
22729W        W23594  15.876  24.077   7.670
22730W        W23595  17.874  24.019   9.169
22731W        W23596  15.201  24.777  10.592
22732W        W23597  17.588  25.459   8.389
22733W        W23598  15.687  22.479   8.834
22734W        W23599  15.456  23.972   8.924
22735W        W23600  15.769  25.383   9.674
22736W        W23601  17.836  25.479  10.706
22737W        W23602  16.995  23.667   9.639
22738W        W23603  14.844  23.465   7.554
22739W        W23604  17.978  25.123   8.251
22740W        W23605  17.815  22.447   7.870
22741W        W23606  15.954  21.966  10.273
22742W        W23607  17.660  24.768   8.731
22743W        W23608  17.689  23.324   8.636
22744W        W23609  15.806  22.997   8.852
22745W        W23610  16.051  23.259  10.176
22746W        W23611  17.162  24.412  10.039
22747W        W23612  15.812  22.866  10.151
22748W        W23613  15.791  25.332   8.767
22749W        W23614  15.108  25.291  10.401
22750W        W23615  15.220  24.652   7.531
22751W        W23616  17.737  24.410   8.341
22752W        W23617  15.341  23.202  10.227
22753W        W23618  18.114  23.132   7.708
22754W        W23619  15.859  24.189   8.179
22755W        W23620  16.958  23.571  10.260
22756W        W23621  16.849  23.199   9.804
22757W        W23622  15.409  23.571   9.833
22758W        W23623  17.619  25.459   9.662
22759W        W23624  17.410  22.093  10.656
22760W        W23625  15.074  22.243  10.243
22761W        W23626  15.413  23.266   9.296
22762W        W23627  15.782  23.080   7.418
22763W        W23628  14.585  24.839   9.963
22764W        W23629  16.170  23.548   9.406
22765W        W23630  15.993  22.573   7.511
22766W        W23631  15.128  23.389   8.292
22767W        W23632  14.899  25.241   9.729
22768W        W23633  17.694  23.467   7.837
22769W        W23634  17.789  22.383  10.523
22770W        W23635  17.225  24.592   8.486
22771W        W23636  14.823  23.516  10.663
22772W        W23637  17.789  21.980   7.959
22773W        W23638  17.309  24.455   7.970
22774W        W23639  16.211  23.513   8.055
22775W        W23640  17.398  22.317   7.578
22776W        W23641  17.463  22.924   9.764
22777W        W23642  15.172  23.517   8.971
22778W        W23643  15.466  24.456   8.620
22779W        W23644  17.229  23.076   8.585
22780W        W23645  16.252  22.455   9.281
22781W        W23646  18.214  24.366   9.792
22782W        W23647  18.132  22.353   9.353
22783W        W23648  14.671  25.183   8.729
22784W        W23649  15.180  24.370   8.265
22785W        W23650  15.095  21.987  10.818
22786W        W23651  16.214  24.840  10.920
22787W        W23652  17.969  23.808   8.710
22788W        W23653  17.323  23.985   7.590
22789W        W23654  16.618  25.506   9.802
22790W        W23655  17.475  24.228  10.839
22791W        W23656  16.290  21.938   8.119
22792W        W23657  17.003  22.807   8.978
22793W        W23658  14.689  24.394   9.310
22794W        W23659  15.942  22.356   7.951
22795W        W23660  15.746  23.840  10.800
22796W        W23661  16.740  22.821   8.514
22797W        W23662  16.945  24.231   9.636
22798W        W23663  15.099  24.836  10.071
22799W        W23664  15.690  24.819  10.794
22800W        W23665  15.541  22.616   7.808
22801W        W23666  17.058  22.758   8.133
22802W        W23667  17.016  24.866  10.370
22803W        W23668  15.701  23.458   8.969
22804W        W23669  15.356  25.156   9.834
22805W        W23670  18.101  25.273   7.435
22806W        W23671  14.964  23.945  10.431
22807W        W23672  16.959  24.207   9.119
22808W        W23673  15.395  23.856   8.361
22809W        W23674  15.766  24.863   9.756
22810W        W23675  16.144  22.282   8.797
22811W        W23676  14.755  24.266   7.727
22812W        W23677  16.274  23.217   7.597
22813W        W23678  14.920  23.766   8.616
22814W        W23679  16.210  22.408  10.080
22815W        W23680  17.882  22.117   7.507
22816W        W23681  17.975  23.863  10.606
22817W        W23682  16.629  25.120  10.758
22818W        W23683  18.187  24.214  10.280
22819W        W23684  17.595  25.012  10.891
22820W        W23685  15.334  25.468   9.369
22821W        W23686  18.193  24.090   8.243
22822W        W23687  16.723  23.357   8.756
22823W        W23688  16.490  21.969   8.646
22824W        W23689  15.549  24.953   8.483
22825W        W23690  16.048  22.694   9.708
22826W        W23691  15.748  22.063   9.177
22827W        W23692  14.811  24.885   7.725
22828W        W23693  16.627  24.249   8.443
22829W        W23694  15.502  25.044  10.322
22830W        W23695  14.979  23.867   8.018
22831W        W23696  14.864  22.410   9.017
22832W        W23697  16.412  24.375   9.074
22833W        W23698  14.664  22.229   8.094
22834W        W23699  17.328  23.435  10.021
22835W        W23700  17.205  22.821   7.593
22836W        W23701  17.722  24.493   9.241
22837W        W23702  16.383  24.977   9.072
22838W        W23703  15.795  25.081   7.983
22839W        W23704  17.077  21.984   7.413
22840W        W23705  14.877  25.244   9.154
22841W        W23706  17.074  23.002  10.789
22842W        W23707  15.057  22.532  10.788
22843W        W23708  14.788  23.132   8.121
22844W        W23709  15.479  23.121   7.846
22845W        W23710  17.242  23.448  10.663
22846W        W23711  15.585  23.729   9.372
22847W        W23712  17.059  22.015   8.492
22848W        W23713  16.190  25.446   8.995
22849W        W23714  17.404  24.908   9.932
22850W        W23715  16.988  25.057   9.043
22851W        W23716  17.007  24.037   8.637
22852W        W23717  16.469  22.262   7.708
22853W        W23718  18.150  21.890   8.430
22854W        W23719  15.838  23.525   7.593
22855W        W23720  18.004  22.862   8.583
22856W        W23721  16.696  24.032   7.460
22857W        W23722  17.632  24.232  10.208
22858W        W23723  17.286  24.933   7.675
22859W        W23724  15.901  22.608  10.581
22860W        W23725  15.721  23.192   9.822
22861W        W23726  17.813  24.687  10.099
22862W        W23727  16.913  22.637  10.476
22863W        W23728  14.757  23.108  10.253
22864W        W23729  16.517  23.585   9.979
22865W        W23730  14.874  24.343   8.636
22866W        W23731  15.021  23.640   9.526
22867W        W23732  17.338  23.926   9.876
22868W        W23733  17.110  25.306  10.687
22869W        W23734  17.006  23.045  10.240
22870W        W23735  17.283  25.099   8.645
22871W        W23736  16.285  24.819   9.968
22872W        W23737  15.770  25.174   9.237
22873W        W23738  17.575  24.345   9.656
22874W        W23739  16.625  24.417  10.793
22875W        W23740  15.230  24.370   9.132
22876W        W23741  17.576  24.129   8.777
22877W        W23742  17.217  25.195   9.528
22878W        W23743  15.195  24.924   9.398
22879W        W23744  16.216  22.976  10.608
22880W        W23745  16.667  25.142   8.119
22881W        W23746  15.975  24.397  10.757
22882W        W23747  16.101  24.635   8.134
22883W        W23748  15.322  23.375   7.393
22884W        W23749  14.661  25.461  14.292
22885W        W23750  15.037  24.354  13.815
22886W        W23751  17.742  24.084  11.585
22887W        W23752  17.872  25.169  13.612
22888W        W23753  15.790  25.160  11.138
22889W        W23754  15.873  23.312  12.121
22890W        W23755  15.388  23.160  12.285
22891W        W23756  16.379  23.975  11.719
22892W        W23757  16.054  25.067  14.074
22893W        W23758  14.703  22.628  14.037
22894W        W23759  15.465  21.908  13.839
22895W        W23760  17.159  22.296  12.726
22896W        W23761  16.808  23.167  11.296
22897W        W23762  14.744  22.393  13.512
22898W        W23763  14.843  25.012  14.533
22899W        W23764  16.365  24.402  11.265
22900W        W23765  14.797  23.185  12.958
22901W        W23766  15.690  23.076  14.195
22902W        W23767  18.149  22.935  12.694
22903W        W23768  17.913  23.978  13.553
22904W        W23769  16.221  23.311  12.580
22905W        W23770  16.767  24.650  12.949
22906W        W23771  15.267  24.084  13.181
22907W        W23772  14.626  23.612  12.752
22908W        W23773  15.662  23.584  13.944
22909W        W23774  17.933  23.367  14.198
22910W        W23775  15.549  24.811  12.643
22911W        W23776  16.670  24.500  13.777
22912W        W23777  15.890  23.140  13.002
22913W        W23778  16.182  23.924  12.645
22914W        W23779  17.179  24.697  14.493
22915W        W23780  16.258  24.017  14.503
22916W        W23781  16.239  23.733  13.981
22917W        W23782  14.648  23.124  14.503
22918W        W23783  17.480  24.659  14.102
22919W        W23784  15.061  22.241  12.100
22920W        W23785  15.588  24.499  13.099
22921W        W23786  18.051  24.282  12.389
22922W        W23787  17.464  22.682  12.956
22923W        W23788  17.749  22.635  11.051
22924W        W23789  18.214  23.436  13.357
22925W        W23790  16.181  25.143  13.110
22926W        W23791  17.955  24.609  11.548
22927W        W23792  15.084  25.395  11.302
22928W        W23793  15.477  25.441  11.978
22929W        W23794  15.274  22.195  13.404
22930W        W23795  17.897  23.213  13.679
22931W        W23796  17.302  23.635  12.138
22932W        W23797  17.268  23.323  11.165
22933W        W23798  16.476  24.467  13.305
22934W        W23799  16.282  22.797  12.504
22935W        W23800  16.882  24.884  13.498
22936W        W23801  17.753  23.675  11.920
22937W        W23802  16.655  22.333  11.936
22938W        W23803  15.312  25.027  11.619
22939W        W23804  14.683  22.526  12.218
22940W        W23805  17.469  23.133  12.692
22941W        W23806  14.927  24.750  12.607
22942W        W23807  16.268  25.100  11.477
22943W        W23808  17.660  23.126  10.941
22944W        W23809  14.683  24.884  13.105
22945W        W23810  15.474  24.456  13.585
22946W        W23811  15.847  23.816  12.204
22947W        W23812  15.869  22.221  13.297
22948W        W23813  18.098  21.983  12.594
22949W        W23814  15.317  23.855  11.062
22950W        W23815  14.972  22.888  11.241
22951W        W23816  15.034  24.844  12.035
22952W        W23817  16.165  24.327  12.283
22953W        W23818  17.497  25.186  13.997
22954W        W23819  16.423  22.828  11.681
22955W        W23820  17.806  25.226  12.453
22956W        W23821  17.483  23.079  14.051
22957W        W23822  18.196  24.735  12.185
22958W        W23823  16.823  24.027  13.669
22959W        W23824  14.589  23.578  11.875
22960W        W23825  15.700  23.993  13.448
22961W        W23826  16.904  23.257  11.826
22962W        W23827  16.781  23.747  11.930
22963W        W23828  15.124  23.167  13.404
22964W        W23829  15.109  23.043  14.326
22965W        W23830  14.999  21.960  12.485
22966W        W23831  16.767  22.307  13.046
22967W        W23832  16.415  22.492  14.209
22968W        W23833  16.770  22.641  11.387
22969W        W23834  17.953  25.034  14.141
22970W        W23835  16.920  22.115  14.180
22971W        W23836  17.939  24.416  14.302
22972W        W23837  17.369  22.583  13.898
22973W        W23838  17.169  22.521  12.168
22974W        W23839  17.562  23.655  14.572
22975W        W23840  15.302  25.231  12.558
22976W        W23841  15.960  22.948  11.544
22977W        W23842  15.529  22.232  14.208
22978W        W23843  17.581  22.716  11.889
22979W        W23844  17.948  23.198  11.834
22980W        W23845  15.691  25.415  14.305
22981W        W23846  15.617  21.951  11.540
22982W        W23847  17.938  22.485  12.575
22983W        W23848  18.088  24.734  11.020
22984W        W23849  14.995  23.937  12.722
22985W        W23850  16.912  22.524  10.952
22986W        W23851  18.046  24.856  12.672
22987W        W23852  18.085  22.050  13.422
22988W        W23853  16.530  23.262  13.976
22989W        W23854  16.623  24.601  11.679
22990W        W23855  17.023  23.895  14.419
22991W        W23856  16.697  21.872  12.728
22992W        W23857  15.309  22.775  12.791
22993W        W23858  14.863  23.975  13.565
22994W        W23859  16.722  25.168  12.271
22995W        W23860  17.916  22.765  13.143
22996W        W23861  16.553  25.112  13.910
22997W        W23862  17.896  24.171  11.115
22998W        W23863  16.331  23.654  12.176
22999W        W23864  18.183  22.165  13.917
23000W        W23865  16.332  24.000  13.511
23001W        W23866  16.549  22.886  12.956
23002W        W23867  17.401  23.184  11.794
23003W        W23868  17.688  22.917  11.436
23004W        W23869  17.497  24.957  11.825
23005W        W23870  17.331  24.560  12.621
23006W        W23871  17.227  23.639  11.599
23007W        W23872  16.660  23.849  12.585
23008W        W23873  17.541  23.637  12.652
23009W        W23874  14.916  22.652  13.076
23010W        W23875  17.694  23.704  13.903
23011W        W23876  18.045  25.322  13.049
23012W        W23877  15.975  24.766  12.451
23013W        W23878  16.982  25.299  13.775
23014W        W23879  16.976  22.629  13.539
23015W        W23880  16.183  25.337  13.600
23016W        W23881  17.880  22.291  12.066
23017W        W23882  17.671  23.610  13.367
23018W        W23883  14.654  22.931  13.405
23019W        W23884  17.514  22.726  12.423
23020W        W23885  17.925  22.877  14.200
23021W        W23886  16.810  24.576  12.418
23022W        W23887  16.066  25.167  12.031
23023W        W23888  15.181  22.347  11.289
23024W        W23889  16.285  22.001  13.099
23025W        W23890  15.313  25.121  10.947
23026W        W23891  15.687  23.587  11.698
23027W        W23892  16.341  24.216  14.011
23028W        W23893  16.171  22.574  12.001
23029W        W23894  17.527  22.171  12.429
23030W        W23895  17.247  25.453  12.757
23031W        W23896  16.659  25.101  13.097
23032W        W23897  16.055  24.138  13.058
23033W        W23898  17.825  24.861  13.184
23034W        W23899  15.519  22.364  11.953
23035W        W23900  16.041  24.661  12.913
23036W        W23901  15.524  22.592  10.978
23037W        W23902  16.325  23.201  13.372
23038W        W23903  17.173  22.067  13.242
23039W        W23904  14.593  23.910  13.127
23040W        W23905  16.297  23.728  11.285
23041W        W23906  15.565  22.043  11.055
23042W        W23907  16.303  23.124  12.106
23043W        W23908  17.273  22.100  13.805
23044W        W23909  15.861  24.112  13.914
23045W        W23910  16.665  23.894  14.131
23046W        W23911  17.282  23.924  14.024
23047W        W23912  16.566  22.064  14.529
23048W        W23913  15.788  22.680  12.922
23049W        W23914  15.214  22.636  12.320
23050W        W23915  15.000  25.348  11.996
23051W        W23916  16.332  24.678  14.121
23052W        W23917  15.367  24.163  11.480
23053W        W23918  17.047  23.548  12.701
23054W        W23919  17.327  23.347  13.100
23055W        W23920  16.532  24.021  13.034
23056W        W23921  17.002  24.395  11.166
23057W        W23922  16.674  22.416  12.494
23058W        W23923  18.153  22.694  11.762
23059W        W23924  14.647  25.283  13.793
23060W        W23925  15.064  24.509  13.325
23061W        W23926  14.631  25.355  11.557
23062W        W23927  16.530  22.625  13.363
23063W        W23928  15.893  24.648  11.212
23064W        W23929  17.798  25.030  11.398
23065W        W23930  16.773  23.683  11.412
23066W        W23931  15.616  22.874  11.929
23067W        W23932  16.448  22.784  10.981
23068W        W23933  17.032  24.349  14.159
23069W        W23934  17.385  22.255  11.776
23070W        W23935  14.715  22.103  11.224
23071W        W23936  16.001  24.422  13.514
23072W        W23937  15.800  24.338  12.606
23073W        W23938  15.542  24.290  11.004
23074W        W23939  14.783  24.531  11.772
23075W        W23940  15.287  23.601  14.214
23076W        W23941  15.991  22.161  14.400
23077W        W23942  16.700  22.303  13.756
23078W        W23943  15.895  22.071  12.037
23079W        W23944  16.954  22.148  11.542
23080W        W23945  14.899  22.080  13.119
23081W        W23946  14.947  23.043  12.489
23082W        W23947  17.636  22.151  12.895
23083W        W23948  15.058  22.649  11.709
23084W        W23949  17.629  22.337  13.325
23085W        W23950  18.025  23.540  11.010
23086W        W23951  15.317  22.298  12.829
23087W        W23952  16.431  22.870  13.769
23088W        W23953  14.579  22.560  11.247
23089W        W23954  15.365  23.949  13.808
23090W        W23955  16.723  23.347  12.987
23091W        W23956  16.590  25.426  11.283
23092W        W23957  14.736  23.933  10.980
23093W        W23958  15.471  24.344  14.106
23094W        W23959  14.992  23.511  13.737
23095W        W23960  15.983  23.616  13.531
23096W        W23961  17.751  21.975  13.793
23097W        W23962  18.149  23.585  13.784
23098W        W23963  18.137  23.785  11.470
23099W        W23964  17.000  24.117  11.569
23100W        W23965  17.474  25.417  11.264
23101W        W23966  16.651  23.407  14.406
23102W        W23967  14.981  24.374  14.446
23103W        W23968  18.187  22.296  14.398
23104W        W23969  17.905  23.224  13.019
23105W        W23970  16.213  25.354  14.496
23106W        W23971  16.068  21.983  11.223
23107W        W23972  17.607  24.582  11.166
23108W        W23973  15.376  22.675  14.052
23109W        W23974  15.810  24.669  13.914
23110W        W23975  17.936  22.660  13.712
23111W        W23976  17.147  25.319  11.680
23112W        W23977  17.386  23.938  13.047
23113W        W23978  15.636  22.354  13.714
23114W        W23979  16.105  23.423  14.471
23115W        W23980  15.608  24.602  11.665
23116W        W23981  17.363  24.100  11.929
23117W        W23982  15.131  22.726  13.653
23118W        W23983  16.460  24.788  12.117
23119W        W23984  18.210  23.348  12.298
23120W        W23985  16.432  21.981  14.017
23121W        W23986  17.212  24.686  13.096
23122W        W23987  17.515  25.030  12.804
23123W        W23988  16.734  24.832  11.232
23124W        W23989  14.744  24.724  14.074
23125W        W23990  15.487  22.716  13.312
23126W        W23991  15.457  22.064  12.422
23127W        W23992  17.078  22.906  13.114
23128W        W23993  15.876  24.077  11.314
23129W        W23994  17.874  24.019  12.813
23130W        W23995  15.201  24.777  14.236
23131W        W23996  17.588  25.459  12.033
23132W        W23997  15.687  22.479  12.478
23133W        W23998  15.456  23.972  12.568
23134W        W23999  15.769  25.383  13.318
23135W        W24000  17.836  25.479  14.350
23136W        W24001  16.995  23.667  13.283
23137W        W24002  14.844  23.465  11.198
23138W        W24003  17.978  25.123  11.895
23139W        W24004  17.815  22.447  11.514
23140W        W24005  15.954  21.966  13.917
23141W        W24006  17.660  24.768  12.375
23142W        W24007  17.689  23.324  12.280
23143W        W24008  15.806  22.997  12.496
23144W        W24009  16.051  23.259  13.820
23145W        W24010  17.162  24.412  13.683
23146W        W24011  15.812  22.866  13.795
23147W        W24012  15.791  25.332  12.411
23148W        W24013  15.108  25.291  14.045
23149W        W24014  15.220  24.652  11.175
23150W        W24015  17.737  24.410  11.985
23151W        W24016  15.341  23.202  13.871
23152W        W24017  18.114  23.132  11.352
23153W        W24018  15.859  24.189  11.823
23154W        W24019  16.958  23.571  13.904
23155W        W24020  16.849  23.199  13.448
23156W        W24021  15.409  23.571  13.477
23157W        W24022  17.619  25.459  13.306
23158W        W24023  17.410  22.093  14.300
23159W        W24024  15.074  22.243  13.887
23160W        W24025  15.413  23.266  12.940
23161W        W24026  15.782  23.080  11.062
23162W        W24027  14.585  24.839  13.607
23163W        W24028  16.170  23.548  13.050
23164W        W24029  15.993  22.573  11.155
23165W        W24030  15.128  23.389  11.936
23166W        W24031  14.899  25.241  13.373
23167W        W24032  17.694  23.467  11.481
23168W        W24033  17.225  24.592  12.130
23169W        W24034  14.823  23.516  14.307
23170W        W24035  17.789  21.980  11.603
23171W        W24036  17.309  24.455  11.614
23172W        W24037  16.211  23.513  11.699
23173W        W24038  17.398  22.317  11.222
23174W        W24039  17.463  22.924  13.408
23175W        W24040  15.172  23.517  12.615
23176W        W24041  15.466  24.456  12.264
23177W        W24042  17.229  23.076  12.229
23178W        W24043  16.252  22.455  12.925
23179W        W24044  18.214  24.366  13.436
23180W        W24045  18.132  22.353  12.997
23181W        W24046  14.671  25.183  12.373
23182W        W24047  15.180  24.370  11.909
23183W        W24048  15.095  21.987  14.462
23184W        W24049  16.214  24.840  14.564
23185W        W24050  17.969  23.808  12.354
23186W        W24051  17.323  23.985  11.234
23187W        W24052  16.618  25.506  13.446
23188W        W24053  17.475  24.228  14.483
23189W        W24054  16.290  21.938  11.763
23190W        W24055  17.003  22.807  12.622
23191W        W24056  14.689  24.394  12.954
23192W        W24057  15.942  22.356  11.595
23193W        W24058  15.746  23.840  14.444
23194W        W24059  16.740  22.821  12.158
23195W        W24060  16.945  24.231  13.280
23196W        W24061  15.690  24.819  14.438
23197W        W24062  15.541  22.616  11.452
23198W        W24063  17.058  22.758  11.777
23199W        W24064  17.016  24.866  14.014
23200W        W24065  15.701  23.458  12.613
23201W        W24066  15.356  25.156  13.478
23202W        W24067  18.101  25.273  11.079
23203W        W24068  14.964  23.945  14.075
23204W        W24069  16.959  24.207  12.763
23205W        W24070  15.395  23.856  12.005
23206W        W24071  15.766  24.863  13.400
23207W        W24072  16.144  22.282  12.441
23208W        W24073  14.755  24.266  11.371
23209W        W24074  16.274  23.217  11.241
23210W        W24075  14.920  23.766  12.260
23211W        W24076  16.210  22.408  13.724
23212W        W24077  17.882  22.117  11.151
23213W        W24078  17.975  23.863  14.250
23214W        W24079  16.629  25.120  14.402
23215W        W24080  18.187  24.214  13.924
23216W        W24081  17.595  25.012  14.535
23217W        W24082  15.334  25.468  13.013
23218W        W24083  18.193  24.090  11.887
23219W        W24084  16.723  23.357  12.400
23220W        W24085  16.490  21.969  12.290
23221W        W24086  15.549  24.953  12.127
23222W        W24087  16.048  22.694  13.352
23223W        W24088  15.748  22.063  12.821
23224W        W24089  14.811  24.885  11.369
23225W        W24090  16.627  24.249  12.087
23226W        W24091  15.502  25.044  13.966
23227W        W24092  14.979  23.867  11.662
23228W        W24093  14.864  22.410  12.661
23229W        W24094  16.412  24.375  12.718
23230W        W24095  14.664  22.229  11.738
23231W        W24096  17.328  23.435  13.665
23232W        W24097  17.205  22.821  11.237
23233W        W24098  17.722  24.493  12.885
23234W        W24099  16.383  24.977  12.716
23235W        W24100  15.795  25.081  11.627
23236W        W24101  17.077  21.984  11.057
23237W        W24102  14.877  25.244  12.798
23238W        W24103  17.074  23.002  14.433
23239W        W24104  15.057  22.532  14.432
23240W        W24105  14.788  23.132  11.765
23241W        W24106  15.479  23.121  11.490
23242W        W24107  17.242  23.448  14.307
23243W        W24108  15.585  23.729  13.016
23244W        W24109  17.059  22.015  12.136
23245W        W24110  16.190  25.446  12.639
23246W        W24111  17.404  24.908  13.576
23247W        W24112  16.988  25.057  12.687
23248W        W24113  17.007  24.037  12.281
23249W        W24114  16.469  22.262  11.352
23250W        W24115  18.150  21.890  12.074
23251W        W24116  15.838  23.525  11.237
23252W        W24117  18.004  22.862  12.227
23253W        W24118  16.696  24.032  11.104
23254W        W24119  17.632  24.232  13.852
23255W        W24120  17.286  24.933  11.319
23256W        W24121  15.901  22.608  14.225
23257W        W24122  15.721  23.192  13.466
23258W        W24123  17.813  24.687  13.743
23259W        W24124  16.913  22.637  14.120
23260W        W24125  14.757  23.108  13.897
23261W        W24126  16.517  23.585  13.623
23262W        W24127  14.874  24.343  12.280
23263W        W24128  15.021  23.640  13.170
23264W        W24129  17.338  23.926  13.520
23265W        W24130  17.110  25.306  14.331
23266W        W24131  17.006  23.045  13.884
23267W        W24132  17.283  25.099  12.289
23268W        W24133  16.285  24.819  13.612
23269W        W24134  15.770  25.174  12.881
23270W        W24135  17.575  24.345  13.300
23271W        W24136  16.625  24.417  14.437
23272W        W24137  15.230  24.370  12.776
23273W        W24138  17.576  24.129  12.421
23274W        W24139  17.217  25.195  13.172
23275W        W24140  15.195  24.924  13.042
23276W        W24141  16.216  22.976  14.252
23277W        W24142  16.667  25.142  11.763
23278W        W24143  15.975  24.397  14.401
23279W        W24144  16.101  24.635  11.778
23280W        W24145  15.322  23.375  11.037
23281W        W24146  14.661  25.461  17.936
23282W        W24147  15.037  24.354  17.459
23283W        W24148  17.742  24.084  15.229
23284W        W24149  17.872  25.169  17.256
23285W        W24150  15.790  25.160  14.782
23286W        W24151  15.873  23.312  15.765
23287W        W24152  15.388  23.160  15.929
23288W        W24153  16.379  23.975  15.363
23289W        W24154  16.054  25.067  17.718
23290W        W24155  14.703  22.628  17.681
23291W        W24156  15.465  21.908  17.483
23292W        W24157  17.159  22.296  16.370
23293W        W24158  16.808  23.167  14.940
23294W        W24159  17.378  22.601  18.031
23295W        W24160  14.744  22.393  17.156
23296W        W24161  14.843  25.012  18.177
23297W        W24162  16.365  24.402  14.909
23298W        W24163  14.797  23.185  16.602
23299W        W24164  15.690  23.076  17.839
23300W        W24165  18.149  22.935  16.338
23301W        W24166  17.913  23.978  17.197
23302W        W24167  16.221  23.311  16.224
23303W        W24168  16.767  24.650  16.593
23304W        W24169  15.267  24.084  16.825
23305W        W24170  14.626  23.612  16.396
23306W        W24171  15.662  23.584  17.588
23307W        W24172  17.933  23.367  17.842
23308W        W24173  15.549  24.811  16.287
23309W        W24174  16.670  24.500  17.421
23310W        W24175  15.890  23.140  16.646
23311W        W24176  16.182  23.924  16.289
23312W        W24177  17.179  24.697  18.137
23313W        W24178  16.258  24.017  18.147
23314W        W24179  16.239  23.733  17.625
23315W        W24180  14.648  23.124  18.147
23316W        W24181  17.480  24.659  17.746
23317W        W24182  15.061  22.241  15.744
23318W        W24183  15.588  24.499  16.743
23319W        W24184  18.051  24.282  16.033
23320W        W24185  17.464  22.682  16.600
23321W        W24186  17.749  22.635  14.695
23322W        W24187  18.214  23.436  17.001
23323W        W24188  16.181  25.143  16.754
23324W        W24189  17.955  24.609  15.192
23325W        W24190  15.084  25.395  14.946
23326W        W24191  15.477  25.441  15.622
23327W        W24192  15.274  22.195  17.048
23328W        W24193  17.897  23.213  17.323
23329W        W24194  17.302  23.635  15.782
23330W        W24195  17.268  23.323  14.809
23331W        W24196  16.476  24.467  16.949
23332W        W24197  16.282  22.797  16.148
23333W        W24198  16.882  24.884  17.142
23334W        W24199  17.753  23.675  15.564
23335W        W24200  16.655  22.333  15.580
23336W        W24201  15.312  25.027  15.263
23337W        W24202  14.683  22.526  15.862
23338W        W24203  17.469  23.133  16.336
23339W        W24204  14.927  24.750  16.251
23340W        W24205  16.268  25.100  15.121
23341W        W24206  17.660  23.126  14.585
23342W        W24207  14.683  24.884  16.749
23343W        W24208  15.474  24.456  17.229
23344W        W24209  15.847  23.816  15.848
23345W        W24210  15.869  22.221  16.941
23346W        W24211  18.098  21.983  16.238
23347W        W24212  15.317  23.855  14.706
23348W        W24213  14.972  22.888  14.885
23349W        W24214  15.034  24.844  15.679
23350W        W24215  16.165  24.327  15.927
23351W        W24216  17.497  25.186  17.641
23352W        W24217  16.423  22.828  15.325
23353W        W24218  17.806  25.226  16.097
23354W        W24219  17.483  23.079  17.695
23355W        W24220  18.196  24.735  15.829
23356W        W24221  16.823  24.027  17.313
23357W        W24222  14.589  23.578  15.519
23358W        W24223  15.700  23.993  17.092
23359W        W24224  16.904  23.257  15.470
23360W        W24225  16.781  23.747  15.574
23361W        W24226  15.124  23.167  17.048
23362W        W24227  15.109  23.043  17.970
23363W        W24228  14.999  21.960  16.129
23364W        W24229  16.767  22.307  16.690
23365W        W24230  16.415  22.492  17.853
23366W        W24231  16.770  22.641  15.031
23367W        W24232  17.953  25.034  17.785
23368W        W24233  16.920  22.115  17.824
23369W        W24234  17.939  24.416  17.946
23370W        W24235  17.369  22.583  17.542
23371W        W24236  17.169  22.521  15.812
23372W        W24237  17.562  23.655  18.216
23373W        W24238  15.302  25.231  16.202
23374W        W24239  15.960  22.948  15.188
23375W        W24240  15.529  22.232  17.852
23376W        W24241  17.581  22.716  15.533
23377W        W24242  17.948  23.198  15.478
23378W        W24243  15.691  25.415  17.949
23379W        W24244  15.617  21.951  15.184
23380W        W24245  17.938  22.485  16.219
23381W        W24246  18.088  24.734  14.664
23382W        W24247  14.995  23.937  16.366
23383W        W24248  16.912  22.524  14.596
23384W        W24249  18.046  24.856  16.316
23385W        W24250  18.085  22.050  17.066
23386W        W24251  16.530  23.262  17.620
23387W        W24252  16.623  24.601  15.323
23388W        W24253  17.023  23.895  18.063
23389W        W24254  16.697  21.872  16.372
23390W        W24255  15.309  22.775  16.435
23391W        W24256  14.863  23.975  17.209
23392W        W24257  16.722  25.168  15.915
23393W        W24258  17.916  22.765  16.787
23394W        W24259  16.553  25.112  17.554
23395W        W24260  17.896  24.171  14.759
23396W        W24261  16.331  23.654  15.820
23397W        W24262  18.183  22.165  17.561
23398W        W24263  16.332  24.000  17.155
23399W        W24264  16.549  22.886  16.600
23400W        W24265  17.401  23.184  15.438
23401W        W24266  17.688  22.917  15.080
23402W        W24267  17.497  24.957  15.469
23403W        W24268  17.331  24.560  16.265
23404W        W24269  17.227  23.639  15.243
23405W        W24270  16.660  23.849  16.229
23406W        W24271  17.541  23.637  16.296
23407W        W24272  14.916  22.652  16.720
23408W        W24273  17.694  23.704  17.547
23409W        W24274  18.045  25.322  16.693
23410W        W24275  15.975  24.766  16.095
23411W        W24276  16.982  25.299  17.419
23412W        W24277  16.976  22.629  17.183
23413W        W24278  16.183  25.337  17.244
23414W        W24279  17.880  22.291  15.710
23415W        W24280  17.671  23.610  17.011
23416W        W24281  14.654  22.931  17.049
23417W        W24282  17.514  22.726  16.067
23418W        W24283  17.925  22.877  17.844
23419W        W24284  16.810  24.576  16.062
23420W        W24285  16.066  25.167  15.675
23421W        W24286  15.181  22.347  14.933
23422W        W24287  16.285  22.001  16.743
23423W        W24288  15.313  25.121  14.591
23424W        W24289  15.687  23.587  15.342
23425W        W24290  16.341  24.216  17.655
23426W        W24291  16.171  22.574  15.645
23427W        W24292  17.527  22.171  16.073
23428W        W24293  17.247  25.453  16.401
23429W        W24294  16.659  25.101  16.741
23430W        W24295  16.055  24.138  16.702
23431W        W24296  17.825  24.861  16.828
23432W        W24297  15.519  22.364  15.597
23433W        W24298  16.041  24.661  16.557
23434W        W24299  15.524  22.592  14.622
23435W        W24300  16.325  23.201  17.016
23436W        W24301  17.173  22.067  16.886
23437W        W24302  14.593  23.910  16.771
23438W        W24303  16.297  23.728  14.929
23439W        W24304  15.565  22.043  14.699
23440W        W24305  16.303  23.124  15.750
23441W        W24306  17.273  22.100  17.449
23442W        W24307  15.861  24.112  17.558
23443W        W24308  16.665  23.894  17.775
23444W        W24309  17.282  23.924  17.668
23445W        W24310  16.566  22.064  18.173
23446W        W24311  15.788  22.680  16.566
23447W        W24312  15.214  22.636  15.964
23448W        W24313  15.000  25.348  15.640
23449W        W24314  16.332  24.678  17.765
23450W        W24315  15.367  24.163  15.124
23451W        W24316  17.047  23.548  16.345
23452W        W24317  17.327  23.347  16.744
23453W        W24318  16.532  24.021  16.678
23454W        W24319  17.002  24.395  14.810
23455W        W24320  16.674  22.416  16.138
23456W        W24321  18.153  22.694  15.406
23457W        W24322  14.647  25.283  17.437
23458W        W24323  15.064  24.509  16.969
23459W        W24324  14.631  25.355  15.201
23460W        W24325  16.530  22.625  17.007
23461W        W24326  15.893  24.648  14.856
23462W        W24327  17.798  25.030  15.042
23463W        W24328  16.773  23.683  15.056
23464W        W24329  15.616  22.874  15.573
23465W        W24330  16.448  22.784  14.625
23466W        W24331  17.032  24.349  17.803
23467W        W24332  17.385  22.255  15.420
23468W        W24333  14.715  22.103  14.868
23469W        W24334  16.001  24.422  17.158
23470W        W24335  15.800  24.338  16.250
23471W        W24336  15.542  24.290  14.648
23472W        W24337  14.783  24.531  15.416
23473W        W24338  15.287  23.601  17.858
23474W        W24339  15.991  22.161  18.044
23475W        W24340  16.700  22.303  17.400
23476W        W24341  15.895  22.071  15.681
23477W        W24342  16.954  22.148  15.186
23478W        W24343  14.899  22.080  16.763
23479W        W24344  14.947  23.043  16.133
23480W        W24345  17.636  22.151  16.539
23481W        W24346  15.058  22.649  15.353
23482W        W24347  17.629  22.337  16.969
23483W        W24348  18.025  23.540  14.654
23484W        W24349  15.317  22.298  16.473
23485W        W24350  16.431  22.870  17.413
23486W        W24351  14.579  22.560  14.891
23487W        W24352  15.365  23.949  17.452
23488W        W24353  16.723  23.347  16.631
23489W        W24354  16.590  25.426  14.927
23490W        W24355  14.736  23.933  14.624
23491W        W24356  15.471  24.344  17.750
23492W        W24357  14.992  23.511  17.381
23493W        W24358  15.983  23.616  17.175
23494W        W24359  17.751  21.975  17.437
23495W        W24360  18.149  23.585  17.428
23496W        W24361  18.137  23.785  15.114
23497W        W24362  17.000  24.117  15.213
23498W        W24363  17.474  25.417  14.908
23499W        W24364  16.651  23.407  18.050
23500W        W24365  14.981  24.374  18.090
23501W        W24366  18.187  22.296  18.042
23502W        W24367  17.905  23.224  16.663
23503W        W24368  16.213  25.354  18.140
23504W        W24369  16.068  21.983  14.867
23505W        W24370  17.607  24.582  14.810
23506W        W24371  15.376  22.675  17.696
23507W        W24372  15.810  24.669  17.558
23508W        W24373  17.936  22.660  17.356
23509W        W24374  17.147  25.319  15.324
23510W        W24375  17.386  23.938  16.691
23511W        W24376  15.636  22.354  17.358
23512W        W24377  16.105  23.423  18.115
23513W        W24378  15.608  24.602  15.309
23514W        W24379  17.363  24.100  15.573
23515W        W24380  15.131  22.726  17.297
23516W        W24381  16.460  24.788  15.761
23517W        W24382  18.210  23.348  15.942
23518W        W24383  16.432  21.981  17.661
23519W        W24384  17.212  24.686  16.740
23520W        W24385  17.515  25.030  16.448
23521W        W24386  16.734  24.832  14.876
23522W        W24387  14.744  24.724  17.718
23523W        W24388  15.487  22.716  16.956
23524W        W24389  15.457  22.064  16.066
23525W        W24390  17.078  22.906  16.758
23526W        W24391  15.876  24.077  14.958
23527W        W24392  17.874  24.019  16.457
23528W        W24393  15.201  24.777  17.880
23529W        W24394  17.588  25.459  15.677
23530W        W24395  15.687  22.479  16.122
23531W        W24396  15.456  23.972  16.212
23532W        W24397  15.769  25.383  16.962
23533W        W24398  17.836  25.479  17.994
23534W        W24399  16.995  23.667  16.927
23535W        W24400  14.844  23.465  14.842
23536W        W24401  17.978  25.123  15.539
23537W        W24402  17.815  22.447  15.158
23538W        W24403  15.954  21.966  17.561
23539W        W24404  17.660  24.768  16.019
23540W        W24405  17.689  23.324  15.924
23541W        W24406  15.806  22.997  16.140
23542W        W24407  16.051  23.259  17.464
23543W        W24408  17.162  24.412  17.327
23544W        W24409  15.812  22.866  17.439
23545W        W24410  15.791  25.332  16.055
23546W        W24411  15.108  25.291  17.689
23547W        W24412  15.220  24.652  14.819
23548W        W24413  17.737  24.410  15.629
23549W        W24414  15.341  23.202  17.515
23550W        W24415  18.114  23.132  14.996
23551W        W24416  15.859  24.189  15.467
23552W        W24417  16.958  23.571  17.548
23553W        W24418  16.849  23.199  17.092
23554W        W24419  15.409  23.571  17.121
23555W        W24420  17.619  25.459  16.950
23556W        W24421  17.410  22.093  17.944
23557W        W24422  15.074  22.243  17.531
23558W        W24423  15.413  23.266  16.584
23559W        W24424  15.782  23.080  14.706
23560W        W24425  14.585  24.839  17.251
23561W        W24426  16.170  23.548  16.694
23562W        W24427  15.993  22.573  14.799
23563W        W24428  15.128  23.389  15.580
23564W        W24429  14.899  25.241  17.017
23565W        W24430  17.694  23.467  15.125
23566W        W24431  17.789  22.383  17.811
23567W        W24432  17.225  24.592  15.774
23568W        W24433  14.823  23.516  17.951
23569W        W24434  17.789  21.980  15.247
23570W        W24435  17.309  24.455  15.258
23571W        W24436  16.211  23.513  15.343
23572W        W24437  17.398  22.317  14.866
23573W        W24438  17.463  22.924  17.052
23574W        W24439  15.172  23.517  16.259
23575W        W24440  15.466  24.456  15.908
23576W        W24441  17.229  23.076  15.873
23577W        W24442  16.252  22.455  16.569
23578W        W24443  18.214  24.366  17.080
23579W        W24444  18.132  22.353  16.641
23580W        W24445  14.671  25.183  16.017
23581W        W24446  15.180  24.370  15.553
23582W        W24447  15.095  21.987  18.106
23583W        W24448  16.214  24.840  18.208
23584W        W24449  17.969  23.808  15.998
23585W        W24450  17.323  23.985  14.878
23586W        W24451  16.618  25.506  17.090
23587W        W24452  17.475  24.228  18.127
23588W        W24453  16.290  21.938  15.407
23589W        W24454  17.003  22.807  16.266
23590W        W24455  14.689  24.394  16.598
23591W        W24456  15.942  22.356  15.239
23592W        W24457  15.746  23.840  18.088
23593W        W24458  16.740  22.821  15.802
23594W        W24459  16.945  24.231  16.924
23595W        W24460  15.099  24.836  17.359
23596W        W24461  15.690  24.819  18.082
23597W        W24462  15.541  22.616  15.096
23598W        W24463  17.058  22.758  15.421
23599W        W24464  17.016  24.866  17.658
23600W        W24465  15.701  23.458  16.257
23601W        W24466  15.356  25.156  17.122
23602W        W24467  18.101  25.273  14.723
23603W        W24468  14.964  23.945  17.719
23604W        W24469  16.959  24.207  16.407
23605W        W24470  15.395  23.856  15.649
23606W        W24471  15.766  24.863  17.044
23607W        W24472  16.144  22.282  16.085
23608W        W24473  14.755  24.266  15.015
23609W        W24474  16.274  23.217  14.885
23610W        W24475  14.920  23.766  15.904
23611W        W24476  16.210  22.408  17.368
23612W        W24477  17.882  22.117  14.795
23613W        W24478  17.975  23.863  17.894
23614W        W24479  16.629  25.120  18.046
23615W        W24480  18.187  24.214  17.568
23616W        W24481  17.595  25.012  18.179
23617W        W24482  15.334  25.468  16.657
23618W        W24483  18.193  24.090  15.531
23619W        W24484  16.723  23.357  16.044
23620W        W24485  16.490  21.969  15.934
23621W        W24486  15.549  24.953  15.771
23622W        W24487  16.048  22.694  16.996
23623W        W24488  15.748  22.063  16.465
23624W        W24489  14.811  24.885  15.013
23625W        W24490  16.627  24.249  15.731
23626W        W24491  15.502  25.044  17.610
23627W        W24492  14.979  23.867  15.306
23628W        W24493  14.864  22.410  16.305
23629W        W24494  16.412  24.375  16.362
23630W        W24495  14.664  22.229  15.382
23631W        W24496  17.328  23.435  17.309
23632W        W24497  17.205  22.821  14.881
23633W        W24498  17.722  24.493  16.529
23634W        W24499  16.383  24.977  16.360
23635W        W24500  15.795  25.081  15.271
23636W        W24501  17.077  21.984  14.701
23637W        W24502  14.877  25.244  16.442
23638W        W24503  17.074  23.002  18.077
23639W        W24504  15.057  22.532  18.076
23640W        W24505  14.788  23.132  15.409
23641W        W24506  15.479  23.121  15.134
23642W        W24507  17.242  23.448  17.951
23643W        W24508  15.585  23.729  16.660
23644W        W24509  17.059  22.015  15.780
23645W        W24510  16.190  25.446  16.283
23646W        W24511  17.404  24.908  17.220
23647W        W24512  16.988  25.057  16.331
23648W        W24513  17.007  24.037  15.925
23649W        W24514  16.469  22.262  14.996
23650W        W24515  18.150  21.890  15.718
23651W        W24516  15.838  23.525  14.881
23652W        W24517  18.004  22.862  15.871
23653W        W24518  16.696  24.032  14.748
23654W        W24519  17.632  24.232  17.496
23655W        W24520  17.286  24.933  14.963
23656W        W24521  15.901  22.608  17.869
23657W        W24522  15.721  23.192  17.110
23658W        W24523  17.813  24.687  17.387
23659W        W24524  16.913  22.637  17.764
23660W        W24525  14.757  23.108  17.541
23661W        W24526  16.517  23.585  17.267
23662W        W24527  14.874  24.343  15.924
23663W        W24528  15.021  23.640  16.814
23664W        W24529  17.338  23.926  17.164
23665W        W24530  17.110  25.306  17.975
23666W        W24531  17.006  23.045  17.528
23667W        W24532  17.283  25.099  15.933
23668W        W24533  16.285  24.819  17.256
23669W        W24534  15.770  25.174  16.525
23670W        W24535  17.575  24.345  16.944
23671W        W24536  16.625  24.417  18.081
23672W        W24537  15.230  24.370  16.420
23673W        W24538  17.576  24.129  16.065
23674W        W24539  17.217  25.195  16.816
23675W        W24540  15.195  24.924  16.686
23676W        W24541  16.216  22.976  17.896
23677W        W24542  16.667  25.142  15.407
23678W        W24543  15.975  24.397  18.045
23679W        W24544  16.101  24.635  15.422
23680W        W24545  15.322  23.375  14.681
23681W        W24546  14.661  25.461  21.580
23682W        W24547  15.037  24.354  21.103
23683W        W24548  17.742  24.084  18.873
23684W        W24549  17.872  25.169  20.900
23685W        W24550  15.790  25.160  18.426
23686W        W24551  15.873  23.312  19.409
23687W        W24552  15.388  23.160  19.573
23688W        W24553  16.379  23.975  19.007
23689W        W24554  16.054  25.067  21.362
23690W        W24555  14.703  22.628  21.325
23691W        W24556  15.465  21.908  21.127
23692W        W24557  17.159  22.296  20.014
23693W        W24558  16.808  23.167  18.584
23694W        W24559  17.378  22.601  21.675
23695W        W24560  14.744  22.393  20.800
23696W        W24561  14.843  25.012  21.821
23697W        W24562  16.365  24.402  18.553
23698W        W24563  14.797  23.185  20.246
23699W        W24564  15.690  23.076  21.483
23700W        W24565  18.149  22.935  19.982
23701W        W24566  17.913  23.978  20.841
23702W        W24567  16.221  23.311  19.868
23703W        W24568  16.767  24.650  20.237
23704W        W24569  15.267  24.084  20.469
23705W        W24570  14.626  23.612  20.040
23706W        W24571  15.662  23.584  21.232
23707W        W24572  17.933  23.367  21.486
23708W        W24573  15.549  24.811  19.931
23709W        W24574  16.670  24.500  21.065
23710W        W24575  15.890  23.140  20.290
23711W        W24576  16.182  23.924  19.933
23712W        W24577  17.179  24.697  21.781
23713W        W24578  16.258  24.017  21.791
23714W        W24579  16.239  23.733  21.269
23715W        W24580  14.648  23.124  21.791
23716W        W24581  17.480  24.659  21.390
23717W        W24582  15.061  22.241  19.388
23718W        W24583  15.588  24.499  20.387
23719W        W24584  18.051  24.282  19.677
23720W        W24585  17.464  22.682  20.244
23721W        W24586  17.749  22.635  18.339
23722W        W24587  18.214  23.436  20.645
23723W        W24588  16.181  25.143  20.398
23724W        W24589  17.955  24.609  18.836
23725W        W24590  15.084  25.395  18.590
23726W        W24591  15.477  25.441  19.266
23727W        W24592  15.274  22.195  20.692
23728W        W24593  17.897  23.213  20.967
23729W        W24594  17.302  23.635  19.426
23730W        W24595  17.268  23.323  18.453
23731W        W24596  16.476  24.467  20.593
23732W        W24597  16.282  22.797  19.792
23733W        W24598  16.882  24.884  20.786
23734W        W24599  17.753  23.675  19.208
23735W        W24600  16.655  22.333  19.224
23736W        W24601  15.312  25.027  18.907
23737W        W24602  14.683  22.526  19.506
23738W        W24603  17.469  23.133  19.980
23739W        W24604  14.927  24.750  19.895
23740W        W24605  16.268  25.100  18.765
23741W        W24606  17.660  23.126  18.229
23742W        W24607  14.683  24.884  20.393
23743W        W24608  15.474  24.456  20.873
23744W        W24609  15.847  23.816  19.492
23745W        W24610  15.869  22.221  20.585
23746W        W24611  18.098  21.983  19.882
23747W        W24612  15.317  23.855  18.350
23748W        W24613  14.972  22.888  18.529
23749W        W24614  15.034  24.844  19.323
23750W        W24615  16.165  24.327  19.571
23751W        W24616  17.497  25.186  21.285
23752W        W24617  16.423  22.828  18.969
23753W        W24618  17.806  25.226  19.741
23754W        W24619  17.483  23.079  21.339
23755W        W24620  18.196  24.735  19.473
23756W        W24621  16.823  24.027  20.957
23757W        W24622  14.589  23.578  19.163
23758W        W24623  15.700  23.993  20.736
23759W        W24624  16.904  23.257  19.114
23760W        W24625  16.781  23.747  19.218
23761W        W24626  15.124  23.167  20.692
23762W        W24627  15.109  23.043  21.614
23763W        W24628  14.999  21.960  19.773
23764W        W24629  16.767  22.307  20.334
23765W        W24630  16.415  22.492  21.497
23766W        W24631  16.770  22.641  18.675
23767W        W24632  17.953  25.034  21.429
23768W        W24633  16.920  22.115  21.468
23769W        W24634  17.939  24.416  21.590
23770W        W24635  17.369  22.583  21.186
23771W        W24636  17.169  22.521  19.456
23772W        W24637  17.562  23.655  21.860
23773W        W24638  15.302  25.231  19.846
23774W        W24639  15.960  22.948  18.832
23775W        W24640  15.529  22.232  21.496
23776W        W24641  17.581  22.716  19.177
23777W        W24642  17.948  23.198  19.122
23778W        W24643  15.691  25.415  21.593
23779W        W24644  15.617  21.951  18.828
23780W        W24645  17.938  22.485  19.863
23781W        W24646  18.088  24.734  18.308
23782W        W24647  14.995  23.937  20.010
23783W        W24648  16.912  22.524  18.240
23784W        W24649  18.046  24.856  19.960
23785W        W24650  18.085  22.050  20.710
23786W        W24651  16.530  23.262  21.264
23787W        W24652  16.623  24.601  18.967
23788W        W24653  17.023  23.895  21.707
23789W        W24654  16.697  21.872  20.016
23790W        W24655  15.309  22.775  20.079
23791W        W24656  14.863  23.975  20.853
23792W        W24657  16.722  25.168  19.559
23793W        W24658  17.916  22.765  20.431
23794W        W24659  16.553  25.112  21.198
23795W        W24660  17.896  24.171  18.403
23796W        W24661  16.331  23.654  19.464
23797W        W24662  18.183  22.165  21.205
23798W        W24663  16.332  24.000  20.799
23799W        W24664  16.549  22.886  20.244
23800W        W24665  17.401  23.184  19.082
23801W        W24666  17.688  22.917  18.724
23802W        W24667  17.497  24.957  19.113
23803W        W24668  17.331  24.560  19.909
23804W        W24669  17.227  23.639  18.887
23805W        W24670  16.660  23.849  19.873
23806W        W24671  17.541  23.637  19.940
23807W        W24672  14.916  22.652  20.364
23808W        W24673  17.694  23.704  21.191
23809W        W24674  18.045  25.322  20.337
23810W        W24675  15.975  24.766  19.739
23811W        W24676  16.982  25.299  21.063
23812W        W24677  16.976  22.629  20.827
23813W        W24678  16.183  25.337  20.888
23814W        W24679  17.880  22.291  19.354
23815W        W24680  17.671  23.610  20.655
23816W        W24681  14.654  22.931  20.693
23817W        W24682  17.514  22.726  19.711
23818W        W24683  17.925  22.877  21.488
23819W        W24684  16.810  24.576  19.706
23820W        W24685  16.066  25.167  19.319
23821W        W24686  15.181  22.347  18.577
23822W        W24687  16.285  22.001  20.387
23823W        W24688  15.313  25.121  18.235
23824W        W24689  15.687  23.587  18.986
23825W        W24690  16.341  24.216  21.299
23826W        W24691  16.171  22.574  19.289
23827W        W24692  17.527  22.171  19.717
23828W        W24693  17.247  25.453  20.045
23829W        W24694  16.659  25.101  20.385
23830W        W24695  16.055  24.138  20.346
23831W        W24696  17.825  24.861  20.472
23832W        W24697  15.519  22.364  19.241
23833W        W24698  16.041  24.661  20.201
23834W        W24699  15.524  22.592  18.266
23835W        W24700  16.325  23.201  20.660
23836W        W24701  17.173  22.067  20.530
23837W        W24702  14.593  23.910  20.415
23838W        W24703  16.297  23.728  18.573
23839W        W24704  15.565  22.043  18.343
23840W        W24705  16.303  23.124  19.394
23841W        W24706  17.273  22.100  21.093
23842W        W24707  15.861  24.112  21.202
23843W        W24708  16.665  23.894  21.419
23844W        W24709  17.282  23.924  21.312
23845W        W24710  16.566  22.064  21.817
23846W        W24711  15.788  22.680  20.210
23847W        W24712  15.214  22.636  19.608
23848W        W24713  15.000  25.348  19.284
23849W        W24714  16.332  24.678  21.409
23850W        W24715  15.367  24.163  18.768
23851W        W24716  17.047  23.548  19.989
23852W        W24717  17.327  23.347  20.388
23853W        W24718  16.532  24.021  20.322
23854W        W24719  17.002  24.395  18.454
23855W        W24720  16.674  22.416  19.782
23856W        W24721  18.153  22.694  19.050
23857W        W24722  14.647  25.283  21.081
23858W        W24723  15.064  24.509  20.613
23859W        W24724  14.631  25.355  18.845
23860W        W24725  16.530  22.625  20.651
23861W        W24726  15.893  24.648  18.500
23862W        W24727  17.798  25.030  18.686
23863W        W24728  16.773  23.683  18.700
23864W        W24729  15.616  22.874  19.217
23865W        W24730  16.448  22.784  18.269
23866W        W24731  17.032  24.349  21.447
23867W        W24732  17.385  22.255  19.064
23868W        W24733  14.715  22.103  18.512
23869W        W24734  16.001  24.422  20.802
23870W        W24735  15.800  24.338  19.894
23871W        W24736  15.542  24.290  18.292
23872W        W24737  14.783  24.531  19.060
23873W        W24738  15.287  23.601  21.502
23874W        W24739  15.991  22.161  21.688
23875W        W24740  16.700  22.303  21.044
23876W        W24741  15.895  22.071  19.325
23877W        W24742  16.954  22.148  18.830
23878W        W24743  14.899  22.080  20.407
23879W        W24744  14.947  23.043  19.777
23880W        W24745  17.636  22.151  20.183
23881W        W24746  15.058  22.649  18.997
23882W        W24747  17.629  22.337  20.613
23883W        W24748  18.025  23.540  18.298
23884W        W24749  15.317  22.298  20.117
23885W        W24750  16.431  22.870  21.057
23886W        W24751  14.579  22.560  18.535
23887W        W24752  15.365  23.949  21.096
23888W        W24753  16.723  23.347  20.275
23889W        W24754  16.590  25.426  18.571
23890W        W24755  14.736  23.933  18.268
23891W        W24756  15.471  24.344  21.394
23892W        W24757  14.992  23.511  21.025
23893W        W24758  15.983  23.616  20.819
23894W        W24759  17.751  21.975  21.081
23895W        W24760  18.149  23.585  21.072
23896W        W24761  18.137  23.785  18.758
23897W        W24762  17.000  24.117  18.857
23898W        W24763  17.474  25.417  18.552
23899W        W24764  16.651  23.407  21.694
23900W        W24765  14.981  24.374  21.734
23901W        W24766  18.187  22.296  21.686
23902W        W24767  17.905  23.224  20.307
23903W        W24768  16.213  25.354  21.784
23904W        W24769  16.068  21.983  18.511
23905W        W24770  17.607  24.582  18.454
23906W        W24771  15.376  22.675  21.340
23907W        W24772  15.810  24.669  21.202
23908W        W24773  17.936  22.660  21.000
23909W        W24774  17.147  25.319  18.968
23910W        W24775  17.386  23.938  20.335
23911W        W24776  15.636  22.354  21.002
23912W        W24777  16.105  23.423  21.759
23913W        W24778  15.608  24.602  18.953
23914W        W24779  17.363  24.100  19.217
23915W        W24780  15.131  22.726  20.941
23916W        W24781  16.460  24.788  19.405
23917W        W24782  18.210  23.348  19.586
23918W        W24783  16.432  21.981  21.305
23919W        W24784  17.212  24.686  20.384
23920W        W24785  17.515  25.030  20.092
23921W        W24786  16.734  24.832  18.520
23922W        W24787  14.744  24.724  21.362
23923W        W24788  15.487  22.716  20.600
23924W        W24789  15.457  22.064  19.710
23925W        W24790  17.078  22.906  20.402
23926W        W24791  15.876  24.077  18.602
23927W        W24792  17.874  24.019  20.101
23928W        W24793  15.201  24.777  21.524
23929W        W24794  17.588  25.459  19.321
23930W        W24795  15.687  22.479  19.766
23931W        W24796  15.456  23.972  19.856
23932W        W24797  15.769  25.383  20.606
23933W        W24798  17.836  25.479  21.638
23934W        W24799  16.995  23.667  20.571
23935W        W24800  14.844  23.465  18.486
23936W        W24801  17.978  25.123  19.183
23937W        W24802  17.815  22.447  18.802
23938W        W24803  15.954  21.966  21.205
23939W        W24804  17.660  24.768  19.663
23940W        W24805  17.689  23.324  19.568
23941W        W24806  15.806  22.997  19.784
23942W        W24807  16.051  23.259  21.108
23943W        W24808  17.162  24.412  20.971
23944W        W24809  15.812  22.866  21.083
23945W        W24810  15.791  25.332  19.699
23946W        W24811  15.108  25.291  21.333
23947W        W24812  15.220  24.652  18.463
23948W        W24813  17.737  24.410  19.273
23949W        W24814  15.341  23.202  21.159
23950W        W24815  18.114  23.132  18.640
23951W        W24816  15.859  24.189  19.111
23952W        W24817  16.958  23.571  21.192
23953W        W24818  16.849  23.199  20.736
23954W        W24819  15.409  23.571  20.765
23955W        W24820  17.619  25.459  20.594
23956W        W24821  17.410  22.093  21.588
23957W        W24822  15.074  22.243  21.175
23958W        W24823  15.413  23.266  20.228
23959W        W24824  15.782  23.080  18.350
23960W        W24825  14.585  24.839  20.895
23961W        W24826  16.170  23.548  20.338
23962W        W24827  15.993  22.573  18.443
23963W        W24828  15.128  23.389  19.224
23964W        W24829  14.899  25.241  20.661
23965W        W24830  17.694  23.467  18.769
23966W        W24831  17.789  22.383  21.455
23967W        W24832  17.225  24.592  19.418
23968W        W24833  14.823  23.516  21.595
23969W        W24834  17.789  21.980  18.891
23970W        W24835  17.309  24.455  18.902
23971W        W24836  16.211  23.513  18.987
23972W        W24837  17.398  22.317  18.510
23973W        W24838  17.463  22.924  20.696
23974W        W24839  15.172  23.517  19.903
23975W        W24840  15.466  24.456  19.552
23976W        W24841  17.229  23.076  19.517
23977W        W24842  16.252  22.455  20.213
23978W        W24843  18.214  24.366  20.724
23979W        W24844  18.132  22.353  20.285
23980W        W24845  14.671  25.183  19.661
23981W        W24846  15.180  24.370  19.197
23982W        W24847  15.095  21.987  21.750
23983W        W24848  16.214  24.840  21.852
23984W        W24849  17.969  23.808  19.642
23985W        W24850  17.323  23.985  18.522
23986W        W24851  16.618  25.506  20.734
23987W        W24852  17.475  24.228  21.771
23988W        W24853  16.290  21.938  19.051
23989W        W24854  17.003  22.807  19.910
23990W        W24855  14.689  24.394  20.242
23991W        W24856  15.942  22.356  18.883
23992W        W24857  15.746  23.840  21.732
23993W        W24858  16.740  22.821  19.446
23994W        W24859  16.945  24.231  20.568
23995W        W24860  15.099  24.836  21.003
23996W        W24861  15.690  24.819  21.726
23997W        W24862  15.541  22.616  18.740
23998W        W24863  17.058  22.758  19.065
23999W        W24864  17.016  24.866  21.302
24000W        W24865  15.701  23.458  19.901
24001W        W24866  15.356  25.156  20.766
24002W        W24867  18.101  25.273  18.367
24003W        W24868  14.964  23.945  21.363
24004W        W24869  16.959  24.207  20.051
24005W        W24870  15.395  23.856  19.293
24006W        W24871  15.766  24.863  20.688
24007W        W24872  16.144  22.282  19.729
24008W        W24873  14.755  24.266  18.659
24009W        W24874  16.274  23.217  18.529
24010W        W24875  14.920  23.766  19.548
24011W        W24876  16.210  22.408  21.012
24012W        W24877  17.882  22.117  18.439
24013W        W24878  17.975  23.863  21.538
24014W        W24879  16.629  25.120  21.690
24015W        W24880  18.187  24.214  21.212
24016W        W24881  17.595  25.012  21.823
24017W        W24882  15.334  25.468  20.301
24018W        W24883  18.193  24.090  19.175
24019W        W24884  16.723  23.357  19.688
24020W        W24885  16.490  21.969  19.578
24021W        W24886  15.549  24.953  19.415
24022W        W24887  16.048  22.694  20.640
24023W        W24888  15.748  22.063  20.109
24024W        W24889  14.811  24.885  18.657
24025W        W24890  16.627  24.249  19.375
24026W        W24891  15.502  25.044  21.254
24027W        W24892  14.979  23.867  18.950
24028W        W24893  14.864  22.410  19.949
24029W        W24894  16.412  24.375  20.006
24030W        W24895  14.664  22.229  19.026
24031W        W24896  17.328  23.435  20.953
24032W        W24897  17.205  22.821  18.525
24033W        W24898  17.722  24.493  20.173
24034W        W24899  16.383  24.977  20.004
24035W        W24900  15.795  25.081  18.915
24036W        W24901  17.077  21.984  18.345
24037W        W24902  14.877  25.244  20.086
24038W        W24903  17.074  23.002  21.721
24039W        W24904  15.057  22.532  21.720
24040W        W24905  14.788  23.132  19.053
24041W        W24906  15.479  23.121  18.778
24042W        W24907  17.242  23.448  21.595
24043W        W24908  15.585  23.729  20.304
24044W        W24909  17.059  22.015  19.424
24045W        W24910  16.190  25.446  19.927
24046W        W24911  17.404  24.908  20.864
24047W        W24912  16.988  25.057  19.975
24048W        W24913  17.007  24.037  19.569
24049W        W24914  16.469  22.262  18.640
24050W        W24915  18.150  21.890  19.362
24051W        W24916  15.838  23.525  18.525
24052W        W24917  18.004  22.862  19.515
24053W        W24918  16.696  24.032  18.392
24054W        W24919  17.632  24.232  21.140
24055W        W24920  17.286  24.933  18.607
24056W        W24921  15.901  22.608  21.513
24057W        W24922  15.721  23.192  20.754
24058W        W24923  17.813  24.687  21.031
24059W        W24924  16.913  22.637  21.408
24060W        W24925  14.757  23.108  21.185
24061W        W24926  16.517  23.585  20.911
24062W        W24927  14.874  24.343  19.568
24063W        W24928  15.021  23.640  20.458
24064W        W24929  17.338  23.926  20.808
24065W        W24930  17.110  25.306  21.619
24066W        W24931  17.006  23.045  21.172
24067W        W24932  17.283  25.099  19.577
24068W        W24933  16.285  24.819  20.900
24069W        W24934  15.770  25.174  20.169
24070W        W24935  17.575  24.345  20.588
24071W        W24936  16.625  24.417  21.725
24072W        W24937  15.230  24.370  20.064
24073W        W24938  17.576  24.129  19.709
24074W        W24939  17.217  25.195  20.460
24075W        W24940  15.195  24.924  20.330
24076W        W24941  16.216  22.976  21.540
24077W        W24942  16.667  25.142  19.051
24078W        W24943  15.975  24.397  21.689
24079W        W24944  16.101  24.635  19.066
24080W        W24945  15.322  23.375  18.325
24081W        W24946  14.661  25.461  25.225
24082W        W24947  15.037  24.354  24.748
24083W        W24948  17.742  24.084  22.518
24084W        W24949  17.872  25.169  24.545
24085W        W24950  15.790  25.160  22.071
24086W        W24951  15.873  23.312  23.054
24087W        W24952  15.388  23.160  23.218
24088W        W24953  16.379  23.975  22.652
24089W        W24954  16.054  25.067  25.007
24090W        W24955  14.703  22.628  24.970
24091W        W24956  15.465  21.908  24.772
24092W        W24957  17.159  22.296  23.659
24093W        W24958  16.808  23.167  22.229
24094W        W24959  17.378  22.601  25.320
24095W        W24960  14.744  22.393  24.445
24096W        W24961  14.843  25.012  25.466
24097W        W24962  16.365  24.402  22.198
24098W        W24963  14.797  23.185  23.891
24099W        W24964  15.690  23.076  25.128
24100W        W24965  18.149  22.935  23.627
24101W        W24966  17.913  23.978  24.486
24102W        W24967  16.221  23.311  23.513
24103W        W24968  16.767  24.650  23.882
24104W        W24969  15.267  24.084  24.114
24105W        W24970  14.626  23.612  23.685
24106W        W24971  15.662  23.584  24.877
24107W        W24972  17.933  23.367  25.131
24108W        W24973  15.549  24.811  23.576
24109W        W24974  16.670  24.500  24.710
24110W        W24975  15.890  23.140  23.935
24111W        W24976  16.182  23.924  23.578
24112W        W24977  17.179  24.697  25.426
24113W        W24978  16.258  24.017  25.436
24114W        W24979  16.239  23.733  24.914
24115W        W24980  14.648  23.124  25.436
24116W        W24981  17.480  24.659  25.035
24117W        W24982  15.061  22.241  23.033
24118W        W24983  15.588  24.499  24.032
24119W        W24984  18.051  24.282  23.322
24120W        W24985  17.464  22.682  23.889
24121W        W24986  17.749  22.635  21.984
24122W        W24987  18.214  23.436  24.290
24123W        W24988  16.181  25.143  24.043
24124W        W24989  17.955  24.609  22.481
24125W        W24990  15.084  25.395  22.235
24126W        W24991  15.477  25.441  22.911
24127W        W24992  15.274  22.195  24.337
24128W        W24993  17.897  23.213  24.612
24129W        W24994  17.302  23.635  23.071
24130W        W24995  17.268  23.323  22.098
24131W        W24996  16.476  24.467  24.238
24132W        W24997  16.282  22.797  23.437
24133W        W24998  16.882  24.884  24.431
24134W        W24999  17.753  23.675  22.853
24135W        W25000  16.655  22.333  22.869
24136W        W25001  15.312  25.027  22.552
24137W        W25002  14.683  22.526  23.151
24138W        W25003  17.469  23.133  23.625
24139W        W25004  14.927  24.750  23.540
24140W        W25005  16.268  25.100  22.410
24141W        W25006  17.660  23.126  21.874
24142W        W25007  14.683  24.884  24.038
24143W        W25008  15.474  24.456  24.518
24144W        W25009  15.847  23.816  23.137
24145W        W25010  15.869  22.221  24.230
24146W        W25011  18.098  21.983  23.527
24147W        W25012  15.317  23.855  21.995
24148W        W25013  14.972  22.888  22.174
24149W        W25014  15.034  24.844  22.968
24150W        W25015  16.165  24.327  23.216
24151W        W25016  17.497  25.186  24.930
24152W        W25017  16.423  22.828  22.614
24153W        W25018  17.806  25.226  23.386
24154W        W25019  17.483  23.079  24.984
24155W        W25020  18.196  24.735  23.118
24156W        W25021  16.823  24.027  24.602
24157W        W25022  14.589  23.578  22.808
24158W        W25023  15.700  23.993  24.381
24159W        W25024  16.904  23.257  22.759
24160W        W25025  16.781  23.747  22.863
24161W        W25026  15.124  23.167  24.337
24162W        W25027  15.109  23.043  25.259
24163W        W25028  14.999  21.960  23.418
24164W        W25029  16.767  22.307  23.979
24165W        W25030  16.415  22.492  25.142
24166W        W25031  16.770  22.641  22.320
24167W        W25032  17.953  25.034  25.074
24168W        W25033  16.920  22.115  25.113
24169W        W25034  17.939  24.416  25.235
24170W        W25035  17.369  22.583  24.831
24171W        W25036  17.169  22.521  23.101
24172W        W25037  17.562  23.655  25.505
24173W        W25038  15.302  25.231  23.491
24174W        W25039  15.960  22.948  22.477
24175W        W25040  15.529  22.232  25.141
24176W        W25041  17.581  22.716  22.822
24177W        W25042  17.948  23.198  22.767
24178W        W25043  15.691  25.415  25.238
24179W        W25044  15.617  21.951  22.473
24180W        W25045  17.938  22.485  23.508
24181W        W25046  18.088  24.734  21.953
24182W        W25047  14.995  23.937  23.655
24183W        W25048  16.912  22.524  21.885
24184W        W25049  18.046  24.856  23.605
24185W        W25050  18.085  22.050  24.355
24186W        W25051  16.530  23.262  24.909
24187W        W25052  16.623  24.601  22.612
24188W        W25053  17.023  23.895  25.352
24189W        W25054  16.697  21.872  23.661
24190W        W25055  15.309  22.775  23.724
24191W        W25056  14.863  23.975  24.498
24192W        W25057  16.722  25.168  23.204
24193W        W25058  17.916  22.765  24.076
24194W        W25059  16.553  25.112  24.843
24195W        W25060  17.896  24.171  22.048
24196W        W25061  16.331  23.654  23.109
24197W        W25062  18.183  22.165  24.850
24198W        W25063  16.332  24.000  24.444
24199W        W25064  16.549  22.886  23.889
24200W        W25065  17.401  23.184  22.727
24201W        W25066  17.688  22.917  22.369
24202W        W25067  17.497  24.957  22.758
24203W        W25068  17.331  24.560  23.554
24204W        W25069  17.227  23.639  22.532
24205W        W25070  16.660  23.849  23.518
24206W        W25071  17.541  23.637  23.585
24207W        W25072  14.916  22.652  24.009
24208W        W25073  17.694  23.704  24.836
24209W        W25074  18.045  25.322  23.982
24210W        W25075  15.975  24.766  23.384
24211W        W25076  16.982  25.299  24.708
24212W        W25077  16.976  22.629  24.472
24213W        W25078  16.183  25.337  24.533
24214W        W25079  17.880  22.291  22.999
24215W        W25080  17.671  23.610  24.300
24216W        W25081  14.654  22.931  24.338
24217W        W25082  17.514  22.726  23.356
24218W        W25083  17.925  22.877  25.133
24219W        W25084  16.810  24.576  23.351
24220W        W25085  16.066  25.167  22.964
24221W        W25086  15.181  22.347  22.222
24222W        W25087  16.285  22.001  24.032
24223W        W25088  15.313  25.121  21.880
24224W        W25089  15.687  23.587  22.631
24225W        W25090  16.341  24.216  24.944
24226W        W25091  16.171  22.574  22.934
24227W        W25092  17.527  22.171  23.362
24228W        W25093  17.247  25.453  23.690
24229W        W25094  16.659  25.101  24.030
24230W        W25095  16.055  24.138  23.991
24231W        W25096  17.825  24.861  24.117
24232W        W25097  15.519  22.364  22.886
24233W        W25098  16.041  24.661  23.846
24234W        W25099  15.524  22.592  21.911
24235W        W25100  16.325  23.201  24.305
24236W        W25101  17.173  22.067  24.175
24237W        W25102  14.593  23.910  24.060
24238W        W25103  16.297  23.728  22.218
24239W        W25104  15.565  22.043  21.988
24240W        W25105  16.303  23.124  23.039
24241W        W25106  17.273  22.100  24.738
24242W        W25107  15.861  24.112  24.847
24243W        W25108  16.665  23.894  25.064
24244W        W25109  17.282  23.924  24.957
24245W        W25110  16.566  22.064  25.462
24246W        W25111  15.788  22.680  23.855
24247W        W25112  15.214  22.636  23.253
24248W        W25113  15.000  25.348  22.929
24249W        W25114  16.332  24.678  25.054
24250W        W25115  15.367  24.163  22.413
24251W        W25116  17.047  23.548  23.634
24252W        W25117  17.327  23.347  24.033
24253W        W25118  16.532  24.021  23.967
24254W        W25119  17.002  24.395  22.099
24255W        W25120  16.674  22.416  23.427
24256W        W25121  18.153  22.694  22.695
24257W        W25122  14.647  25.283  24.726
24258W        W25123  15.064  24.509  24.258
24259W        W25124  14.631  25.355  22.490
24260W        W25125  16.530  22.625  24.296
24261W        W25126  15.893  24.648  22.145
24262W        W25127  17.798  25.030  22.331
24263W        W25128  16.773  23.683  22.345
24264W        W25129  15.616  22.874  22.862
24265W        W25130  16.448  22.784  21.914
24266W        W25131  17.032  24.349  25.092
24267W        W25132  17.385  22.255  22.709
24268W        W25133  14.715  22.103  22.157
24269W        W25134  16.001  24.422  24.447
24270W        W25135  15.800  24.338  23.539
24271W        W25136  15.542  24.290  21.937
24272W        W25137  14.783  24.531  22.705
24273W        W25138  15.287  23.601  25.147
24274W        W25139  15.991  22.161  25.333
24275W        W25140  16.700  22.303  24.689
24276W        W25141  15.895  22.071  22.970
24277W        W25142  16.954  22.148  22.475
24278W        W25143  14.899  22.080  24.052
24279W        W25144  14.947  23.043  23.422
24280W        W25145  17.636  22.151  23.828
24281W        W25146  15.058  22.649  22.642
24282W        W25147  17.629  22.337  24.258
24283W        W25148  18.025  23.540  21.943
24284W        W25149  15.317  22.298  23.762
24285W        W25150  16.431  22.870  24.702
24286W        W25151  14.579  22.560  22.180
24287W        W25152  15.365  23.949  24.741
24288W        W25153  16.723  23.347  23.920
24289W        W25154  16.590  25.426  22.216
24290W        W25155  14.736  23.933  21.913
24291W        W25156  15.471  24.344  25.039
24292W        W25157  14.992  23.511  24.670
24293W        W25158  15.983  23.616  24.464
24294W        W25159  17.751  21.975  24.726
24295W        W25160  18.149  23.585  24.717
24296W        W25161  18.137  23.785  22.403
24297W        W25162  17.000  24.117  22.502
24298W        W25163  17.474  25.417  22.197
24299W        W25164  16.651  23.407  25.339
24300W        W25165  14.981  24.374  25.379
24301W        W25166  18.187  22.296  25.331
24302W        W25167  17.905  23.224  23.952
24303W        W25168  16.213  25.354  25.429
24304W        W25169  16.068  21.983  22.156
24305W        W25170  17.607  24.582  22.099
24306W        W25171  15.376  22.675  24.985
24307W        W25172  15.810  24.669  24.847
24308W        W25173  17.936  22.660  24.645
24309W        W25174  17.147  25.319  22.613
24310W        W25175  17.386  23.938  23.980
24311W        W25176  15.636  22.354  24.647
24312W        W25177  16.105  23.423  25.404
24313W        W25178  15.608  24.602  22.598
24314W        W25179  17.363  24.100  22.862
24315W        W25180  15.131  22.726  24.586
24316W        W25181  16.460  24.788  23.050
24317W        W25182  18.210  23.348  23.231
24318W        W25183  16.432  21.981  24.950
24319W        W25184  17.212  24.686  24.029
24320W        W25185  17.515  25.030  23.737
24321W        W25186  16.734  24.832  22.165
24322W        W25187  14.744  24.724  25.007
24323W        W25188  15.487  22.716  24.245
24324W        W25189  15.457  22.064  23.355
24325W        W25190  17.078  22.906  24.047
24326W        W25191  15.876  24.077  22.247
24327W        W25192  17.874  24.019  23.746
24328W        W25193  15.201  24.777  25.169
24329W        W25194  17.588  25.459  22.966
24330W        W25195  15.687  22.479  23.411
24331W        W25196  15.456  23.972  23.501
24332W        W25197  15.769  25.383  24.251
24333W        W25198  17.836  25.479  25.283
24334W        W25199  16.995  23.667  24.216
24335W        W25200  14.844  23.465  22.131
24336W        W25201  17.978  25.123  22.828
24337W        W25202  17.815  22.447  22.447
24338W        W25203  15.954  21.966  24.850
24339W        W25204  17.660  24.768  23.308
24340W        W25205  17.689  23.324  23.213
24341W        W25206  15.806  22.997  23.429
24342W        W25207  16.051  23.259  24.753
24343W        W25208  17.162  24.412  24.616
24344W        W25209  15.812  22.866  24.728
24345W        W25210  15.791  25.332  23.344
24346W        W25211  15.108  25.291  24.978
24347W        W25212  15.220  24.652  22.108
24348W        W25213  17.737  24.410  22.918
24349W        W25214  15.341  23.202  24.804
24350W        W25215  18.114  23.132  22.285
24351W        W25216  15.859  24.189  22.756
24352W        W25217  16.958  23.571  24.837
24353W        W25218  16.849  23.199  24.381
24354W        W25219  15.409  23.571  24.410
24355W        W25220  17.619  25.459  24.239
24356W        W25221  17.410  22.093  25.233
24357W        W25222  15.074  22.243  24.820
24358W        W25223  15.413  23.266  23.873
24359W        W25224  15.782  23.080  21.995
24360W        W25225  14.585  24.839  24.540
24361W        W25226  16.170  23.548  23.983
24362W        W25227  15.993  22.573  22.088
24363W        W25228  15.128  23.389  22.869
24364W        W25229  14.899  25.241  24.306
24365W        W25230  17.694  23.467  22.414
24366W        W25231  17.789  22.383  25.100
24367W        W25232  17.225  24.592  23.063
24368W        W25233  14.823  23.516  25.240
24369W        W25234  17.789  21.980  22.536
24370W        W25235  17.309  24.455  22.547
24371W        W25236  16.211  23.513  22.632
24372W        W25237  17.398  22.317  22.155
24373W        W25238  17.463  22.924  24.341
24374W        W25239  15.172  23.517  23.548
24375W        W25240  15.466  24.456  23.197
24376W        W25241  17.229  23.076  23.162
24377W        W25242  16.252  22.455  23.858
24378W        W25243  18.214  24.366  24.369
24379W        W25244  18.132  22.353  23.930
24380W        W25245  14.671  25.183  23.306
24381W        W25246  15.180  24.370  22.842
24382W        W25247  15.095  21.987  25.395
24383W        W25248  16.214  24.840  25.497
24384W        W25249  17.969  23.808  23.287
24385W        W25250  17.323  23.985  22.167
24386W        W25251  16.618  25.506  24.379
24387W        W25252  17.475  24.228  25.416
24388W        W25253  16.290  21.938  22.696
24389W        W25254  17.003  22.807  23.555
24390W        W25255  14.689  24.394  23.887
24391W        W25256  15.942  22.356  22.528
24392W        W25257  15.746  23.840  25.377
24393W        W25258  16.740  22.821  23.091
24394W        W25259  16.945  24.231  24.213
24395W        W25260  15.099  24.836  24.648
24396W        W25261  15.690  24.819  25.371
24397W        W25262  15.541  22.616  22.385
24398W        W25263  17.058  22.758  22.710
24399W        W25264  17.016  24.866  24.947
24400W        W25265  15.701  23.458  23.546
24401W        W25266  15.356  25.156  24.411
24402W        W25267  18.101  25.273  22.012
24403W        W25268  14.964  23.945  25.008
24404W        W25269  16.959  24.207  23.696
24405W        W25270  15.395  23.856  22.938
24406W        W25271  15.766  24.863  24.333
24407W        W25272  16.144  22.282  23.374
24408W        W25273  14.755  24.266  22.304
24409W        W25274  16.274  23.217  22.174
24410W        W25275  14.920  23.766  23.193
24411W        W25276  16.210  22.408  24.657
24412W        W25277  17.882  22.117  22.084
24413W        W25278  17.975  23.863  25.183
24414W        W25279  16.629  25.120  25.335
24415W        W25280  18.187  24.214  24.857
24416W        W25281  17.595  25.012  25.468
24417W        W25282  15.334  25.468  23.946
24418W        W25283  18.193  24.090  22.820
24419W        W25284  16.723  23.357  23.333
24420W        W25285  16.490  21.969  23.223
24421W        W25286  15.549  24.953  23.060
24422W        W25287  16.048  22.694  24.285
24423W        W25288  15.748  22.063  23.754
24424W        W25289  14.811  24.885  22.302
24425W        W25290  16.627  24.249  23.020
24426W        W25291  15.502  25.044  24.899
24427W        W25292  14.979  23.867  22.595
24428W        W25293  14.864  22.410  23.594
24429W        W25294  16.412  24.375  23.651
24430W        W25295  14.664  22.229  22.671
24431W        W25296  17.328  23.435  24.598
24432W        W25297  17.205  22.821  22.170
24433W        W25298  17.722  24.493  23.818
24434W        W25299  16.383  24.977  23.649
24435W        W25300  15.795  25.081  22.560
24436W        W25301  17.077  21.984  21.990
24437W        W25302  14.877  25.244  23.731
24438W        W25303  17.074  23.002  25.366
24439W        W25304  15.057  22.532  25.365
24440W        W25305  14.788  23.132  22.698
24441W        W25306  15.479  23.121  22.423
24442W        W25307  17.242  23.448  25.240
24443W        W25308  15.585  23.729  23.949
24444W        W25309  17.059  22.015  23.069
24445W        W25310  16.190  25.446  23.572
24446W        W25311  17.404  24.908  24.509
24447W        W25312  16.988  25.057  23.620
24448W        W25313  17.007  24.037  23.214
24449W        W25314  16.469  22.262  22.285
24450W        W25315  18.150  21.890  23.007
24451W        W25316  15.838  23.525  22.170
24452W        W25317  18.004  22.862  23.160
24453W        W25318  16.696  24.032  22.037
24454W        W25319  17.632  24.232  24.785
24455W        W25320  17.286  24.933  22.252
24456W        W25321  15.901  22.608  25.158
24457W        W25322  15.721  23.192  24.399
24458W        W25323  17.813  24.687  24.676
24459W        W25324  16.913  22.637  25.053
24460W        W25325  14.757  23.108  24.830
24461W        W25326  16.517  23.585  24.556
24462W        W25327  14.874  24.343  23.213
24463W        W25328  15.021  23.640  24.103
24464W        W25329  17.338  23.926  24.453
24465W        W25330  17.110  25.306  25.264
24466W        W25331  17.006  23.045  24.817
24467W        W25332  17.283  25.099  23.222
24468W        W25333  16.285  24.819  24.545
24469W        W25334  15.770  25.174  23.814
24470W        W25335  17.575  24.345  24.233
24471W        W25336  16.625  24.417  25.370
24472W        W25337  15.230  24.370  23.709
24473W        W25338  17.576  24.129  23.354
24474W        W25339  17.217  25.195  24.105
24475W        W25340  15.195  24.924  23.975
24476W        W25341  16.216  22.976  25.185
24477W        W25342  16.667  25.142  22.696
24478W        W25343  15.975  24.397  25.334
24479W        W25344  16.101  24.635  22.711
24480W        W25345  15.322  23.375  21.970
24481W        W25346  14.661  25.461  28.869
24482W        W25347  15.037  24.354  28.392
24483W        W25348  17.742  24.084  26.162
24484W        W25349  17.872  25.169  28.189
24485W        W25350  15.790  25.160  25.715
24486W        W25351  15.873  23.312  26.698
24487W        W25352  15.388  23.160  26.862
24488W        W25353  16.379  23.975  26.296
24489W        W25354  16.054  25.067  28.651
24490W        W25355  14.703  22.628  28.614
24491W        W25356  15.465  21.908  28.416
24492W        W25357  17.159  22.296  27.303
24493W        W25358  16.808  23.167  25.873
24494W        W25359  17.378  22.601  28.964
24495W        W25360  14.744  22.393  28.089
24496W        W25361  14.843  25.012  29.110
24497W        W25362  16.365  24.402  25.842
24498W        W25363  14.797  23.185  27.535
24499W        W25364  15.690  23.076  28.772
24500W        W25365  18.149  22.935  27.271
24501W        W25366  17.913  23.978  28.130
24502W        W25367  16.221  23.311  27.157
24503W        W25368  16.767  24.650  27.526
24504W        W25369  15.267  24.084  27.758
24505W        W25370  14.626  23.612  27.329
24506W        W25371  15.662  23.584  28.521
24507W        W25372  17.933  23.367  28.775
24508W        W25373  15.549  24.811  27.220
24509W        W25374  16.670  24.500  28.354
24510W        W25375  15.890  23.140  27.579
24511W        W25376  16.182  23.924  27.222
24512W        W25377  17.179  24.697  29.070
24513W        W25378  16.258  24.017  29.080
24514W        W25379  16.239  23.733  28.558
24515W        W25380  14.648  23.124  29.080
24516W        W25381  17.480  24.659  28.679
24517W        W25382  15.061  22.241  26.677
24518W        W25383  15.588  24.499  27.676
24519W        W25384  18.051  24.282  26.966
24520W        W25385  17.464  22.682  27.533
24521W        W25386  17.749  22.635  25.628
24522W        W25387  18.214  23.436  27.934
24523W        W25388  16.181  25.143  27.687
24524W        W25389  17.955  24.609  26.125
24525W        W25390  15.084  25.395  25.879
24526W        W25391  15.477  25.441  26.555
24527W        W25392  15.274  22.195  27.981
24528W        W25393  17.897  23.213  28.256
24529W        W25394  17.302  23.635  26.715
24530W        W25395  17.268  23.323  25.742
24531W        W25396  16.476  24.467  27.882
24532W        W25397  16.282  22.797  27.081
24533W        W25398  16.882  24.884  28.075
24534W        W25399  17.753  23.675  26.497
24535W        W25400  16.655  22.333  26.513
24536W        W25401  15.312  25.027  26.196
24537W        W25402  14.683  22.526  26.795
24538W        W25403  17.469  23.133  27.269
24539W        W25404  14.927  24.750  27.184
24540W        W25405  16.268  25.100  26.054
24541W        W25406  17.660  23.126  25.518
24542W        W25407  14.683  24.884  27.682
24543W        W25408  15.474  24.456  28.162
24544W        W25409  15.847  23.816  26.781
24545W        W25410  15.869  22.221  27.874
24546W        W25411  18.098  21.983  27.171
24547W        W25412  15.317  23.855  25.639
24548W        W25413  14.972  22.888  25.818
24549W        W25414  15.034  24.844  26.612
24550W        W25415  16.165  24.327  26.860
24551W        W25416  17.497  25.186  28.574
24552W        W25417  16.423  22.828  26.258
24553W        W25418  17.806  25.226  27.030
24554W        W25419  17.483  23.079  28.628
24555W        W25420  18.196  24.735  26.762
24556W        W25421  16.823  24.027  28.246
24557W        W25422  14.589  23.578  26.452
24558W        W25423  15.700  23.993  28.025
24559W        W25424  16.904  23.257  26.403
24560W        W25425  16.781  23.747  26.507
24561W        W25426  15.124  23.167  27.981
24562W        W25427  15.109  23.043  28.903
24563W        W25428  14.999  21.960  27.062
24564W        W25429  16.767  22.307  27.623
24565W        W25430  16.415  22.492  28.786
24566W        W25431  16.770  22.641  25.964
24567W        W25432  17.953  25.034  28.718
24568W        W25433  16.920  22.115  28.757
24569W        W25434  17.939  24.416  28.879
24570W        W25435  17.369  22.583  28.475
24571W        W25436  17.169  22.521  26.745
24572W        W25437  17.562  23.655  29.149
24573W        W25438  15.302  25.231  27.135
24574W        W25439  15.960  22.948  26.121
24575W        W25440  15.529  22.232  28.785
24576W        W25441  17.581  22.716  26.466
24577W        W25442  17.948  23.198  26.411
24578W        W25443  15.691  25.415  28.882
24579W        W25444  15.617  21.951  26.117
24580W        W25445  17.938  22.485  27.152
24581W        W25446  18.088  24.734  25.597
24582W        W25447  14.995  23.937  27.299
24583W        W25448  16.912  22.524  25.529
24584W        W25449  18.046  24.856  27.249
24585W        W25450  18.085  22.050  27.999
24586W        W25451  16.530  23.262  28.553
24587W        W25452  16.623  24.601  26.256
24588W        W25453  17.023  23.895  28.996
24589W        W25454  16.697  21.872  27.305
24590W        W25455  15.309  22.775  27.368
24591W        W25456  14.863  23.975  28.142
24592W        W25457  16.722  25.168  26.848
24593W        W25458  17.916  22.765  27.720
24594W        W25459  16.553  25.112  28.487
24595W        W25460  17.896  24.171  25.692
24596W        W25461  16.331  23.654  26.753
24597W        W25462  18.183  22.165  28.494
24598W        W25463  16.332  24.000  28.088
24599W        W25464  16.549  22.886  27.533
24600W        W25465  17.401  23.184  26.371
24601W        W25466  17.688  22.917  26.013
24602W        W25467  17.497  24.957  26.402
24603W        W25468  17.331  24.560  27.198
24604W        W25469  17.227  23.639  26.176
24605W        W25470  16.660  23.849  27.162
24606W        W25471  17.541  23.637  27.229
24607W        W25472  14.916  22.652  27.653
24608W        W25473  17.694  23.704  28.480
24609W        W25474  18.045  25.322  27.626
24610W        W25475  15.975  24.766  27.028
24611W        W25476  16.982  25.299  28.352
24612W        W25477  16.976  22.629  28.116
24613W        W25478  16.183  25.337  28.177
24614W        W25479  17.880  22.291  26.643
24615W        W25480  17.671  23.610  27.944
24616W        W25481  14.654  22.931  27.982
24617W        W25482  17.514  22.726  27.000
24618W        W25483  17.925  22.877  28.777
24619W        W25484  16.810  24.576  26.995
24620W        W25485  16.066  25.167  26.608
24621W        W25486  15.181  22.347  25.866
24622W        W25487  16.285  22.001  27.676
24623W        W25488  15.313  25.121  25.524
24624W        W25489  15.687  23.587  26.275
24625W        W25490  16.341  24.216  28.588
24626W        W25491  16.171  22.574  26.578
24627W        W25492  17.527  22.171  27.006
24628W        W25493  17.247  25.453  27.334
24629W        W25494  16.659  25.101  27.674
24630W        W25495  16.055  24.138  27.635
24631W        W25496  17.825  24.861  27.761
24632W        W25497  15.519  22.364  26.530
24633W        W25498  16.041  24.661  27.490
24634W        W25499  15.524  22.592  25.555
24635W        W25500  16.325  23.201  27.949
24636W        W25501  17.173  22.067  27.819
24637W        W25502  14.593  23.910  27.704
24638W        W25503  16.297  23.728  25.862
24639W        W25504  15.565  22.043  25.632
24640W        W25505  16.303  23.124  26.683
24641W        W25506  17.273  22.100  28.382
24642W        W25507  15.861  24.112  28.491
24643W        W25508  16.665  23.894  28.708
24644W        W25509  17.282  23.924  28.601
24645W        W25510  16.566  22.064  29.106
24646W        W25511  15.788  22.680  27.499
24647W        W25512  15.214  22.636  26.897
24648W        W25513  15.000  25.348  26.573
24649W        W25514  16.332  24.678  28.698
24650W        W25515  15.367  24.163  26.057
24651W        W25516  17.047  23.548  27.278
24652W        W25517  17.327  23.347  27.677
24653W        W25518  16.532  24.021  27.611
24654W        W25519  17.002  24.395  25.743
24655W        W25520  16.674  22.416  27.071
24656W        W25521  18.153  22.694  26.339
24657W        W25522  14.647  25.283  28.370
24658W        W25523  15.064  24.509  27.902
24659W        W25524  14.631  25.355  26.134
24660W        W25525  16.530  22.625  27.940
24661W        W25526  15.893  24.648  25.789
24662W        W25527  17.798  25.030  25.975
24663W        W25528  16.773  23.683  25.989
24664W        W25529  15.616  22.874  26.506
24665W        W25530  16.448  22.784  25.558
24666W        W25531  17.032  24.349  28.736
24667W        W25532  17.385  22.255  26.353
24668W        W25533  14.715  22.103  25.801
24669W        W25534  16.001  24.422  28.091
24670W        W25535  15.800  24.338  27.183
24671W        W25536  15.542  24.290  25.581
24672W        W25537  14.783  24.531  26.349
24673W        W25538  15.287  23.601  28.791
24674W        W25539  15.991  22.161  28.977
24675W        W25540  16.700  22.303  28.333
24676W        W25541  15.895  22.071  26.614
24677W        W25542  16.954  22.148  26.119
24678W        W25543  14.899  22.080  27.696
24679W        W25544  14.947  23.043  27.066
24680W        W25545  17.636  22.151  27.472
24681W        W25546  15.058  22.649  26.286
24682W        W25547  17.629  22.337  27.902
24683W        W25548  18.025  23.540  25.587
24684W        W25549  15.317  22.298  27.406
24685W        W25550  16.431  22.870  28.346
24686W        W25551  14.579  22.560  25.824
24687W        W25552  15.365  23.949  28.385
24688W        W25553  16.723  23.347  27.564
24689W        W25554  16.590  25.426  25.860
24690W        W25555  14.736  23.933  25.557
24691W        W25556  15.471  24.344  28.683
24692W        W25557  14.992  23.511  28.314
24693W        W25558  15.983  23.616  28.108
24694W        W25559  17.751  21.975  28.370
24695W        W25560  18.149  23.585  28.361
24696W        W25561  18.137  23.785  26.047
24697W        W25562  17.000  24.117  26.146
24698W        W25563  17.474  25.417  25.841
24699W        W25564  16.651  23.407  28.983
24700W        W25565  14.981  24.374  29.023
24701W        W25566  18.187  22.296  28.975
24702W        W25567  17.905  23.224  27.596
24703W        W25568  16.213  25.354  29.073
24704W        W25569  16.068  21.983  25.800
24705W        W25570  17.607  24.582  25.743
24706W        W25571  15.376  22.675  28.629
24707W        W25572  15.810  24.669  28.491
24708W        W25573  17.936  22.660  28.289
24709W        W25574  17.147  25.319  26.257
24710W        W25575  17.386  23.938  27.624
24711W        W25576  15.636  22.354  28.291
24712W        W25577  16.105  23.423  29.048
24713W        W25578  15.608  24.602  26.242
24714W        W25579  17.363  24.100  26.506
24715W        W25580  15.131  22.726  28.230
24716W        W25581  16.460  24.788  26.694
24717W        W25582  18.210  23.348  26.875
24718W        W25583  16.432  21.981  28.594
24719W        W25584  17.212  24.686  27.673
24720W        W25585  17.515  25.030  27.381
24721W        W25586  16.734  24.832  25.809
24722W        W25587  14.744  24.724  28.651
24723W        W25588  15.487  22.716  27.889
24724W        W25589  15.457  22.064  26.999
24725W        W25590  17.078  22.906  27.691
24726W        W25591  15.876  24.077  25.891
24727W        W25592  17.874  24.019  27.390
24728W        W25593  15.201  24.777  28.813
24729W        W25594  17.588  25.459  26.610
24730W        W25595  15.687  22.479  27.055
24731W        W25596  15.456  23.972  27.145
24732W        W25597  15.769  25.383  27.895
24733W        W25598  17.836  25.479  28.927
24734W        W25599  16.995  23.667  27.860
24735W        W25600  14.844  23.465  25.775
24736W        W25601  17.978  25.123  26.472
24737W        W25602  17.815  22.447  26.091
24738W        W25603  15.954  21.966  28.494
24739W        W25604  17.660  24.768  26.952
24740W        W25605  17.689  23.324  26.857
24741W        W25606  15.806  22.997  27.073
24742W        W25607  16.051  23.259  28.397
24743W        W25608  17.162  24.412  28.260
24744W        W25609  15.812  22.866  28.372
24745W        W25610  15.791  25.332  26.988
24746W        W25611  15.108  25.291  28.622
24747W        W25612  15.220  24.652  25.752
24748W        W25613  17.737  24.410  26.562
24749W        W25614  15.341  23.202  28.448
24750W        W25615  18.114  23.132  25.929
24751W        W25616  15.859  24.189  26.400
24752W        W25617  16.958  23.571  28.481
24753W        W25618  16.849  23.199  28.025
24754W        W25619  15.409  23.571  28.054
24755W        W25620  17.619  25.459  27.883
24756W        W25621  17.410  22.093  28.877
24757W        W25622  15.074  22.243  28.464
24758W        W25623  15.413  23.266  27.517
24759W        W25624  15.782  23.080  25.639
24760W        W25625  14.585  24.839  28.184
24761W        W25626  16.170  23.548  27.627
24762W        W25627  15.993  22.573  25.732
24763W        W25628  15.128  23.389  26.513
24764W        W25629  14.899  25.241  27.950
24765W        W25630  17.694  23.467  26.058
24766W        W25631  17.789  22.383  28.744
24767W        W25632  17.225  24.592  26.707
24768W        W25633  14.823  23.516  28.884
24769W        W25634  17.789  21.980  26.180
24770W        W25635  17.309  24.455  26.191
24771W        W25636  16.211  23.513  26.276
24772W        W25637  17.398  22.317  25.799
24773W        W25638  17.463  22.924  27.985
24774W        W25639  15.172  23.517  27.192
24775W        W25640  15.466  24.456  26.841
24776W        W25641  17.229  23.076  26.806
24777W        W25642  16.252  22.455  27.502
24778W        W25643  18.214  24.366  28.013
24779W        W25644  18.132  22.353  27.574
24780W        W25645  14.671  25.183  26.950
24781W        W25646  15.180  24.370  26.486
24782W        W25647  15.095  21.987  29.039
24783W        W25648  16.214  24.840  29.141
24784W        W25649  17.969  23.808  26.931
24785W        W25650  17.323  23.985  25.811
24786W        W25651  16.618  25.506  28.023
24787W        W25652  17.475  24.228  29.060
24788W        W25653  16.290  21.938  26.340
24789W        W25654  17.003  22.807  27.199
24790W        W25655  14.689  24.394  27.531
24791W        W25656  15.942  22.356  26.172
24792W        W25657  15.746  23.840  29.021
24793W        W25658  16.740  22.821  26.735
24794W        W25659  16.945  24.231  27.857
24795W        W25660  15.099  24.836  28.292
24796W        W25661  15.690  24.819  29.015
24797W        W25662  15.541  22.616  26.029
24798W        W25663  17.058  22.758  26.354
24799W        W25664  17.016  24.866  28.591
24800W        W25665  15.701  23.458  27.190
24801W        W25666  15.356  25.156  28.055
24802W        W25667  18.101  25.273  25.656
24803W        W25668  14.964  23.945  28.652
24804W        W25669  16.959  24.207  27.340
24805W        W25670  15.395  23.856  26.582
24806W        W25671  15.766  24.863  27.977
24807W        W25672  16.144  22.282  27.018
24808W        W25673  14.755  24.266  25.948
24809W        W25674  16.274  23.217  25.818
24810W        W25675  14.920  23.766  26.837
24811W        W25676  16.210  22.408  28.301
24812W        W25677  17.882  22.117  25.728
24813W        W25678  17.975  23.863  28.827
24814W        W25679  16.629  25.120  28.979
24815W        W25680  18.187  24.214  28.501
24816W        W25681  17.595  25.012  29.112
24817W        W25682  15.334  25.468  27.590
24818W        W25683  18.193  24.090  26.464
24819W        W25684  16.723  23.357  26.977
24820W        W25685  16.490  21.969  26.867
24821W        W25686  15.549  24.953  26.704
24822W        W25687  16.048  22.694  27.929
24823W        W25688  15.748  22.063  27.398
24824W        W25689  14.811  24.885  25.946
24825W        W25690  16.627  24.249  26.664
24826W        W25691  15.502  25.044  28.543
24827W        W25692  14.979  23.867  26.239
24828W        W25693  14.864  22.410  27.238
24829W        W25694  16.412  24.375  27.295
24830W        W25695  14.664  22.229  26.315
24831W        W25696  17.328  23.435  28.242
24832W        W25697  17.205  22.821  25.814
24833W        W25698  17.722  24.493  27.462
24834W        W25699  16.383  24.977  27.293
24835W        W25700  15.795  25.081  26.204
24836W        W25701  17.077  21.984  25.634
24837W        W25702  14.877  25.244  27.375
24838W        W25703  17.074  23.002  29.010
24839W        W25704  15.057  22.532  29.009
24840W        W25705  14.788  23.132  26.342
24841W        W25706  15.479  23.121  26.067
24842W        W25707  17.242  23.448  28.884
24843W        W25708  15.585  23.729  27.593
24844W        W25709  17.059  22.015  26.713
24845W        W25710  16.190  25.446  27.216
24846W        W25711  17.404  24.908  28.153
24847W        W25712  16.988  25.057  27.264
24848W        W25713  17.007  24.037  26.858
24849W        W25714  16.469  22.262  25.929
24850W        W25715  18.150  21.890  26.651
24851W        W25716  15.838  23.525  25.814
24852W        W25717  18.004  22.862  26.804
24853W        W25718  16.696  24.032  25.681
24854W        W25719  17.632  24.232  28.429
24855W        W25720  17.286  24.933  25.896
24856W        W25721  15.901  22.608  28.802
24857W        W25722  15.721  23.192  28.043
24858W        W25723  17.813  24.687  28.320
24859W        W25724  16.913  22.637  28.697
24860W        W25725  14.757  23.108  28.474
24861W        W25726  16.517  23.585  28.200
24862W        W25727  14.874  24.343  26.857
24863W        W25728  15.021  23.640  27.747
24864W        W25729  17.338  23.926  28.097
24865W        W25730  17.110  25.306  28.908
24866W        W25731  17.006  23.045  28.461
24867W        W25732  17.283  25.099  26.866
24868W        W25733  16.285  24.819  28.189
24869W        W25734  15.770  25.174  27.458
24870W        W25735  17.575  24.345  27.877
24871W        W25736  16.625  24.417  29.014
24872W        W25737  15.230  24.370  27.353
24873W        W25738  17.576  24.129  26.998
24874W        W25739  17.217  25.195  27.749
24875W        W25740  15.195  24.924  27.619
24876W        W25741  16.216  22.976  28.829
24877W        W25742  16.667  25.142  26.340
24878W        W25743  15.975  24.397  28.978
24879W        W25744  16.101  24.635  26.355
24880W        W25745  15.322  23.375  25.614
24881W        W25746  14.661  29.105   3.359
24882W        W25747  15.037  27.998   2.882
24883W        W25748  17.742  27.728   0.652
24884W        W25749  17.872  28.813   2.679
24885W        W25750  15.790  28.804   0.205
24886W        W25751  15.873  26.956   1.188
24887W        W25752  15.388  26.804   1.352
24888W        W25753  16.379  27.619   0.786
24889W        W25754  16.054  28.711   3.141
24890W        W25755  14.703  26.272   3.104
24891W        W25756  15.465  25.552   2.906
24892W        W25757  17.159  25.940   1.793
24893W        W25758  16.808  26.811   0.363
24894W        W25759  17.378  26.245   3.454
24895W        W25760  14.744  26.037   2.579
24896W        W25761  14.843  28.656   3.600
24897W        W25762  16.365  28.046   0.332
24898W        W25763  14.797  26.829   2.025
24899W        W25764  15.690  26.720   3.262
24900W        W25765  18.149  26.579   1.761
24901W        W25766  17.913  27.622   2.620
24902W        W25767  16.221  26.955   1.647
24903W        W25768  16.767  28.294   2.016
24904W        W25769  15.267  27.728   2.248
24905W        W25770  14.626  27.256   1.819
24906W        W25771  15.662  27.228   3.011
24907W        W25772  17.933  27.011   3.265
24908W        W25773  15.549  28.455   1.710
24909W        W25774  16.670  28.144   2.844
24910W        W25775  15.890  26.784   2.069
24911W        W25776  16.182  27.568   1.712
24912W        W25777  17.179  28.341   3.560
24913W        W25778  16.258  27.661   3.570
24914W        W25779  16.239  27.377   3.048
24915W        W25780  14.648  26.768   3.570
24916W        W25781  17.480  28.303   3.169
24917W        W25782  15.061  25.885   1.167
24918W        W25783  15.588  28.143   2.166
24919W        W25784  18.051  27.926   1.456
24920W        W25785  17.464  26.326   2.023
24921W        W25786  17.749  26.279   0.118
24922W        W25787  18.214  27.080   2.424
24923W        W25788  16.181  28.787   2.177
24924W        W25789  17.955  28.253   0.615
24925W        W25790  15.084  29.039   0.369
24926W        W25791  15.477  29.085   1.045
24927W        W25792  15.274  25.839   2.471
24928W        W25793  17.897  26.857   2.746
24929W        W25794  17.302  27.279   1.205
24930W        W25795  17.268  26.967   0.232
24931W        W25796  16.476  28.111   2.372
24932W        W25797  16.282  26.441   1.571
24933W        W25798  16.882  28.528   2.565
24934W        W25799  17.753  27.319   0.987
24935W        W25800  16.655  25.977   1.003
24936W        W25801  15.312  28.671   0.686
24937W        W25802  14.683  26.170   1.285
24938W        W25803  17.469  26.777   1.759
24939W        W25804  14.927  28.394   1.674
24940W        W25805  16.268  28.744   0.544
24941W        W25806  17.660  26.770   0.008
24942W        W25807  14.683  28.528   2.172
24943W        W25808  15.474  28.100   2.652
24944W        W25809  15.847  27.460   1.271
24945W        W25810  15.869  25.865   2.364
24946W        W25811  18.098  25.627   1.661
24947W        W25812  15.317  27.499   0.129
24948W        W25813  14.972  26.532   0.308
24949W        W25814  15.034  28.488   1.102
24950W        W25815  16.165  27.971   1.350
24951W        W25816  17.497  28.830   3.064
24952W        W25817  16.423  26.472   0.748
24953W        W25818  17.806  28.870   1.520
24954W        W25819  17.483  26.723   3.118
24955W        W25820  18.196  28.379   1.252
24956W        W25821  16.823  27.671   2.736
24957W        W25822  14.589  27.222   0.942
24958W        W25823  15.700  27.637   2.515
24959W        W25824  16.904  26.901   0.893
24960W        W25825  16.781  27.391   0.997
24961W        W25826  15.124  26.811   2.471
24962W        W25827  15.109  26.687   3.393
24963W        W25828  14.999  25.604   1.552
24964W        W25829  16.767  25.951   2.113
24965W        W25830  16.415  26.136   3.276
24966W        W25831  16.770  26.285   0.454
24967W        W25832  17.953  28.678   3.208
24968W        W25833  16.920  25.759   3.247
24969W        W25834  17.939  28.060   3.369
24970W        W25835  17.369  26.227   2.965
24971W        W25836  17.169  26.165   1.235
24972W        W25837  17.562  27.299   3.639
24973W        W25838  15.302  28.875   1.625
24974W        W25839  15.960  26.592   0.611
24975W        W25840  15.529  25.876   3.275
24976W        W25841  17.581  26.360   0.956
24977W        W25842  17.948  26.842   0.901
24978W        W25843  15.691  29.059   3.372
24979W        W25844  15.617  25.595   0.607
24980W        W25845  17.938  26.129   1.642
24981W        W25846  18.088  28.378   0.087
24982W        W25847  14.995  27.581   1.789
24983W        W25848  16.912  26.168   0.019
24984W        W25849  18.046  28.500   1.739
24985W        W25850  18.085  25.694   2.489
24986W        W25851  16.530  26.906   3.043
24987W        W25852  16.623  28.245   0.746
24988W        W25853  17.023  27.539   3.486
24989W        W25854  16.697  25.516   1.795
24990W        W25855  15.309  26.419   1.858
24991W        W25856  14.863  27.619   2.632
24992W        W25857  16.722  28.812   1.338
24993W        W25858  17.916  26.409   2.210
24994W        W25859  16.553  28.756   2.977
24995W        W25860  17.896  27.815   0.182
24996W        W25861  16.331  27.298   1.243
24997W        W25862  18.183  25.809   2.984
24998W        W25863  16.332  27.644   2.578
24999W        W25864  16.549  26.530   2.023
25000W        W25865  17.401  26.828   0.861
25001W        W25866  17.688  26.561   0.503
25002W        W25867  17.497  28.601   0.892
25003W        W25868  17.331  28.204   1.688
25004W        W25869  17.227  27.283   0.666
25005W        W25870  16.660  27.493   1.652
25006W        W25871  17.541  27.281   1.719
25007W        W25872  14.916  26.296   2.143
25008W        W25873  17.694  27.348   2.970
25009W        W25874  18.045  28.966   2.116
25010W        W25875  15.975  28.410   1.518
25011W        W25876  16.982  28.943   2.842
25012W        W25877  16.976  26.273   2.606
25013W        W25878  16.183  28.981   2.667
25014W        W25879  17.880  25.935   1.133
25015W        W25880  17.671  27.254   2.434
25016W        W25881  14.654  26.575   2.472
25017W        W25882  17.514  26.370   1.490
25018W        W25883  17.925  26.521   3.267
25019W        W25884  16.810  28.220   1.485
25020W        W25885  16.066  28.811   1.098
25021W        W25886  15.181  25.991   0.356
25022W        W25887  16.285  25.645   2.166
25023W        W25888  15.313  28.765   0.014
25024W        W25889  15.687  27.231   0.765
25025W        W25890  16.341  27.860   3.078
25026W        W25891  16.171  26.218   1.068
25027W        W25892  17.527  25.815   1.496
25028W        W25893  17.247  29.097   1.824
25029W        W25894  16.659  28.745   2.164
25030W        W25895  16.055  27.782   2.125
25031W        W25896  17.825  28.505   2.251
25032W        W25897  15.519  26.008   1.020
25033W        W25898  16.041  28.305   1.980
25034W        W25899  15.524  26.236   0.045
25035W        W25900  16.325  26.845   2.439
25036W        W25901  17.173  25.711   2.309
25037W        W25902  14.593  27.554   2.194
25038W        W25903  16.297  27.372   0.352
25039W        W25904  15.565  25.687   0.122
25040W        W25905  16.303  26.768   1.173
25041W        W25906  17.273  25.744   2.872
25042W        W25907  15.861  27.756   2.981
25043W        W25908  16.665  27.538   3.198
25044W        W25909  17.282  27.568   3.091
25045W        W25910  16.566  25.708   3.596
25046W        W25911  15.788  26.324   1.989
25047W        W25912  15.214  26.280   1.387
25048W        W25913  15.000  28.992   1.063
25049W        W25914  16.332  28.322   3.188
25050W        W25915  15.367  27.807   0.547
25051W        W25916  17.047  27.192   1.768
25052W        W25917  17.327  26.991   2.167
25053W        W25918  16.532  27.665   2.101
25054W        W25919  17.002  28.039   0.233
25055W        W25920  16.674  26.060   1.561
25056W        W25921  18.153  26.338   0.829
25057W        W25922  14.647  28.927   2.860
25058W        W25923  15.064  28.153   2.392
25059W        W25924  14.631  28.999   0.624
25060W        W25925  16.530  26.269   2.430
25061W        W25926  15.893  28.292   0.279
25062W        W25927  17.798  28.674   0.465
25063W        W25928  16.773  27.327   0.479
25064W        W25929  15.616  26.518   0.996
25065W        W25930  16.448  26.428   0.048
25066W        W25931  17.032  27.993   3.226
25067W        W25932  17.385  25.899   0.843
25068W        W25933  14.715  25.747   0.291
25069W        W25934  16.001  28.066   2.581
25070W        W25935  15.800  27.982   1.673
25071W        W25936  15.542  27.934   0.071
25072W        W25937  14.783  28.175   0.839
25073W        W25938  15.287  27.245   3.281
25074W        W25939  15.991  25.805   3.467
25075W        W25940  16.700  25.947   2.823
25076W        W25941  15.895  25.715   1.104
25077W        W25942  16.954  25.792   0.609
25078W        W25943  14.899  25.724   2.186
25079W        W25944  14.947  26.687   1.556
25080W        W25945  17.636  25.795   1.962
25081W        W25946  15.058  26.293   0.776
25082W        W25947  17.629  25.981   2.392
25083W        W25948  18.025  27.184   0.077
25084W        W25949  15.317  25.942   1.896
25085W        W25950  16.431  26.514   2.836
25086W        W25951  14.579  26.204   0.314
25087W        W25952  15.365  27.593   2.875
25088W        W25953  16.723  26.991   2.054
25089W        W25954  16.590  29.070   0.350
25090W        W25955  14.736  27.577   0.047
25091W        W25956  15.471  27.988   3.173
25092W        W25957  14.992  27.155   2.804
25093W        W25958  15.983  27.260   2.598
25094W        W25959  17.751  25.619   2.860
25095W        W25960  18.149  27.229   2.851
25096W        W25961  18.137  27.429   0.537
25097W        W25962  17.000  27.761   0.636
25098W        W25963  17.474  29.061   0.331
25099W        W25964  16.651  27.051   3.473
25100W        W25965  14.981  28.018   3.513
25101W        W25966  18.187  25.940   3.465
25102W        W25967  17.905  26.868   2.086
25103W        W25968  16.213  28.998   3.563
25104W        W25969  16.068  25.627   0.290
25105W        W25970  17.607  28.226   0.233
25106W        W25971  15.376  26.319   3.119
25107W        W25972  15.810  28.313   2.981
25108W        W25973  17.936  26.304   2.779
25109W        W25974  17.147  28.963   0.747
25110W        W25975  17.386  27.582   2.114
25111W        W25976  15.636  25.998   2.781
25112W        W25977  16.105  27.067   3.538
25113W        W25978  15.608  28.246   0.732
25114W        W25979  17.363  27.744   0.996
25115W        W25980  15.131  26.370   2.720
25116W        W25981  16.460  28.432   1.184
25117W        W25982  18.210  26.992   1.365
25118W        W25983  16.432  25.625   3.084
25119W        W25984  17.212  28.330   2.163
25120W        W25985  17.515  28.674   1.871
25121W        W25986  16.734  28.476   0.299
25122W        W25987  14.744  28.368   3.141
25123W        W25988  15.487  26.360   2.379
25124W        W25989  15.457  25.708   1.489
25125W        W25990  17.078  26.550   2.181
25126W        W25991  15.876  27.721   0.381
25127W        W25992  17.874  27.663   1.880
25128W        W25993  15.201  28.421   3.303
25129W        W25994  17.588  29.103   1.100
25130W        W25995  15.687  26.123   1.545
25131W        W25996  15.456  27.616   1.635
25132W        W25997  15.769  29.027   2.385
25133W        W25998  17.836  29.123   3.417
25134W        W25999  16.995  27.311   2.350
25135W        W26000  14.844  27.109   0.265
25136W        W26001  17.978  28.767   0.962
25137W        W26002  17.815  26.091   0.581
25138W        W26003  15.954  25.610   2.984
25139W        W26004  17.660  28.412   1.442
25140W        W26005  17.689  26.968   1.347
25141W        W26006  15.806  26.641   1.563
25142W        W26007  16.051  26.903   2.887
25143W        W26008  17.162  28.056   2.750
25144W        W26009  15.812  26.510   2.862
25145W        W26010  15.791  28.976   1.478
25146W        W26011  15.108  28.935   3.112
25147W        W26012  15.220  28.296   0.242
25148W        W26013  17.737  28.054   1.052
25149W        W26014  15.341  26.846   2.938
25150W        W26015  18.114  26.776   0.419
25151W        W26016  15.859  27.833   0.890
25152W        W26017  16.958  27.215   2.971
25153W        W26018  16.849  26.843   2.515
25154W        W26019  15.409  27.215   2.544
25155W        W26020  17.619  29.103   2.373
25156W        W26021  17.410  25.737   3.367
25157W        W26022  15.074  25.887   2.954
25158W        W26023  15.413  26.910   2.007
25159W        W26024  15.782  26.724   0.129
25160W        W26025  14.585  28.483   2.674
25161W        W26026  16.170  27.192   2.117
25162W        W26027  15.993  26.217   0.222
25163W        W26028  15.128  27.033   1.003
25164W        W26029  14.899  28.885   2.440
25165W        W26030  17.694  27.111   0.548
25166W        W26031  17.789  26.027   3.234
25167W        W26032  17.225  28.236   1.197
25168W        W26033  14.823  27.160   3.374
25169W        W26034  17.789  25.624   0.670
25170W        W26035  17.309  28.099   0.681
25171W        W26036  16.211  27.157   0.766
25172W        W26037  17.398  25.961   0.289
25173W        W26038  17.463  26.568   2.475
25174W        W26039  15.172  27.161   1.682
25175W        W26040  15.466  28.100   1.331
25176W        W26041  17.229  26.720   1.296
25177W        W26042  16.252  26.099   1.992
25178W        W26043  18.214  28.010   2.503
25179W        W26044  18.132  25.997   2.064
25180W        W26045  14.671  28.827   1.440
25181W        W26046  15.180  28.014   0.976
25182W        W26047  15.095  25.631   3.529
25183W        W26048  16.214  28.484   3.631
25184W        W26049  17.969  27.452   1.421
25185W        W26050  17.323  27.629   0.301
25186W        W26051  16.618  29.150   2.513
25187W        W26052  17.475  27.872   3.550
25188W        W26053  16.290  25.582   0.830
25189W        W26054  17.003  26.451   1.689
25190W        W26055  14.689  28.038   2.021
25191W        W26056  15.942  26.000   0.662
25192W        W26057  15.746  27.484   3.511
25193W        W26058  16.740  26.465   1.225
25194W        W26059  16.945  27.875   2.347
25195W        W26060  15.099  28.480   2.782
25196W        W26061  15.690  28.463   3.505
25197W        W26062  15.541  26.260   0.519
25198W        W26063  17.058  26.402   0.844
25199W        W26064  17.016  28.510   3.081
25200W        W26065  15.701  27.102   1.680
25201W        W26066  15.356  28.800   2.545
25202W        W26067  18.101  28.917   0.146
25203W        W26068  14.964  27.589   3.142
25204W        W26069  16.959  27.851   1.830
25205W        W26070  15.395  27.500   1.072
25206W        W26071  15.766  28.507   2.467
25207W        W26072  16.144  25.926   1.508
25208W        W26073  14.755  27.910   0.438
25209W        W26074  16.274  26.861   0.308
25210W        W26075  14.920  27.410   1.327
25211W        W26076  16.210  26.052   2.791
25212W        W26077  17.882  25.761   0.218
25213W        W26078  17.975  27.507   3.317
25214W        W26079  16.629  28.764   3.469
25215W        W26080  18.187  27.858   2.991
25216W        W26081  17.595  28.656   3.602
25217W        W26082  15.334  29.112   2.080
25218W        W26083  18.193  27.734   0.954
25219W        W26084  16.723  27.001   1.467
25220W        W26085  16.490  25.613   1.357
25221W        W26086  15.549  28.597   1.194
25222W        W26087  16.048  26.338   2.419
25223W        W26088  15.748  25.707   1.888
25224W        W26089  14.811  28.529   0.436
25225W        W26090  16.627  27.893   1.154
25226W        W26091  15.502  28.688   3.033
25227W        W26092  14.979  27.511   0.729
25228W        W26093  14.864  26.054   1.728
25229W        W26094  16.412  28.019   1.785
25230W        W26095  14.664  25.873   0.805
25231W        W26096  17.328  27.079   2.732
25232W        W26097  17.205  26.465   0.304
25233W        W26098  17.722  28.137   1.952
25234W        W26099  16.383  28.621   1.783
25235W        W26100  15.795  28.725   0.694
25236W        W26101  17.077  25.628   0.124
25237W        W26102  14.877  28.888   1.865
25238W        W26103  17.074  26.646   3.500
25239W        W26104  15.057  26.176   3.499
25240W        W26105  14.788  26.776   0.832
25241W        W26106  15.479  26.765   0.557
25242W        W26107  17.242  27.092   3.374
25243W        W26108  15.585  27.373   2.083
25244W        W26109  17.059  25.659   1.203
25245W        W26110  16.190  29.090   1.706
25246W        W26111  17.404  28.552   2.643
25247W        W26112  16.988  28.701   1.754
25248W        W26113  17.007  27.681   1.348
25249W        W26114  16.469  25.906   0.419
25250W        W26115  18.150  25.534   1.141
25251W        W26116  15.838  27.169   0.304
25252W        W26117  18.004  26.506   1.294
25253W        W26118  16.696  27.676   0.171
25254W        W26119  17.632  27.876   2.919
25255W        W26120  17.286  28.577   0.386
25256W        W26121  15.901  26.252   3.292
25257W        W26122  15.721  26.836   2.533
25258W        W26123  17.813  28.331   2.810
25259W        W26124  16.913  26.281   3.187
25260W        W26125  14.757  26.752   2.964
25261W        W26126  16.517  27.229   2.690
25262W        W26127  14.874  27.987   1.347
25263W        W26128  15.021  27.284   2.237
25264W        W26129  17.338  27.570   2.587
25265W        W26130  17.110  28.950   3.398
25266W        W26131  17.006  26.689   2.951
25267W        W26132  17.283  28.743   1.356
25268W        W26133  16.285  28.463   2.679
25269W        W26134  15.770  28.818   1.948
25270W        W26135  17.575  27.989   2.367
25271W        W26136  16.625  28.061   3.504
25272W        W26137  15.230  28.014   1.843
25273W        W26138  17.576  27.773   1.488
25274W        W26139  17.217  28.839   2.239
25275W        W26140  15.195  28.568   2.109
25276W        W26141  16.216  26.620   3.319
25277W        W26142  16.667  28.786   0.830
25278W        W26143  15.975  28.041   3.468
25279W        W26144  16.101  28.279   0.845
25280W        W26145  15.322  27.019   0.104
25281W        W26146  14.661  29.105   7.003
25282W        W26147  15.037  27.998   6.526
25283W        W26148  17.742  27.728   4.296
25284W        W26149  17.872  28.813   6.323
25285W        W26150  15.790  28.804   3.849
25286W        W26151  15.873  26.956   4.832
25287W        W26152  15.388  26.804   4.996
25288W        W26153  16.379  27.619   4.430
25289W        W26154  16.054  28.711   6.785
25290W        W26155  14.703  26.272   6.748
25291W        W26156  15.465  25.552   6.550
25292W        W26157  17.159  25.940   5.437
25293W        W26158  16.808  26.811   4.007
25294W        W26159  17.378  26.245   7.098
25295W        W26160  14.744  26.037   6.223
25296W        W26161  14.843  28.656   7.244
25297W        W26162  16.365  28.046   3.976
25298W        W26163  14.797  26.829   5.669
25299W        W26164  15.690  26.720   6.906
25300W        W26165  18.149  26.579   5.405
25301W        W26166  17.913  27.622   6.264
25302W        W26167  16.221  26.955   5.291
25303W        W26168  16.767  28.294   5.660
25304W        W26169  15.267  27.728   5.892
25305W        W26170  14.626  27.256   5.463
25306W        W26171  15.662  27.228   6.655
25307W        W26172  17.933  27.011   6.909
25308W        W26173  15.549  28.455   5.354
25309W        W26174  16.670  28.144   6.488
25310W        W26175  15.890  26.784   5.713
25311W        W26176  16.182  27.568   5.356
25312W        W26177  17.179  28.341   7.204
25313W        W26178  16.258  27.661   7.214
25314W        W26179  16.239  27.377   6.692
25315W        W26180  14.648  26.768   7.214
25316W        W26181  17.480  28.303   6.813
25317W        W26182  15.061  25.885   4.811
25318W        W26183  15.588  28.143   5.810
25319W        W26184  18.051  27.926   5.100
25320W        W26185  17.464  26.326   5.667
25321W        W26186  17.749  26.279   3.762
25322W        W26187  18.214  27.080   6.068
25323W        W26188  16.181  28.787   5.821
25324W        W26189  17.955  28.253   4.259
25325W        W26190  15.084  29.039   4.013
25326W        W26191  15.477  29.085   4.689
25327W        W26192  15.274  25.839   6.115
25328W        W26193  17.897  26.857   6.390
25329W        W26194  17.302  27.279   4.849
25330W        W26195  17.268  26.967   3.876
25331W        W26196  16.476  28.111   6.016
25332W        W26197  16.282  26.441   5.215
25333W        W26198  16.882  28.528   6.209
25334W        W26199  17.753  27.319   4.631
25335W        W26200  16.655  25.977   4.647
25336W        W26201  15.312  28.671   4.330
25337W        W26202  14.683  26.170   4.929
25338W        W26203  17.469  26.777   5.403
25339W        W26204  14.927  28.394   5.318
25340W        W26205  16.268  28.744   4.188
25341W        W26206  17.660  26.770   3.652
25342W        W26207  14.683  28.528   5.816
25343W        W26208  15.474  28.100   6.296
25344W        W26209  15.847  27.460   4.915
25345W        W26210  15.869  25.865   6.008
25346W        W26211  18.098  25.627   5.305
25347W        W26212  15.317  27.499   3.773
25348W        W26213  14.972  26.532   3.952
25349W        W26214  15.034  28.488   4.746
25350W        W26215  16.165  27.971   4.994
25351W        W26216  17.497  28.830   6.708
25352W        W26217  16.423  26.472   4.392
25353W        W26218  17.806  28.870   5.164
25354W        W26219  17.483  26.723   6.762
25355W        W26220  18.196  28.379   4.896
25356W        W26221  16.823  27.671   6.380
25357W        W26222  14.589  27.222   4.586
25358W        W26223  15.700  27.637   6.159
25359W        W26224  16.904  26.901   4.537
25360W        W26225  16.781  27.391   4.641
25361W        W26226  15.124  26.811   6.115
25362W        W26227  15.109  26.687   7.037
25363W        W26228  14.999  25.604   5.196
25364W        W26229  16.767  25.951   5.757
25365W        W26230  16.415  26.136   6.920
25366W        W26231  16.770  26.285   4.098
25367W        W26232  17.953  28.678   6.852
25368W        W26233  16.920  25.759   6.891
25369W        W26234  17.939  28.060   7.013
25370W        W26235  17.369  26.227   6.609
25371W        W26236  17.169  26.165   4.879
25372W        W26237  17.562  27.299   7.283
25373W        W26238  15.302  28.875   5.269
25374W        W26239  15.960  26.592   4.255
25375W        W26240  15.529  25.876   6.919
25376W        W26241  17.581  26.360   4.600
25377W        W26242  17.948  26.842   4.545
25378W        W26243  15.691  29.059   7.016
25379W        W26244  15.617  25.595   4.251
25380W        W26245  17.938  26.129   5.286
25381W        W26246  18.088  28.378   3.731
25382W        W26247  14.995  27.581   5.433
25383W        W26248  16.912  26.168   3.663
25384W        W26249  18.046  28.500   5.383
25385W        W26250  18.085  25.694   6.133
25386W        W26251  16.530  26.906   6.687
25387W        W26252  16.623  28.245   4.390
25388W        W26253  17.023  27.539   7.130
25389W        W26254  16.697  25.516   5.439
25390W        W26255  15.309  26.419   5.502
25391W        W26256  14.863  27.619   6.276
25392W        W26257  16.722  28.812   4.982
25393W        W26258  17.916  26.409   5.854
25394W        W26259  16.553  28.756   6.621
25395W        W26260  17.896  27.815   3.826
25396W        W26261  16.331  27.298   4.887
25397W        W26262  18.183  25.809   6.628
25398W        W26263  16.332  27.644   6.222
25399W        W26264  16.549  26.530   5.667
25400W        W26265  17.401  26.828   4.505
25401W        W26266  17.688  26.561   4.147
25402W        W26267  17.497  28.601   4.536
25403W        W26268  17.331  28.204   5.332
25404W        W26269  17.227  27.283   4.310
25405W        W26270  16.660  27.493   5.296
25406W        W26271  17.541  27.281   5.363
25407W        W26272  14.916  26.296   5.787
25408W        W26273  17.694  27.348   6.614
25409W        W26274  18.045  28.966   5.760
25410W        W26275  15.975  28.410   5.162
25411W        W26276  16.982  28.943   6.486
25412W        W26277  16.976  26.273   6.250
25413W        W26278  16.183  28.981   6.311
25414W        W26279  17.880  25.935   4.777
25415W        W26280  17.671  27.254   6.078
25416W        W26281  14.654  26.575   6.116
25417W        W26282  17.514  26.370   5.134
25418W        W26283  17.925  26.521   6.911
25419W        W26284  16.810  28.220   5.129
25420W        W26285  16.066  28.811   4.742
25421W        W26286  15.181  25.991   4.000
25422W        W26287  16.285  25.645   5.810
25423W        W26288  15.313  28.765   3.658
25424W        W26289  15.687  27.231   4.409
25425W        W26290  16.341  27.860   6.722
25426W        W26291  16.171  26.218   4.712
25427W        W26292  17.527  25.815   5.140
25428W        W26293  17.247  29.097   5.468
25429W        W26294  16.659  28.745   5.808
25430W        W26295  16.055  27.782   5.769
25431W        W26296  17.825  28.505   5.895
25432W        W26297  15.519  26.008   4.664
25433W        W26298  16.041  28.305   5.624
25434W        W26299  15.524  26.236   3.689
25435W        W26300  16.325  26.845   6.083
25436W        W26301  17.173  25.711   5.953
25437W        W26302  14.593  27.554   5.838
25438W        W26303  16.297  27.372   3.996
25439W        W26304  15.565  25.687   3.766
25440W        W26305  16.303  26.768   4.817
25441W        W26306  17.273  25.744   6.516
25442W        W26307  15.861  27.756   6.625
25443W        W26308  16.665  27.538   6.842
25444W        W26309  17.282  27.568   6.735
25445W        W26310  16.566  25.708   7.240
25446W        W26311  15.788  26.324   5.633
25447W        W26312  15.214  26.280   5.031
25448W        W26313  15.000  28.992   4.707
25449W        W26314  16.332  28.322   6.832
25450W        W26315  15.367  27.807   4.191
25451W        W26316  17.047  27.192   5.412
25452W        W26317  17.327  26.991   5.811
25453W        W26318  16.532  27.665   5.745
25454W        W26319  17.002  28.039   3.877
25455W        W26320  16.674  26.060   5.205
25456W        W26321  18.153  26.338   4.473
25457W        W26322  14.647  28.927   6.504
25458W        W26323  15.064  28.153   6.036
25459W        W26324  14.631  28.999   4.268
25460W        W26325  16.530  26.269   6.074
25461W        W26326  15.893  28.292   3.923
25462W        W26327  17.798  28.674   4.109
25463W        W26328  16.773  27.327   4.123
25464W        W26329  15.616  26.518   4.640
25465W        W26330  16.448  26.428   3.692
25466W        W26331  17.032  27.993   6.870
25467W        W26332  17.385  25.899   4.487
25468W        W26333  14.715  25.747   3.935
25469W        W26334  16.001  28.066   6.225
25470W        W26335  15.800  27.982   5.317
25471W        W26336  15.542  27.934   3.715
25472W        W26337  14.783  28.175   4.483
25473W        W26338  15.287  27.245   6.925
25474W        W26339  15.991  25.805   7.111
25475W        W26340  16.700  25.947   6.467
25476W        W26341  15.895  25.715   4.748
25477W        W26342  16.954  25.792   4.253
25478W        W26343  14.899  25.724   5.830
25479W        W26344  14.947  26.687   5.200
25480W        W26345  17.636  25.795   5.606
25481W        W26346  15.058  26.293   4.420
25482W        W26347  17.629  25.981   6.036
25483W        W26348  18.025  27.184   3.721
25484W        W26349  15.317  25.942   5.540
25485W        W26350  16.431  26.514   6.480
25486W        W26351  14.579  26.204   3.958
25487W        W26352  15.365  27.593   6.519
25488W        W26353  16.723  26.991   5.698
25489W        W26354  16.590  29.070   3.994
25490W        W26355  14.736  27.577   3.691
25491W        W26356  15.471  27.988   6.817
25492W        W26357  14.992  27.155   6.448
25493W        W26358  15.983  27.260   6.242
25494W        W26359  17.751  25.619   6.504
25495W        W26360  18.149  27.229   6.495
25496W        W26361  18.137  27.429   4.181
25497W        W26362  17.000  27.761   4.280
25498W        W26363  17.474  29.061   3.975
25499W        W26364  16.651  27.051   7.117
25500W        W26365  14.981  28.018   7.157
25501W        W26366  18.187  25.940   7.109
25502W        W26367  17.905  26.868   5.730
25503W        W26368  16.213  28.998   7.207
25504W        W26369  16.068  25.627   3.934
25505W        W26370  17.607  28.226   3.877
25506W        W26371  15.376  26.319   6.763
25507W        W26372  15.810  28.313   6.625
25508W        W26373  17.936  26.304   6.423
25509W        W26374  17.147  28.963   4.391
25510W        W26375  17.386  27.582   5.758
25511W        W26376  15.636  25.998   6.425
25512W        W26377  16.105  27.067   7.182
25513W        W26378  15.608  28.246   4.376
25514W        W26379  17.363  27.744   4.640
25515W        W26380  15.131  26.370   6.364
25516W        W26381  16.460  28.432   4.828
25517W        W26382  18.210  26.992   5.009
25518W        W26383  16.432  25.625   6.728
25519W        W26384  17.212  28.330   5.807
25520W        W26385  17.515  28.674   5.515
25521W        W26386  16.734  28.476   3.943
25522W        W26387  14.744  28.368   6.785
25523W        W26388  15.487  26.360   6.023
25524W        W26389  15.457  25.708   5.133
25525W        W26390  17.078  26.550   5.825
25526W        W26391  15.876  27.721   4.025
25527W        W26392  17.874  27.663   5.524
25528W        W26393  15.201  28.421   6.947
25529W        W26394  17.588  29.103   4.744
25530W        W26395  15.687  26.123   5.189
25531W        W26396  15.456  27.616   5.279
25532W        W26397  15.769  29.027   6.029
25533W        W26398  17.836  29.123   7.061
25534W        W26399  16.995  27.311   5.994
25535W        W26400  14.844  27.109   3.909
25536W        W26401  17.978  28.767   4.606
25537W        W26402  17.815  26.091   4.225
25538W        W26403  15.954  25.610   6.628
25539W        W26404  17.660  28.412   5.086
25540W        W26405  17.689  26.968   4.991
25541W        W26406  15.806  26.641   5.207
25542W        W26407  16.051  26.903   6.531
25543W        W26408  17.162  28.056   6.394
25544W        W26409  15.812  26.510   6.506
25545W        W26410  15.791  28.976   5.122
25546W        W26411  15.108  28.935   6.756
25547W        W26412  15.220  28.296   3.886
25548W        W26413  17.737  28.054   4.696
25549W        W26414  15.341  26.846   6.582
25550W        W26415  18.114  26.776   4.063
25551W        W26416  15.859  27.833   4.534
25552W        W26417  16.958  27.215   6.615
25553W        W26418  16.849  26.843   6.159
25554W        W26419  15.409  27.215   6.188
25555W        W26420  17.619  29.103   6.017
25556W        W26421  17.410  25.737   7.011
25557W        W26422  15.074  25.887   6.598
25558W        W26423  15.413  26.910   5.651
25559W        W26424  15.782  26.724   3.773
25560W        W26425  14.585  28.483   6.318
25561W        W26426  16.170  27.192   5.761
25562W        W26427  15.993  26.217   3.866
25563W        W26428  15.128  27.033   4.647
25564W        W26429  14.899  28.885   6.084
25565W        W26430  17.694  27.111   4.192
25566W        W26431  17.789  26.027   6.878
25567W        W26432  17.225  28.236   4.841
25568W        W26433  14.823  27.160   7.018
25569W        W26434  17.789  25.624   4.314
25570W        W26435  17.309  28.099   4.325
25571W        W26436  16.211  27.157   4.410
25572W        W26437  17.398  25.961   3.933
25573W        W26438  17.463  26.568   6.119
25574W        W26439  15.172  27.161   5.326
25575W        W26440  15.466  28.100   4.975
25576W        W26441  17.229  26.720   4.940
25577W        W26442  16.252  26.099   5.636
25578W        W26443  18.214  28.010   6.147
25579W        W26444  18.132  25.997   5.708
25580W        W26445  14.671  28.827   5.084
25581W        W26446  15.180  28.014   4.620
25582W        W26447  15.095  25.631   7.173
25583W        W26448  16.214  28.484   7.275
25584W        W26449  17.969  27.452   5.065
25585W        W26450  17.323  27.629   3.945
25586W        W26451  16.618  29.150   6.157
25587W        W26452  17.475  27.872   7.194
25588W        W26453  16.290  25.582   4.474
25589W        W26454  17.003  26.451   5.333
25590W        W26455  14.689  28.038   5.665
25591W        W26456  15.942  26.000   4.306
25592W        W26457  15.746  27.484   7.155
25593W        W26458  16.740  26.465   4.869
25594W        W26459  16.945  27.875   5.991
25595W        W26460  15.099  28.480   6.426
25596W        W26461  15.690  28.463   7.149
25597W        W26462  15.541  26.260   4.163
25598W        W26463  17.058  26.402   4.488
25599W        W26464  17.016  28.510   6.725
25600W        W26465  15.701  27.102   5.324
25601W        W26466  15.356  28.800   6.189
25602W        W26467  18.101  28.917   3.790
25603W        W26468  14.964  27.589   6.786
25604W        W26469  16.959  27.851   5.474
25605W        W26470  15.395  27.500   4.716
25606W        W26471  15.766  28.507   6.111
25607W        W26472  16.144  25.926   5.152
25608W        W26473  14.755  27.910   4.082
25609W        W26474  16.274  26.861   3.952
25610W        W26475  14.920  27.410   4.971
25611W        W26476  16.210  26.052   6.435
25612W        W26477  17.882  25.761   3.862
25613W        W26478  17.975  27.507   6.961
25614W        W26479  16.629  28.764   7.113
25615W        W26480  18.187  27.858   6.635
25616W        W26481  17.595  28.656   7.246
25617W        W26482  15.334  29.112   5.724
25618W        W26483  18.193  27.734   4.598
25619W        W26484  16.723  27.001   5.111
25620W        W26485  16.490  25.613   5.001
25621W        W26486  15.549  28.597   4.838
25622W        W26487  16.048  26.338   6.063
25623W        W26488  15.748  25.707   5.532
25624W        W26489  14.811  28.529   4.080
25625W        W26490  16.627  27.893   4.798
25626W        W26491  15.502  28.688   6.677
25627W        W26492  14.979  27.511   4.373
25628W        W26493  14.864  26.054   5.372
25629W        W26494  16.412  28.019   5.429
25630W        W26495  14.664  25.873   4.449
25631W        W26496  17.328  27.079   6.376
25632W        W26497  17.205  26.465   3.948
25633W        W26498  17.722  28.137   5.596
25634W        W26499  16.383  28.621   5.427
25635W        W26500  15.795  28.725   4.338
25636W        W26501  17.077  25.628   3.768
25637W        W26502  14.877  28.888   5.509
25638W        W26503  17.074  26.646   7.144
25639W        W26504  15.057  26.176   7.143
25640W        W26505  14.788  26.776   4.476
25641W        W26506  15.479  26.765   4.201
25642W        W26507  17.242  27.092   7.018
25643W        W26508  15.585  27.373   5.727
25644W        W26509  17.059  25.659   4.847
25645W        W26510  16.190  29.090   5.350
25646W        W26511  17.404  28.552   6.287
25647W        W26512  16.988  28.701   5.398
25648W        W26513  17.007  27.681   4.992
25649W        W26514  16.469  25.906   4.063
25650W        W26515  18.150  25.534   4.785
25651W        W26516  15.838  27.169   3.948
25652W        W26517  18.004  26.506   4.938
25653W        W26518  16.696  27.676   3.815
25654W        W26519  17.632  27.876   6.563
25655W        W26520  17.286  28.577   4.030
25656W        W26521  15.901  26.252   6.936
25657W        W26522  15.721  26.836   6.177
25658W        W26523  17.813  28.331   6.454
25659W        W26524  16.913  26.281   6.831
25660W        W26525  14.757  26.752   6.608
25661W        W26526  16.517  27.229   6.334
25662W        W26527  14.874  27.987   4.991
25663W        W26528  15.021  27.284   5.881
25664W        W26529  17.338  27.570   6.231
25665W        W26530  17.110  28.950   7.042
25666W        W26531  17.006  26.689   6.595
25667W        W26532  17.283  28.743   5.000
25668W        W26533  16.285  28.463   6.323
25669W        W26534  15.770  28.818   5.592
25670W        W26535  17.575  27.989   6.011
25671W        W26536  16.625  28.061   7.148
25672W        W26537  15.230  28.014   5.487
25673W        W26538  17.576  27.773   5.132
25674W        W26539  17.217  28.839   5.883
25675W        W26540  15.195  28.568   5.753
25676W        W26541  16.216  26.620   6.963
25677W        W26542  16.667  28.786   4.474
25678W        W26543  15.975  28.041   7.112
25679W        W26544  16.101  28.279   4.489
25680W        W26545  15.322  27.019   3.748
25681W        W26546  14.661  29.105  10.648
25682W        W26547  15.037  27.998  10.171
25683W        W26548  17.742  27.728   7.941
25684W        W26549  17.872  28.813   9.968
25685W        W26550  15.790  28.804   7.494
25686W        W26551  15.873  26.956   8.477
25687W        W26552  15.388  26.804   8.641
25688W        W26553  16.379  27.619   8.075
25689W        W26554  16.054  28.711  10.430
25690W        W26555  14.703  26.272  10.393
25691W        W26556  15.465  25.552  10.195
25692W        W26557  17.159  25.940   9.082
25693W        W26558  16.808  26.811   7.652
25694W        W26559  17.378  26.245  10.743
25695W        W26560  14.744  26.037   9.868
25696W        W26561  14.843  28.656  10.889
25697W        W26562  16.365  28.046   7.621
25698W        W26563  14.797  26.829   9.314
25699W        W26564  15.690  26.720  10.551
25700W        W26565  18.149  26.579   9.050
25701W        W26566  17.913  27.622   9.909
25702W        W26567  16.221  26.955   8.936
25703W        W26568  16.767  28.294   9.305
25704W        W26569  15.267  27.728   9.537
25705W        W26570  14.626  27.256   9.108
25706W        W26571  15.662  27.228  10.300
25707W        W26572  17.933  27.011  10.554
25708W        W26573  15.549  28.455   8.999
25709W        W26574  16.670  28.144  10.133
25710W        W26575  15.890  26.784   9.358
25711W        W26576  16.182  27.568   9.001
25712W        W26577  17.179  28.341  10.849
25713W        W26578  16.258  27.661  10.859
25714W        W26579  16.239  27.377  10.337
25715W        W26580  14.648  26.768  10.859
25716W        W26581  17.480  28.303  10.458
25717W        W26582  15.061  25.885   8.456
25718W        W26583  15.588  28.143   9.455
25719W        W26584  18.051  27.926   8.745
25720W        W26585  17.464  26.326   9.312
25721W        W26586  17.749  26.279   7.407
25722W        W26587  18.214  27.080   9.713
25723W        W26588  16.181  28.787   9.466
25724W        W26589  17.955  28.253   7.904
25725W        W26590  15.084  29.039   7.658
25726W        W26591  15.477  29.085   8.334
25727W        W26592  15.274  25.839   9.760
25728W        W26593  17.897  26.857  10.035
25729W        W26594  17.302  27.279   8.494
25730W        W26595  17.268  26.967   7.521
25731W        W26596  16.476  28.111   9.661
25732W        W26597  16.282  26.441   8.860
25733W        W26598  16.882  28.528   9.854
25734W        W26599  17.753  27.319   8.276
25735W        W26600  16.655  25.977   8.292
25736W        W26601  15.312  28.671   7.975
25737W        W26602  14.683  26.170   8.574
25738W        W26603  17.469  26.777   9.048
25739W        W26604  14.927  28.394   8.963
25740W        W26605  16.268  28.744   7.833
25741W        W26606  17.660  26.770   7.297
25742W        W26607  14.683  28.528   9.461
25743W        W26608  15.474  28.100   9.941
25744W        W26609  15.847  27.460   8.560
25745W        W26610  15.869  25.865   9.653
25746W        W26611  18.098  25.627   8.950
25747W        W26612  15.317  27.499   7.418
25748W        W26613  14.972  26.532   7.597
25749W        W26614  15.034  28.488   8.391
25750W        W26615  16.165  27.971   8.639
25751W        W26616  17.497  28.830  10.353
25752W        W26617  16.423  26.472   8.037
25753W        W26618  17.806  28.870   8.809
25754W        W26619  17.483  26.723  10.407
25755W        W26620  18.196  28.379   8.541
25756W        W26621  16.823  27.671  10.025
25757W        W26622  14.589  27.222   8.231
25758W        W26623  15.700  27.637   9.804
25759W        W26624  16.904  26.901   8.182
25760W        W26625  16.781  27.391   8.286
25761W        W26626  15.124  26.811   9.760
25762W        W26627  15.109  26.687  10.682
25763W        W26628  14.999  25.604   8.841
25764W        W26629  16.767  25.951   9.402
25765W        W26630  16.415  26.136  10.565
25766W        W26631  16.770  26.285   7.743
25767W        W26632  17.953  28.678  10.497
25768W        W26633  16.920  25.759  10.536
25769W        W26634  17.939  28.060  10.658
25770W        W26635  17.369  26.227  10.254
25771W        W26636  17.169  26.165   8.524
25772W        W26637  17.562  27.299  10.928
25773W        W26638  15.302  28.875   8.914
25774W        W26639  15.960  26.592   7.900
25775W        W26640  15.529  25.876  10.564
25776W        W26641  17.581  26.360   8.245
25777W        W26642  17.948  26.842   8.190
25778W        W26643  15.691  29.059  10.661
25779W        W26644  15.617  25.595   7.896
25780W        W26645  17.938  26.129   8.931
25781W        W26646  18.088  28.378   7.376
25782W        W26647  14.995  27.581   9.078
25783W        W26648  16.912  26.168   7.308
25784W        W26649  18.046  28.500   9.028
25785W        W26650  18.085  25.694   9.778
25786W        W26651  16.530  26.906  10.332
25787W        W26652  16.623  28.245   8.035
25788W        W26653  17.023  27.539  10.775
25789W        W26654  16.697  25.516   9.084
25790W        W26655  15.309  26.419   9.147
25791W        W26656  14.863  27.619   9.921
25792W        W26657  16.722  28.812   8.627
25793W        W26658  17.916  26.409   9.499
25794W        W26659  16.553  28.756  10.266
25795W        W26660  17.896  27.815   7.471
25796W        W26661  16.331  27.298   8.532
25797W        W26662  18.183  25.809  10.273
25798W        W26663  16.332  27.644   9.867
25799W        W26664  16.549  26.530   9.312
25800W        W26665  17.401  26.828   8.150
25801W        W26666  17.688  26.561   7.792
25802W        W26667  17.497  28.601   8.181
25803W        W26668  17.331  28.204   8.977
25804W        W26669  17.227  27.283   7.955
25805W        W26670  16.660  27.493   8.941
25806W        W26671  17.541  27.281   9.008
25807W        W26672  14.916  26.296   9.432
25808W        W26673  17.694  27.348  10.259
25809W        W26674  18.045  28.966   9.405
25810W        W26675  15.975  28.410   8.807
25811W        W26676  16.982  28.943  10.131
25812W        W26677  16.976  26.273   9.895
25813W        W26678  16.183  28.981   9.956
25814W        W26679  17.880  25.935   8.422
25815W        W26680  17.671  27.254   9.723
25816W        W26681  14.654  26.575   9.761
25817W        W26682  17.514  26.370   8.779
25818W        W26683  17.925  26.521  10.556
25819W        W26684  16.810  28.220   8.774
25820W        W26685  16.066  28.811   8.387
25821W        W26686  15.181  25.991   7.645
25822W        W26687  16.285  25.645   9.455
25823W        W26688  15.313  28.765   7.303
25824W        W26689  15.687  27.231   8.054
25825W        W26690  16.341  27.860  10.367
25826W        W26691  16.171  26.218   8.357
25827W        W26692  17.527  25.815   8.785
25828W        W26693  17.247  29.097   9.113
25829W        W26694  16.659  28.745   9.453
25830W        W26695  16.055  27.782   9.414
25831W        W26696  17.825  28.505   9.540
25832W        W26697  15.519  26.008   8.309
25833W        W26698  16.041  28.305   9.269
25834W        W26699  15.524  26.236   7.334
25835W        W26700  16.325  26.845   9.728
25836W        W26701  17.173  25.711   9.598
25837W        W26702  14.593  27.554   9.483
25838W        W26703  16.297  27.372   7.641
25839W        W26704  15.565  25.687   7.411
25840W        W26705  16.303  26.768   8.462
25841W        W26706  17.273  25.744  10.161
25842W        W26707  15.861  27.756  10.270
25843W        W26708  16.665  27.538  10.487
25844W        W26709  17.282  27.568  10.380
25845W        W26710  16.566  25.708  10.885
25846W        W26711  15.788  26.324   9.278
25847W        W26712  15.214  26.280   8.676
25848W        W26713  15.000  28.992   8.352
25849W        W26714  16.332  28.322  10.477
25850W        W26715  15.367  27.807   7.836
25851W        W26716  17.047  27.192   9.057
25852W        W26717  17.327  26.991   9.456
25853W        W26718  16.532  27.665   9.390
25854W        W26719  17.002  28.039   7.522
25855W        W26720  16.674  26.060   8.850
25856W        W26721  18.153  26.338   8.118
25857W        W26722  14.647  28.927  10.149
25858W        W26723  15.064  28.153   9.681
25859W        W26724  14.631  28.999   7.913
25860W        W26725  16.530  26.269   9.719
25861W        W26726  15.893  28.292   7.568
25862W        W26727  17.798  28.674   7.754
25863W        W26728  16.773  27.327   7.768
25864W        W26729  15.616  26.518   8.285
25865W        W26730  16.448  26.428   7.337
25866W        W26731  17.032  27.993  10.515
25867W        W26732  17.385  25.899   8.132
25868W        W26733  14.715  25.747   7.580
25869W        W26734  16.001  28.066   9.870
25870W        W26735  15.800  27.982   8.962
25871W        W26736  15.542  27.934   7.360
25872W        W26737  14.783  28.175   8.128
25873W        W26738  15.287  27.245  10.570
25874W        W26739  15.991  25.805  10.756
25875W        W26740  16.700  25.947  10.112
25876W        W26741  15.895  25.715   8.393
25877W        W26742  16.954  25.792   7.898
25878W        W26743  14.899  25.724   9.475
25879W        W26744  14.947  26.687   8.845
25880W        W26745  17.636  25.795   9.251
25881W        W26746  15.058  26.293   8.065
25882W        W26747  17.629  25.981   9.681
25883W        W26748  18.025  27.184   7.366
25884W        W26749  15.317  25.942   9.185
25885W        W26750  16.431  26.514  10.125
25886W        W26751  14.579  26.204   7.603
25887W        W26752  15.365  27.593  10.164
25888W        W26753  16.723  26.991   9.343
25889W        W26754  16.590  29.070   7.639
25890W        W26755  14.736  27.577   7.336
25891W        W26756  15.471  27.988  10.462
25892W        W26757  14.992  27.155  10.093
25893W        W26758  15.983  27.260   9.887
25894W        W26759  17.751  25.619  10.149
25895W        W26760  18.149  27.229  10.140
25896W        W26761  18.137  27.429   7.826
25897W        W26762  17.000  27.761   7.925
25898W        W26763  17.474  29.061   7.620
25899W        W26764  16.651  27.051  10.762
25900W        W26765  14.981  28.018  10.802
25901W        W26766  18.187  25.940  10.754
25902W        W26767  17.905  26.868   9.375
25903W        W26768  16.213  28.998  10.852
25904W        W26769  16.068  25.627   7.579
25905W        W26770  17.607  28.226   7.522
25906W        W26771  15.376  26.319  10.408
25907W        W26772  15.810  28.313  10.270
25908W        W26773  17.936  26.304  10.068
25909W        W26774  17.147  28.963   8.036
25910W        W26775  17.386  27.582   9.403
25911W        W26776  15.636  25.998  10.070
25912W        W26777  16.105  27.067  10.827
25913W        W26778  15.608  28.246   8.021
25914W        W26779  17.363  27.744   8.285
25915W        W26780  15.131  26.370  10.009
25916W        W26781  16.460  28.432   8.473
25917W        W26782  18.210  26.992   8.654
25918W        W26783  16.432  25.625  10.373
25919W        W26784  17.212  28.330   9.452
25920W        W26785  17.515  28.674   9.160
25921W        W26786  16.734  28.476   7.588
25922W        W26787  14.744  28.368  10.430
25923W        W26788  15.487  26.360   9.668
25924W        W26789  15.457  25.708   8.778
25925W        W26790  17.078  26.550   9.470
25926W        W26791  15.876  27.721   7.670
25927W        W26792  17.874  27.663   9.169
25928W        W26793  15.201  28.421  10.592
25929W        W26794  17.588  29.103   8.389
25930W        W26795  15.687  26.123   8.834
25931W        W26796  15.456  27.616   8.924
25932W        W26797  15.769  29.027   9.674
25933W        W26798  17.836  29.123  10.706
25934W        W26799  16.995  27.311   9.639
25935W        W26800  14.844  27.109   7.554
25936W        W26801  17.978  28.767   8.251
25937W        W26802  17.815  26.091   7.870
25938W        W26803  15.954  25.610  10.273
25939W        W26804  17.660  28.412   8.731
25940W        W26805  17.689  26.968   8.636
25941W        W26806  15.806  26.641   8.852
25942W        W26807  16.051  26.903  10.176
25943W        W26808  17.162  28.056  10.039
25944W        W26809  15.812  26.510  10.151
25945W        W26810  15.791  28.976   8.767
25946W        W26811  15.108  28.935  10.401
25947W        W26812  15.220  28.296   7.531
25948W        W26813  17.737  28.054   8.341
25949W        W26814  15.341  26.846  10.227
25950W        W26815  18.114  26.776   7.708
25951W        W26816  15.859  27.833   8.179
25952W        W26817  16.958  27.215  10.260
25953W        W26818  16.849  26.843   9.804
25954W        W26819  15.409  27.215   9.833
25955W        W26820  17.619  29.103   9.662
25956W        W26821  17.410  25.737  10.656
25957W        W26822  15.074  25.887  10.243
25958W        W26823  15.413  26.910   9.296
25959W        W26824  15.782  26.724   7.418
25960W        W26825  14.585  28.483   9.963
25961W        W26826  16.170  27.192   9.406
25962W        W26827  15.993  26.217   7.511
25963W        W26828  15.128  27.033   8.292
25964W        W26829  14.899  28.885   9.729
25965W        W26830  17.694  27.111   7.837
25966W        W26831  17.789  26.027  10.523
25967W        W26832  17.225  28.236   8.486
25968W        W26833  14.823  27.160  10.663
25969W        W26834  17.789  25.624   7.959
25970W        W26835  17.309  28.099   7.970
25971W        W26836  16.211  27.157   8.055
25972W        W26837  17.398  25.961   7.578
25973W        W26838  17.463  26.568   9.764
25974W        W26839  15.172  27.161   8.971
25975W        W26840  15.466  28.100   8.620
25976W        W26841  17.229  26.720   8.585
25977W        W26842  16.252  26.099   9.281
25978W        W26843  18.214  28.010   9.792
25979W        W26844  18.132  25.997   9.353
25980W        W26845  14.671  28.827   8.729
25981W        W26846  15.180  28.014   8.265
25982W        W26847  15.095  25.631  10.818
25983W        W26848  16.214  28.484  10.920
25984W        W26849  17.969  27.452   8.710
25985W        W26850  17.323  27.629   7.590
25986W        W26851  16.618  29.150   9.802
25987W        W26852  17.475  27.872  10.839
25988W        W26853  16.290  25.582   8.119
25989W        W26854  17.003  26.451   8.978
25990W        W26855  14.689  28.038   9.310
25991W        W26856  15.942  26.000   7.951
25992W        W26857  15.746  27.484  10.800
25993W        W26858  16.740  26.465   8.514
25994W        W26859  16.945  27.875   9.636
25995W        W26860  15.099  28.480  10.071
25996W        W26861  15.690  28.463  10.794
25997W        W26862  15.541  26.260   7.808
25998W        W26863  17.058  26.402   8.133
25999W        W26864  17.016  28.510  10.370
26000W        W26865  15.701  27.102   8.969
26001W        W26866  15.356  28.800   9.834
26002W        W26867  18.101  28.917   7.435
26003W        W26868  14.964  27.589  10.431
26004W        W26869  16.959  27.851   9.119
26005W        W26870  15.395  27.500   8.361
26006W        W26871  15.766  28.507   9.756
26007W        W26872  16.144  25.926   8.797
26008W        W26873  14.755  27.910   7.727
26009W        W26874  16.274  26.861   7.597
26010W        W26875  14.920  27.410   8.616
26011W        W26876  16.210  26.052  10.080
26012W        W26877  17.882  25.761   7.507
26013W        W26878  17.975  27.507  10.606
26014W        W26879  16.629  28.764  10.758
26015W        W26880  18.187  27.858  10.280
26016W        W26881  17.595  28.656  10.891
26017W        W26882  15.334  29.112   9.369
26018W        W26883  18.193  27.734   8.243
26019W        W26884  16.723  27.001   8.756
26020W        W26885  16.490  25.613   8.646
26021W        W26886  15.549  28.597   8.483
26022W        W26887  16.048  26.338   9.708
26023W        W26888  15.748  25.707   9.177
26024W        W26889  14.811  28.529   7.725
26025W        W26890  16.627  27.893   8.443
26026W        W26891  15.502  28.688  10.322
26027W        W26892  14.979  27.511   8.018
26028W        W26893  14.864  26.054   9.017
26029W        W26894  16.412  28.019   9.074
26030W        W26895  14.664  25.873   8.094
26031W        W26896  17.328  27.079  10.021
26032W        W26897  17.205  26.465   7.593
26033W        W26898  17.722  28.137   9.241
26034W        W26899  16.383  28.621   9.072
26035W        W26900  15.795  28.725   7.983
26036W        W26901  17.077  25.628   7.413
26037W        W26902  14.877  28.888   9.154
26038W        W26903  17.074  26.646  10.789
26039W        W26904  15.057  26.176  10.788
26040W        W26905  14.788  26.776   8.121
26041W        W26906  15.479  26.765   7.846
26042W        W26907  17.242  27.092  10.663
26043W        W26908  15.585  27.373   9.372
26044W        W26909  17.059  25.659   8.492
26045W        W26910  16.190  29.090   8.995
26046W        W26911  17.404  28.552   9.932
26047W        W26912  16.988  28.701   9.043
26048W        W26913  17.007  27.681   8.637
26049W        W26914  16.469  25.906   7.708
26050W        W26915  18.150  25.534   8.430
26051W        W26916  15.838  27.169   7.593
26052W        W26917  18.004  26.506   8.583
26053W        W26918  16.696  27.676   7.460
26054W        W26919  17.632  27.876  10.208
26055W        W26920  17.286  28.577   7.675
26056W        W26921  15.901  26.252  10.581
26057W        W26922  15.721  26.836   9.822
26058W        W26923  17.813  28.331  10.099
26059W        W26924  16.913  26.281  10.476
26060W        W26925  14.757  26.752  10.253
26061W        W26926  16.517  27.229   9.979
26062W        W26927  14.874  27.987   8.636
26063W        W26928  15.021  27.284   9.526
26064W        W26929  17.338  27.570   9.876
26065W        W26930  17.110  28.950  10.687
26066W        W26931  17.006  26.689  10.240
26067W        W26932  17.283  28.743   8.645
26068W        W26933  16.285  28.463   9.968
26069W        W26934  15.770  28.818   9.237
26070W        W26935  17.575  27.989   9.656
26071W        W26936  16.625  28.061  10.793
26072W        W26937  15.230  28.014   9.132
26073W        W26938  17.576  27.773   8.777
26074W        W26939  17.217  28.839   9.528
26075W        W26940  15.195  28.568   9.398
26076W        W26941  16.216  26.620  10.608
26077W        W26942  16.667  28.786   8.119
26078W        W26943  15.975  28.041  10.757
26079W        W26944  16.101  28.279   8.134
26080W        W26945  15.322  27.019   7.393
26081W        W26946  14.661  29.105  14.292
26082W        W26947  15.037  27.998  13.815
26083W        W26948  17.742  27.728  11.585
26084W        W26949  17.872  28.813  13.612
26085W        W26950  15.790  28.804  11.138
26086W        W26951  15.873  26.956  12.121
26087W        W26952  15.388  26.804  12.285
26088W        W26953  16.379  27.619  11.719
26089W        W26954  16.054  28.711  14.074
26090W        W26955  14.703  26.272  14.037
26091W        W26956  15.465  25.552  13.839
26092W        W26957  17.159  25.940  12.726
26093W        W26958  16.808  26.811  11.296
26094W        W26959  17.378  26.245  14.387
26095W        W26960  14.744  26.037  13.512
26096W        W26961  14.843  28.656  14.533
26097W        W26962  16.365  28.046  11.265
26098W        W26963  14.797  26.829  12.958
26099W        W26964  15.690  26.720  14.195
26100W        W26965  18.149  26.579  12.694
26101W        W26966  17.913  27.622  13.553
26102W        W26967  16.221  26.955  12.580
26103W        W26968  16.767  28.294  12.949
26104W        W26969  15.267  27.728  13.181
26105W        W26970  14.626  27.256  12.752
26106W        W26971  15.662  27.228  13.944
26107W        W26972  17.933  27.011  14.198
26108W        W26973  15.549  28.455  12.643
26109W        W26974  16.670  28.144  13.777
26110W        W26975  15.890  26.784  13.002
26111W        W26976  16.182  27.568  12.645
26112W        W26977  17.179  28.341  14.493
26113W        W26978  16.258  27.661  14.503
26114W        W26979  16.239  27.377  13.981
26115W        W26980  14.648  26.768  14.503
26116W        W26981  17.480  28.303  14.102
26117W        W26982  15.061  25.885  12.100
26118W        W26983  15.588  28.143  13.099
26119W        W26984  18.051  27.926  12.389
26120W        W26985  17.464  26.326  12.956
26121W        W26986  17.749  26.279  11.051
26122W        W26987  18.214  27.080  13.357
26123W        W26988  16.181  28.787  13.110
26124W        W26989  17.955  28.253  11.548
26125W        W26990  15.084  29.039  11.302
26126W        W26991  15.477  29.085  11.978
26127W        W26992  15.274  25.839  13.404
26128W        W26993  17.897  26.857  13.679
26129W        W26994  17.302  27.279  12.138
26130W        W26995  17.268  26.967  11.165
26131W        W26996  16.476  28.111  13.305
26132W        W26997  16.282  26.441  12.504
26133W        W26998  16.882  28.528  13.498
26134W        W26999  17.753  27.319  11.920
26135W        W27000  16.655  25.977  11.936
26136W        W27001  15.312  28.671  11.619
26137W        W27002  14.683  26.170  12.218
26138W        W27003  17.469  26.777  12.692
26139W        W27004  14.927  28.394  12.607
26140W        W27005  16.268  28.744  11.477
26141W        W27006  17.660  26.770  10.941
26142W        W27007  14.683  28.528  13.105
26143W        W27008  15.474  28.100  13.585
26144W        W27009  15.847  27.460  12.204
26145W        W27010  15.869  25.865  13.297
26146W        W27011  18.098  25.627  12.594
26147W        W27012  15.317  27.499  11.062
26148W        W27013  14.972  26.532  11.241
26149W        W27014  15.034  28.488  12.035
26150W        W27015  16.165  27.971  12.283
26151W        W27016  17.497  28.830  13.997
26152W        W27017  16.423  26.472  11.681
26153W        W27018  17.806  28.870  12.453
26154W        W27019  17.483  26.723  14.051
26155W        W27020  18.196  28.379  12.185
26156W        W27021  16.823  27.671  13.669
26157W        W27022  14.589  27.222  11.875
26158W        W27023  15.700  27.637  13.448
26159W        W27024  16.904  26.901  11.826
26160W        W27025  16.781  27.391  11.930
26161W        W27026  15.124  26.811  13.404
26162W        W27027  15.109  26.687  14.326
26163W        W27028  14.999  25.604  12.485
26164W        W27029  16.767  25.951  13.046
26165W        W27030  16.415  26.136  14.209
26166W        W27031  16.770  26.285  11.387
26167W        W27032  17.953  28.678  14.141
26168W        W27033  16.920  25.759  14.180
26169W        W27034  17.939  28.060  14.302
26170W        W27035  17.369  26.227  13.898
26171W        W27036  17.169  26.165  12.168
26172W        W27037  17.562  27.299  14.572
26173W        W27038  15.302  28.875  12.558
26174W        W27039  15.960  26.592  11.544
26175W        W27040  15.529  25.876  14.208
26176W        W27041  17.581  26.360  11.889
26177W        W27042  17.948  26.842  11.834
26178W        W27043  15.691  29.059  14.305
26179W        W27044  15.617  25.595  11.540
26180W        W27045  17.938  26.129  12.575
26181W        W27046  18.088  28.378  11.020
26182W        W27047  14.995  27.581  12.722
26183W        W27048  16.912  26.168  10.952
26184W        W27049  18.046  28.500  12.672
26185W        W27050  18.085  25.694  13.422
26186W        W27051  16.530  26.906  13.976
26187W        W27052  16.623  28.245  11.679
26188W        W27053  17.023  27.539  14.419
26189W        W27054  16.697  25.516  12.728
26190W        W27055  15.309  26.419  12.791
26191W        W27056  14.863  27.619  13.565
26192W        W27057  16.722  28.812  12.271
26193W        W27058  17.916  26.409  13.143
26194W        W27059  16.553  28.756  13.910
26195W        W27060  17.896  27.815  11.115
26196W        W27061  16.331  27.298  12.176
26197W        W27062  18.183  25.809  13.917
26198W        W27063  16.332  27.644  13.511
26199W        W27064  16.549  26.530  12.956
26200W        W27065  17.401  26.828  11.794
26201W        W27066  17.688  26.561  11.436
26202W        W27067  17.497  28.601  11.825
26203W        W27068  17.331  28.204  12.621
26204W        W27069  17.227  27.283  11.599
26205W        W27070  16.660  27.493  12.585
26206W        W27071  17.541  27.281  12.652
26207W        W27072  14.916  26.296  13.076
26208W        W27073  17.694  27.348  13.903
26209W        W27074  18.045  28.966  13.049
26210W        W27075  15.975  28.410  12.451
26211W        W27076  16.982  28.943  13.775
26212W        W27077  16.976  26.273  13.539
26213W        W27078  16.183  28.981  13.600
26214W        W27079  17.880  25.935  12.066
26215W        W27080  17.671  27.254  13.367
26216W        W27081  14.654  26.575  13.405
26217W        W27082  17.514  26.370  12.423
26218W        W27083  17.925  26.521  14.200
26219W        W27084  16.810  28.220  12.418
26220W        W27085  16.066  28.811  12.031
26221W        W27086  15.181  25.991  11.289
26222W        W27087  16.285  25.645  13.099
26223W        W27088  15.313  28.765  10.947
26224W        W27089  15.687  27.231  11.698
26225W        W27090  16.341  27.860  14.011
26226W        W27091  16.171  26.218  12.001
26227W        W27092  17.527  25.815  12.429
26228W        W27093  17.247  29.097  12.757
26229W        W27094  16.659  28.745  13.097
26230W        W27095  16.055  27.782  13.058
26231W        W27096  17.825  28.505  13.184
26232W        W27097  15.519  26.008  11.953
26233W        W27098  16.041  28.305  12.913
26234W        W27099  15.524  26.236  10.978
26235W        W27100  16.325  26.845  13.372
26236W        W27101  17.173  25.711  13.242
26237W        W27102  14.593  27.554  13.127
26238W        W27103  16.297  27.372  11.285
26239W        W27104  15.565  25.687  11.055
26240W        W27105  16.303  26.768  12.106
26241W        W27106  17.273  25.744  13.805
26242W        W27107  15.861  27.756  13.914
26243W        W27108  16.665  27.538  14.131
26244W        W27109  17.282  27.568  14.024
26245W        W27110  16.566  25.708  14.529
26246W        W27111  15.788  26.324  12.922
26247W        W27112  15.214  26.280  12.320
26248W        W27113  15.000  28.992  11.996
26249W        W27114  16.332  28.322  14.121
26250W        W27115  15.367  27.807  11.480
26251W        W27116  17.047  27.192  12.701
26252W        W27117  17.327  26.991  13.100
26253W        W27118  16.532  27.665  13.034
26254W        W27119  17.002  28.039  11.166
26255W        W27120  16.674  26.060  12.494
26256W        W27121  18.153  26.338  11.762
26257W        W27122  14.647  28.927  13.793
26258W        W27123  15.064  28.153  13.325
26259W        W27124  14.631  28.999  11.557
26260W        W27125  16.530  26.269  13.363
26261W        W27126  15.893  28.292  11.212
26262W        W27127  17.798  28.674  11.398
26263W        W27128  16.773  27.327  11.412
26264W        W27129  15.616  26.518  11.929
26265W        W27130  16.448  26.428  10.981
26266W        W27131  17.032  27.993  14.159
26267W        W27132  17.385  25.899  11.776
26268W        W27133  14.715  25.747  11.224
26269W        W27134  16.001  28.066  13.514
26270W        W27135  15.800  27.982  12.606
26271W        W27136  15.542  27.934  11.004
26272W        W27137  14.783  28.175  11.772
26273W        W27138  15.287  27.245  14.214
26274W        W27139  15.991  25.805  14.400
26275W        W27140  16.700  25.947  13.756
26276W        W27141  15.895  25.715  12.037
26277W        W27142  16.954  25.792  11.542
26278W        W27143  14.899  25.724  13.119
26279W        W27144  14.947  26.687  12.489
26280W        W27145  17.636  25.795  12.895
26281W        W27146  15.058  26.293  11.709
26282W        W27147  17.629  25.981  13.325
26283W        W27148  18.025  27.184  11.010
26284W        W27149  15.317  25.942  12.829
26285W        W27150  16.431  26.514  13.769
26286W        W27151  14.579  26.204  11.247
26287W        W27152  15.365  27.593  13.808
26288W        W27153  16.723  26.991  12.987
26289W        W27154  16.590  29.070  11.283
26290W        W27155  14.736  27.577  10.980
26291W        W27156  15.471  27.988  14.106
26292W        W27157  14.992  27.155  13.737
26293W        W27158  15.983  27.260  13.531
26294W        W27159  17.751  25.619  13.793
26295W        W27160  18.149  27.229  13.784
26296W        W27161  18.137  27.429  11.470
26297W        W27162  17.000  27.761  11.569
26298W        W27163  17.474  29.061  11.264
26299W        W27164  16.651  27.051  14.406
26300W        W27165  14.981  28.018  14.446
26301W        W27166  18.187  25.940  14.398
26302W        W27167  17.905  26.868  13.019
26303W        W27168  16.213  28.998  14.496
26304W        W27169  16.068  25.627  11.223
26305W        W27170  17.607  28.226  11.166
26306W        W27171  15.376  26.319  14.052
26307W        W27172  15.810  28.313  13.914
26308W        W27173  17.936  26.304  13.712
26309W        W27174  17.147  28.963  11.680
26310W        W27175  17.386  27.582  13.047
26311W        W27176  15.636  25.998  13.714
26312W        W27177  16.105  27.067  14.471
26313W        W27178  15.608  28.246  11.665
26314W        W27179  17.363  27.744  11.929
26315W        W27180  15.131  26.370  13.653
26316W        W27181  16.460  28.432  12.117
26317W        W27182  18.210  26.992  12.298
26318W        W27183  16.432  25.625  14.017
26319W        W27184  17.212  28.330  13.096
26320W        W27185  17.515  28.674  12.804
26321W        W27186  16.734  28.476  11.232
26322W        W27187  14.744  28.368  14.074
26323W        W27188  15.487  26.360  13.312
26324W        W27189  15.457  25.708  12.422
26325W        W27190  17.078  26.550  13.114
26326W        W27191  15.876  27.721  11.314
26327W        W27192  17.874  27.663  12.813
26328W        W27193  15.201  28.421  14.236
26329W        W27194  17.588  29.103  12.033
26330W        W27195  15.687  26.123  12.478
26331W        W27196  15.456  27.616  12.568
26332W        W27197  15.769  29.027  13.318
26333W        W27198  17.836  29.123  14.350
26334W        W27199  16.995  27.311  13.283
26335W        W27200  14.844  27.109  11.198
26336W        W27201  17.978  28.767  11.895
26337W        W27202  17.815  26.091  11.514
26338W        W27203  15.954  25.610  13.917
26339W        W27204  17.660  28.412  12.375
26340W        W27205  17.689  26.968  12.280
26341W        W27206  15.806  26.641  12.496
26342W        W27207  16.051  26.903  13.820
26343W        W27208  17.162  28.056  13.683
26344W        W27209  15.812  26.510  13.795
26345W        W27210  15.791  28.976  12.411
26346W        W27211  15.108  28.935  14.045
26347W        W27212  15.220  28.296  11.175
26348W        W27213  17.737  28.054  11.985
26349W        W27214  15.341  26.846  13.871
26350W        W27215  18.114  26.776  11.352
26351W        W27216  15.859  27.833  11.823
26352W        W27217  16.958  27.215  13.904
26353W        W27218  16.849  26.843  13.448
26354W        W27219  15.409  27.215  13.477
26355W        W27220  17.619  29.103  13.306
26356W        W27221  17.410  25.737  14.300
26357W        W27222  15.074  25.887  13.887
26358W        W27223  15.413  26.910  12.940
26359W        W27224  15.782  26.724  11.062
26360W        W27225  14.585  28.483  13.607
26361W        W27226  16.170  27.192  13.050
26362W        W27227  15.993  26.217  11.155
26363W        W27228  15.128  27.033  11.936
26364W        W27229  14.899  28.885  13.373
26365W        W27230  17.694  27.111  11.481
26366W        W27231  17.789  26.027  14.167
26367W        W27232  17.225  28.236  12.130
26368W        W27233  14.823  27.160  14.307
26369W        W27234  17.789  25.624  11.603
26370W        W27235  17.309  28.099  11.614
26371W        W27236  16.211  27.157  11.699
26372W        W27237  17.398  25.961  11.222
26373W        W27238  17.463  26.568  13.408
26374W        W27239  15.172  27.161  12.615
26375W        W27240  15.466  28.100  12.264
26376W        W27241  17.229  26.720  12.229
26377W        W27242  16.252  26.099  12.925
26378W        W27243  18.214  28.010  13.436
26379W        W27244  18.132  25.997  12.997
26380W        W27245  14.671  28.827  12.373
26381W        W27246  15.180  28.014  11.909
26382W        W27247  15.095  25.631  14.462
26383W        W27248  16.214  28.484  14.564
26384W        W27249  17.969  27.452  12.354
26385W        W27250  17.323  27.629  11.234
26386W        W27251  16.618  29.150  13.446
26387W        W27252  17.475  27.872  14.483
26388W        W27253  16.290  25.582  11.763
26389W        W27254  17.003  26.451  12.622
26390W        W27255  14.689  28.038  12.954
26391W        W27256  15.942  26.000  11.595
26392W        W27257  15.746  27.484  14.444
26393W        W27258  16.740  26.465  12.158
26394W        W27259  16.945  27.875  13.280
26395W        W27260  15.099  28.480  13.715
26396W        W27261  15.690  28.463  14.438
26397W        W27262  15.541  26.260  11.452
26398W        W27263  17.058  26.402  11.777
26399W        W27264  17.016  28.510  14.014
26400W        W27265  15.701  27.102  12.613
26401W        W27266  15.356  28.800  13.478
26402W        W27267  18.101  28.917  11.079
26403W        W27268  14.964  27.589  14.075
26404W        W27269  16.959  27.851  12.763
26405W        W27270  15.395  27.500  12.005
26406W        W27271  15.766  28.507  13.400
26407W        W27272  16.144  25.926  12.441
26408W        W27273  14.755  27.910  11.371
26409W        W27274  16.274  26.861  11.241
26410W        W27275  14.920  27.410  12.260
26411W        W27276  16.210  26.052  13.724
26412W        W27277  17.882  25.761  11.151
26413W        W27278  17.975  27.507  14.250
26414W        W27279  16.629  28.764  14.402
26415W        W27280  18.187  27.858  13.924
26416W        W27281  17.595  28.656  14.535
26417W        W27282  15.334  29.112  13.013
26418W        W27283  18.193  27.734  11.887
26419W        W27284  16.723  27.001  12.400
26420W        W27285  16.490  25.613  12.290
26421W        W27286  15.549  28.597  12.127
26422W        W27287  16.048  26.338  13.352
26423W        W27288  15.748  25.707  12.821
26424W        W27289  14.811  28.529  11.369
26425W        W27290  16.627  27.893  12.087
26426W        W27291  15.502  28.688  13.966
26427W        W27292  14.979  27.511  11.662
26428W        W27293  14.864  26.054  12.661
26429W        W27294  16.412  28.019  12.718
26430W        W27295  14.664  25.873  11.738
26431W        W27296  17.328  27.079  13.665
26432W        W27297  17.205  26.465  11.237
26433W        W27298  17.722  28.137  12.885
26434W        W27299  16.383  28.621  12.716
26435W        W27300  15.795  28.725  11.627
26436W        W27301  17.077  25.628  11.057
26437W        W27302  14.877  28.888  12.798
26438W        W27303  17.074  26.646  14.433
26439W        W27304  15.057  26.176  14.432
26440W        W27305  14.788  26.776  11.765
26441W        W27306  15.479  26.765  11.490
26442W        W27307  17.242  27.092  14.307
26443W        W27308  15.585  27.373  13.016
26444W        W27309  17.059  25.659  12.136
26445W        W27310  16.190  29.090  12.639
26446W        W27311  17.404  28.552  13.576
26447W        W27312  16.988  28.701  12.687
26448W        W27313  17.007  27.681  12.281
26449W        W27314  16.469  25.906  11.352
26450W        W27315  18.150  25.534  12.074
26451W        W27316  15.838  27.169  11.237
26452W        W27317  18.004  26.506  12.227
26453W        W27318  16.696  27.676  11.104
26454W        W27319  17.632  27.876  13.852
26455W        W27320  17.286  28.577  11.319
26456W        W27321  15.901  26.252  14.225
26457W        W27322  15.721  26.836  13.466
26458W        W27323  17.813  28.331  13.743
26459W        W27324  16.913  26.281  14.120
26460W        W27325  14.757  26.752  13.897
26461W        W27326  16.517  27.229  13.623
26462W        W27327  14.874  27.987  12.280
26463W        W27328  15.021  27.284  13.170
26464W        W27329  17.338  27.570  13.520
26465W        W27330  17.110  28.950  14.331
26466W        W27331  17.006  26.689  13.884
26467W        W27332  17.283  28.743  12.289
26468W        W27333  16.285  28.463  13.612
26469W        W27334  15.770  28.818  12.881
26470W        W27335  17.575  27.989  13.300
26471W        W27336  16.625  28.061  14.437
26472W        W27337  15.230  28.014  12.776
26473W        W27338  17.576  27.773  12.421
26474W        W27339  17.217  28.839  13.172
26475W        W27340  15.195  28.568  13.042
26476W        W27341  16.216  26.620  14.252
26477W        W27342  16.667  28.786  11.763
26478W        W27343  15.975  28.041  14.401
26479W        W27344  16.101  28.279  11.778
26480W        W27345  15.322  27.019  11.037
26481W        W27346  14.661  29.105  17.936
26482W        W27347  15.037  27.998  17.459
26483W        W27348  17.742  27.728  15.229
26484W        W27349  17.872  28.813  17.256
26485W        W27350  15.790  28.804  14.782
26486W        W27351  15.873  26.956  15.765
26487W        W27352  15.388  26.804  15.929
26488W        W27353  16.379  27.619  15.363
26489W        W27354  16.054  28.711  17.718
26490W        W27355  14.703  26.272  17.681
26491W        W27356  15.465  25.552  17.483
26492W        W27357  17.159  25.940  16.370
26493W        W27358  16.808  26.811  14.940
26494W        W27359  17.378  26.245  18.031
26495W        W27360  14.744  26.037  17.156
26496W        W27361  14.843  28.656  18.177
26497W        W27362  16.365  28.046  14.909
26498W        W27363  14.797  26.829  16.602
26499W        W27364  15.690  26.720  17.839
26500W        W27365  18.149  26.579  16.338
26501W        W27366  17.913  27.622  17.197
26502W        W27367  16.221  26.955  16.224
26503W        W27368  16.767  28.294  16.593
26504W        W27369  15.267  27.728  16.825
26505W        W27370  14.626  27.256  16.396
26506W        W27371  15.662  27.228  17.588
26507W        W27372  17.933  27.011  17.842
26508W        W27373  15.549  28.455  16.287
26509W        W27374  16.670  28.144  17.421
26510W        W27375  15.890  26.784  16.646
26511W        W27376  16.182  27.568  16.289
26512W        W27377  17.179  28.341  18.137
26513W        W27378  16.258  27.661  18.147
26514W        W27379  16.239  27.377  17.625
26515W        W27380  14.648  26.768  18.147
26516W        W27381  17.480  28.303  17.746
26517W        W27382  15.061  25.885  15.744
26518W        W27383  15.588  28.143  16.743
26519W        W27384  18.051  27.926  16.033
26520W        W27385  17.464  26.326  16.600
26521W        W27386  17.749  26.279  14.695
26522W        W27387  18.214  27.080  17.001
26523W        W27388  16.181  28.787  16.754
26524W        W27389  17.955  28.253  15.192
26525W        W27390  15.084  29.039  14.946
26526W        W27391  15.477  29.085  15.622
26527W        W27392  15.274  25.839  17.048
26528W        W27393  17.897  26.857  17.323
26529W        W27394  17.302  27.279  15.782
26530W        W27395  17.268  26.967  14.809
26531W        W27396  16.476  28.111  16.949
26532W        W27397  16.282  26.441  16.148
26533W        W27398  16.882  28.528  17.142
26534W        W27399  17.753  27.319  15.564
26535W        W27400  16.655  25.977  15.580
26536W        W27401  15.312  28.671  15.263
26537W        W27402  14.683  26.170  15.862
26538W        W27403  17.469  26.777  16.336
26539W        W27404  14.927  28.394  16.251
26540W        W27405  16.268  28.744  15.121
26541W        W27406  17.660  26.770  14.585
26542W        W27407  14.683  28.528  16.749
26543W        W27408  15.474  28.100  17.229
26544W        W27409  15.847  27.460  15.848
26545W        W27410  15.869  25.865  16.941
26546W        W27411  18.098  25.627  16.238
26547W        W27412  15.317  27.499  14.706
26548W        W27413  14.972  26.532  14.885
26549W        W27414  15.034  28.488  15.679
26550W        W27415  16.165  27.971  15.927
26551W        W27416  17.497  28.830  17.641
26552W        W27417  16.423  26.472  15.325
26553W        W27418  17.806  28.870  16.097
26554W        W27419  17.483  26.723  17.695
26555W        W27420  18.196  28.379  15.829
26556W        W27421  16.823  27.671  17.313
26557W        W27422  14.589  27.222  15.519
26558W        W27423  15.700  27.637  17.092
26559W        W27424  16.904  26.901  15.470
26560W        W27425  16.781  27.391  15.574
26561W        W27426  15.124  26.811  17.048
26562W        W27427  15.109  26.687  17.970
26563W        W27428  14.999  25.604  16.129
26564W        W27429  16.767  25.951  16.690
26565W        W27430  16.415  26.136  17.853
26566W        W27431  16.770  26.285  15.031
26567W        W27432  17.953  28.678  17.785
26568W        W27433  16.920  25.759  17.824
26569W        W27434  17.939  28.060  17.946
26570W        W27435  17.369  26.227  17.542
26571W        W27436  17.169  26.165  15.812
26572W        W27437  17.562  27.299  18.216
26573W        W27438  15.302  28.875  16.202
26574W        W27439  15.960  26.592  15.188
26575W        W27440  15.529  25.876  17.852
26576W        W27441  17.581  26.360  15.533
26577W        W27442  17.948  26.842  15.478
26578W        W27443  15.691  29.059  17.949
26579W        W27444  15.617  25.595  15.184
26580W        W27445  17.938  26.129  16.219
26581W        W27446  18.088  28.378  14.664
26582W        W27447  14.995  27.581  16.366
26583W        W27448  16.912  26.168  14.596
26584W        W27449  18.046  28.500  16.316
26585W        W27450  18.085  25.694  17.066
26586W        W27451  16.530  26.906  17.620
26587W        W27452  16.623  28.245  15.323
26588W        W27453  17.023  27.539  18.063
26589W        W27454  16.697  25.516  16.372
26590W        W27455  15.309  26.419  16.435
26591W        W27456  14.863  27.619  17.209
26592W        W27457  16.722  28.812  15.915
26593W        W27458  17.916  26.409  16.787
26594W        W27459  16.553  28.756  17.554
26595W        W27460  17.896  27.815  14.759
26596W        W27461  16.331  27.298  15.820
26597W        W27462  18.183  25.809  17.561
26598W        W27463  16.332  27.644  17.155
26599W        W27464  16.549  26.530  16.600
26600W        W27465  17.401  26.828  15.438
26601W        W27466  17.688  26.561  15.080
26602W        W27467  17.497  28.601  15.469
26603W        W27468  17.331  28.204  16.265
26604W        W27469  17.227  27.283  15.243
26605W        W27470  16.660  27.493  16.229
26606W        W27471  17.541  27.281  16.296
26607W        W27472  14.916  26.296  16.720
26608W        W27473  17.694  27.348  17.547
26609W        W27474  18.045  28.966  16.693
26610W        W27475  15.975  28.410  16.095
26611W        W27476  16.982  28.943  17.419
26612W        W27477  16.976  26.273  17.183
26613W        W27478  16.183  28.981  17.244
26614W        W27479  17.880  25.935  15.710
26615W        W27480  17.671  27.254  17.011
26616W        W27481  14.654  26.575  17.049
26617W        W27482  17.514  26.370  16.067
26618W        W27483  17.925  26.521  17.844
26619W        W27484  16.810  28.220  16.062
26620W        W27485  16.066  28.811  15.675
26621W        W27486  15.181  25.991  14.933
26622W        W27487  16.285  25.645  16.743
26623W        W27488  15.313  28.765  14.591
26624W        W27489  15.687  27.231  15.342
26625W        W27490  16.341  27.860  17.655
26626W        W27491  16.171  26.218  15.645
26627W        W27492  17.527  25.815  16.073
26628W        W27493  17.247  29.097  16.401
26629W        W27494  16.659  28.745  16.741
26630W        W27495  16.055  27.782  16.702
26631W        W27496  17.825  28.505  16.828
26632W        W27497  15.519  26.008  15.597
26633W        W27498  16.041  28.305  16.557
26634W        W27499  15.524  26.236  14.622
26635W        W27500  16.325  26.845  17.016
26636W        W27501  17.173  25.711  16.886
26637W        W27502  14.593  27.554  16.771
26638W        W27503  16.297  27.372  14.929
26639W        W27504  15.565  25.687  14.699
26640W        W27505  16.303  26.768  15.750
26641W        W27506  17.273  25.744  17.449
26642W        W27507  15.861  27.756  17.558
26643W        W27508  16.665  27.538  17.775
26644W        W27509  17.282  27.568  17.668
26645W        W27510  16.566  25.708  18.173
26646W        W27511  15.788  26.324  16.566
26647W        W27512  15.214  26.280  15.964
26648W        W27513  15.000  28.992  15.640
26649W        W27514  16.332  28.322  17.765
26650W        W27515  15.367  27.807  15.124
26651W        W27516  17.047  27.192  16.345
26652W        W27517  17.327  26.991  16.744
26653W        W27518  16.532  27.665  16.678
26654W        W27519  17.002  28.039  14.810
26655W        W27520  16.674  26.060  16.138
26656W        W27521  18.153  26.338  15.406
26657W        W27522  14.647  28.927  17.437
26658W        W27523  15.064  28.153  16.969
26659W        W27524  14.631  28.999  15.201
26660W        W27525  16.530  26.269  17.007
26661W        W27526  15.893  28.292  14.856
26662W        W27527  17.798  28.674  15.042
26663W        W27528  16.773  27.327  15.056
26664W        W27529  15.616  26.518  15.573
26665W        W27530  16.448  26.428  14.625
26666W        W27531  17.032  27.993  17.803
26667W        W27532  17.385  25.899  15.420
26668W        W27533  14.715  25.747  14.868
26669W        W27534  16.001  28.066  17.158
26670W        W27535  15.800  27.982  16.250
26671W        W27536  15.542  27.934  14.648
26672W        W27537  14.783  28.175  15.416
26673W        W27538  15.287  27.245  17.858
26674W        W27539  15.991  25.805  18.044
26675W        W27540  16.700  25.947  17.400
26676W        W27541  15.895  25.715  15.681
26677W        W27542  16.954  25.792  15.186
26678W        W27543  14.899  25.724  16.763
26679W        W27544  14.947  26.687  16.133
26680W        W27545  17.636  25.795  16.539
26681W        W27546  15.058  26.293  15.353
26682W        W27547  17.629  25.981  16.969
26683W        W27548  18.025  27.184  14.654
26684W        W27549  15.317  25.942  16.473
26685W        W27550  16.431  26.514  17.413
26686W        W27551  14.579  26.204  14.891
26687W        W27552  15.365  27.593  17.452
26688W        W27553  16.723  26.991  16.631
26689W        W27554  16.590  29.070  14.927
26690W        W27555  14.736  27.577  14.624
26691W        W27556  15.471  27.988  17.750
26692W        W27557  14.992  27.155  17.381
26693W        W27558  15.983  27.260  17.175
26694W        W27559  17.751  25.619  17.437
26695W        W27560  18.149  27.229  17.428
26696W        W27561  18.137  27.429  15.114
26697W        W27562  17.000  27.761  15.213
26698W        W27563  17.474  29.061  14.908
26699W        W27564  16.651  27.051  18.050
26700W        W27565  14.981  28.018  18.090
26701W        W27566  18.187  25.940  18.042
26702W        W27567  17.905  26.868  16.663
26703W        W27568  16.213  28.998  18.140
26704W        W27569  16.068  25.627  14.867
26705W        W27570  17.607  28.226  14.810
26706W        W27571  15.376  26.319  17.696
26707W        W27572  15.810  28.313  17.558
26708W        W27573  17.936  26.304  17.356
26709W        W27574  17.147  28.963  15.324
26710W        W27575  17.386  27.582  16.691
26711W        W27576  15.636  25.998  17.358
26712W        W27577  16.105  27.067  18.115
26713W        W27578  15.608  28.246  15.309
26714W        W27579  17.363  27.744  15.573
26715W        W27580  15.131  26.370  17.297
26716W        W27581  16.460  28.432  15.761
26717W        W27582  18.210  26.992  15.942
26718W        W27583  16.432  25.625  17.661
26719W        W27584  17.212  28.330  16.740
26720W        W27585  17.515  28.674  16.448
26721W        W27586  16.734  28.476  14.876
26722W        W27587  14.744  28.368  17.718
26723W        W27588  15.487  26.360  16.956
26724W        W27589  15.457  25.708  16.066
26725W        W27590  17.078  26.550  16.758
26726W        W27591  15.876  27.721  14.958
26727W        W27592  17.874  27.663  16.457
26728W        W27593  15.201  28.421  17.880
26729W        W27594  17.588  29.103  15.677
26730W        W27595  15.687  26.123  16.122
26731W        W27596  15.456  27.616  16.212
26732W        W27597  15.769  29.027  16.962
26733W        W27598  17.836  29.123  17.994
26734W        W27599  16.995  27.311  16.927
26735W        W27600  14.844  27.109  14.842
26736W        W27601  17.978  28.767  15.539
26737W        W27602  17.815  26.091  15.158
26738W        W27603  15.954  25.610  17.561
26739W        W27604  17.660  28.412  16.019
26740W        W27605  17.689  26.968  15.924
26741W        W27606  15.806  26.641  16.140
26742W        W27607  16.051  26.903  17.464
26743W        W27608  17.162  28.056  17.327
26744W        W27609  15.812  26.510  17.439
26745W        W27610  15.791  28.976  16.055
26746W        W27611  15.108  28.935  17.689
26747W        W27612  15.220  28.296  14.819
26748W        W27613  17.737  28.054  15.629
26749W        W27614  15.341  26.846  17.515
26750W        W27615  18.114  26.776  14.996
26751W        W27616  15.859  27.833  15.467
26752W        W27617  16.958  27.215  17.548
26753W        W27618  16.849  26.843  17.092
26754W        W27619  15.409  27.215  17.121
26755W        W27620  17.619  29.103  16.950
26756W        W27621  17.410  25.737  17.944
26757W        W27622  15.074  25.887  17.531
26758W        W27623  15.413  26.910  16.584
26759W        W27624  15.782  26.724  14.706
26760W        W27625  14.585  28.483  17.251
26761W        W27626  16.170  27.192  16.694
26762W        W27627  15.993  26.217  14.799
26763W        W27628  15.128  27.033  15.580
26764W        W27629  14.899  28.885  17.017
26765W        W27630  17.694  27.111  15.125
26766W        W27631  17.789  26.027  17.811
26767W        W27632  17.225  28.236  15.774
26768W        W27633  14.823  27.160  17.951
26769W        W27634  17.789  25.624  15.247
26770W        W27635  17.309  28.099  15.258
26771W        W27636  16.211  27.157  15.343
26772W        W27637  17.398  25.961  14.866
26773W        W27638  17.463  26.568  17.052
26774W        W27639  15.172  27.161  16.259
26775W        W27640  15.466  28.100  15.908
26776W        W27641  17.229  26.720  15.873
26777W        W27642  16.252  26.099  16.569
26778W        W27643  18.214  28.010  17.080
26779W        W27644  18.132  25.997  16.641
26780W        W27645  14.671  28.827  16.017
26781W        W27646  15.180  28.014  15.553
26782W        W27647  15.095  25.631  18.106
26783W        W27648  16.214  28.484  18.208
26784W        W27649  17.969  27.452  15.998
26785W        W27650  17.323  27.629  14.878
26786W        W27651  16.618  29.150  17.090
26787W        W27652  17.475  27.872  18.127
26788W        W27653  16.290  25.582  15.407
26789W        W27654  17.003  26.451  16.266
26790W        W27655  14.689  28.038  16.598
26791W        W27656  15.942  26.000  15.239
26792W        W27657  15.746  27.484  18.088
26793W        W27658  16.740  26.465  15.802
26794W        W27659  16.945  27.875  16.924
26795W        W27660  15.099  28.480  17.359
26796W        W27661  15.690  28.463  18.082
26797W        W27662  15.541  26.260  15.096
26798W        W27663  17.058  26.402  15.421
26799W        W27664  17.016  28.510  17.658
26800W        W27665  15.701  27.102  16.257
26801W        W27666  15.356  28.800  17.122
26802W        W27667  18.101  28.917  14.723
26803W        W27668  14.964  27.589  17.719
26804W        W27669  16.959  27.851  16.407
26805W        W27670  15.395  27.500  15.649
26806W        W27671  15.766  28.507  17.044
26807W        W27672  16.144  25.926  16.085
26808W        W27673  14.755  27.910  15.015
26809W        W27674  16.274  26.861  14.885
26810W        W27675  14.920  27.410  15.904
26811W        W27676  16.210  26.052  17.368
26812W        W27677  17.882  25.761  14.795
26813W        W27678  17.975  27.507  17.894
26814W        W27679  16.629  28.764  18.046
26815W        W27680  18.187  27.858  17.568
26816W        W27681  17.595  28.656  18.179
26817W        W27682  15.334  29.112  16.657
26818W        W27683  18.193  27.734  15.531
26819W        W27684  16.723  27.001  16.044
26820W        W27685  16.490  25.613  15.934
26821W        W27686  15.549  28.597  15.771
26822W        W27687  16.048  26.338  16.996
26823W        W27688  15.748  25.707  16.465
26824W        W27689  14.811  28.529  15.013
26825W        W27690  16.627  27.893  15.731
26826W        W27691  15.502  28.688  17.610
26827W        W27692  14.979  27.511  15.306
26828W        W27693  14.864  26.054  16.305
26829W        W27694  16.412  28.019  16.362
26830W        W27695  14.664  25.873  15.382
26831W        W27696  17.328  27.079  17.309
26832W        W27697  17.205  26.465  14.881
26833W        W27698  17.722  28.137  16.529
26834W        W27699  16.383  28.621  16.360
26835W        W27700  15.795  28.725  15.271
26836W        W27701  17.077  25.628  14.701
26837W        W27702  14.877  28.888  16.442
26838W        W27703  17.074  26.646  18.077
26839W        W27704  15.057  26.176  18.076
26840W        W27705  14.788  26.776  15.409
26841W        W27706  15.479  26.765  15.134
26842W        W27707  17.242  27.092  17.951
26843W        W27708  15.585  27.373  16.660
26844W        W27709  17.059  25.659  15.780
26845W        W27710  16.190  29.090  16.283
26846W        W27711  17.404  28.552  17.220
26847W        W27712  16.988  28.701  16.331
26848W        W27713  17.007  27.681  15.925
26849W        W27714  16.469  25.906  14.996
26850W        W27715  18.150  25.534  15.718
26851W        W27716  15.838  27.169  14.881
26852W        W27717  18.004  26.506  15.871
26853W        W27718  16.696  27.676  14.748
26854W        W27719  17.632  27.876  17.496
26855W        W27720  17.286  28.577  14.963
26856W        W27721  15.901  26.252  17.869
26857W        W27722  15.721  26.836  17.110
26858W        W27723  17.813  28.331  17.387
26859W        W27724  16.913  26.281  17.764
26860W        W27725  14.757  26.752  17.541
26861W        W27726  16.517  27.229  17.267
26862W        W27727  14.874  27.987  15.924
26863W        W27728  15.021  27.284  16.814
26864W        W27729  17.338  27.570  17.164
26865W        W27730  17.110  28.950  17.975
26866W        W27731  17.006  26.689  17.528
26867W        W27732  17.283  28.743  15.933
26868W        W27733  16.285  28.463  17.256
26869W        W27734  15.770  28.818  16.525
26870W        W27735  17.575  27.989  16.944
26871W        W27736  16.625  28.061  18.081
26872W        W27737  15.230  28.014  16.420
26873W        W27738  17.576  27.773  16.065
26874W        W27739  17.217  28.839  16.816
26875W        W27740  15.195  28.568  16.686
26876W        W27741  16.216  26.620  17.896
26877W        W27742  16.667  28.786  15.407
26878W        W27743  15.975  28.041  18.045
26879W        W27744  16.101  28.279  15.422
26880W        W27745  15.322  27.019  14.681
26881W        W27746  14.661  29.105  21.580
26882W        W27747  15.037  27.998  21.103
26883W        W27748  17.742  27.728  18.873
26884W        W27749  17.872  28.813  20.900
26885W        W27750  15.790  28.804  18.426
26886W        W27751  15.873  26.956  19.409
26887W        W27752  15.388  26.804  19.573
26888W        W27753  16.379  27.619  19.007
26889W        W27754  16.054  28.711  21.362
26890W        W27755  14.703  26.272  21.325
26891W        W27756  15.465  25.552  21.127
26892W        W27757  17.159  25.940  20.014
26893W        W27758  16.808  26.811  18.584
26894W        W27759  17.378  26.245  21.675
26895W        W27760  14.744  26.037  20.800
26896W        W27761  14.843  28.656  21.821
26897W        W27762  16.365  28.046  18.553
26898W        W27763  14.797  26.829  20.246
26899W        W27764  15.690  26.720  21.483
26900W        W27765  18.149  26.579  19.982
26901W        W27766  17.913  27.622  20.841
26902W        W27767  16.221  26.955  19.868
26903W        W27768  16.767  28.294  20.237
26904W        W27769  15.267  27.728  20.469
26905W        W27770  14.626  27.256  20.040
26906W        W27771  15.662  27.228  21.232
26907W        W27772  17.933  27.011  21.486
26908W        W27773  15.549  28.455  19.931
26909W        W27774  16.670  28.144  21.065
26910W        W27775  15.890  26.784  20.290
26911W        W27776  16.182  27.568  19.933
26912W        W27777  17.179  28.341  21.781
26913W        W27778  16.258  27.661  21.791
26914W        W27779  16.239  27.377  21.269
26915W        W27780  14.648  26.768  21.791
26916W        W27781  17.480  28.303  21.390
26917W        W27782  15.061  25.885  19.388
26918W        W27783  15.588  28.143  20.387
26919W        W27784  18.051  27.926  19.677
26920W        W27785  17.464  26.326  20.244
26921W        W27786  17.749  26.279  18.339
26922W        W27787  18.214  27.080  20.645
26923W        W27788  16.181  28.787  20.398
26924W        W27789  17.955  28.253  18.836
26925W        W27790  15.084  29.039  18.590
26926W        W27791  15.477  29.085  19.266
26927W        W27792  15.274  25.839  20.692
26928W        W27793  17.897  26.857  20.967
26929W        W27794  17.302  27.279  19.426
26930W        W27795  17.268  26.967  18.453
26931W        W27796  16.476  28.111  20.593
26932W        W27797  16.282  26.441  19.792
26933W        W27798  16.882  28.528  20.786
26934W        W27799  17.753  27.319  19.208
26935W        W27800  16.655  25.977  19.224
26936W        W27801  15.312  28.671  18.907
26937W        W27802  14.683  26.170  19.506
26938W        W27803  17.469  26.777  19.980
26939W        W27804  14.927  28.394  19.895
26940W        W27805  16.268  28.744  18.765
26941W        W27806  17.660  26.770  18.229
26942W        W27807  14.683  28.528  20.393
26943W        W27808  15.474  28.100  20.873
26944W        W27809  15.847  27.460  19.492
26945W        W27810  15.869  25.865  20.585
26946W        W27811  18.098  25.627  19.882
26947W        W27812  15.317  27.499  18.350
26948W        W27813  14.972  26.532  18.529
26949W        W27814  15.034  28.488  19.323
26950W        W27815  16.165  27.971  19.571
26951W        W27816  17.497  28.830  21.285
26952W        W27817  16.423  26.472  18.969
26953W        W27818  17.806  28.870  19.741
26954W        W27819  17.483  26.723  21.339
26955W        W27820  18.196  28.379  19.473
26956W        W27821  16.823  27.671  20.957
26957W        W27822  14.589  27.222  19.163
26958W        W27823  15.700  27.637  20.736
26959W        W27824  16.904  26.901  19.114
26960W        W27825  16.781  27.391  19.218
26961W        W27826  15.124  26.811  20.692
26962W        W27827  15.109  26.687  21.614
26963W        W27828  14.999  25.604  19.773
26964W        W27829  16.767  25.951  20.334
26965W        W27830  16.415  26.136  21.497
26966W        W27831  16.770  26.285  18.675
26967W        W27832  17.953  28.678  21.429
26968W        W27833  16.920  25.759  21.468
26969W        W27834  17.939  28.060  21.590
26970W        W27835  17.369  26.227  21.186
26971W        W27836  17.169  26.165  19.456
26972W        W27837  17.562  27.299  21.860
26973W        W27838  15.302  28.875  19.846
26974W        W27839  15.960  26.592  18.832
26975W        W27840  15.529  25.876  21.496
26976W        W27841  17.581  26.360  19.177
26977W        W27842  17.948  26.842  19.122
26978W        W27843  15.691  29.059  21.593
26979W        W27844  15.617  25.595  18.828
26980W        W27845  17.938  26.129  19.863
26981W        W27846  18.088  28.378  18.308
26982W        W27847  14.995  27.581  20.010
26983W        W27848  16.912  26.168  18.240
26984W        W27849  18.046  28.500  19.960
26985W        W27850  18.085  25.694  20.710
26986W        W27851  16.530  26.906  21.264
26987W        W27852  16.623  28.245  18.967
26988W        W27853  17.023  27.539  21.707
26989W        W27854  16.697  25.516  20.016
26990W        W27855  15.309  26.419  20.079
26991W        W27856  14.863  27.619  20.853
26992W        W27857  16.722  28.812  19.559
26993W        W27858  17.916  26.409  20.431
26994W        W27859  16.553  28.756  21.198
26995W        W27860  17.896  27.815  18.403
26996W        W27861  16.331  27.298  19.464
26997W        W27862  18.183  25.809  21.205
26998W        W27863  16.332  27.644  20.799
26999W        W27864  16.549  26.530  20.244
27000W        W27865  17.401  26.828  19.082
27001W        W27866  17.688  26.561  18.724
27002W        W27867  17.497  28.601  19.113
27003W        W27868  17.331  28.204  19.909
27004W        W27869  17.227  27.283  18.887
27005W        W27870  16.660  27.493  19.873
27006W        W27871  17.541  27.281  19.940
27007W        W27872  14.916  26.296  20.364
27008W        W27873  17.694  27.348  21.191
27009W        W27874  18.045  28.966  20.337
27010W        W27875  15.975  28.410  19.739
27011W        W27876  16.982  28.943  21.063
27012W        W27877  16.976  26.273  20.827
27013W        W27878  16.183  28.981  20.888
27014W        W27879  17.880  25.935  19.354
27015W        W27880  17.671  27.254  20.655
27016W        W27881  14.654  26.575  20.693
27017W        W27882  17.514  26.370  19.711
27018W        W27883  17.925  26.521  21.488
27019W        W27884  16.810  28.220  19.706
27020W        W27885  16.066  28.811  19.319
27021W        W27886  15.181  25.991  18.577
27022W        W27887  16.285  25.645  20.387
27023W        W27888  15.313  28.765  18.235
27024W        W27889  15.687  27.231  18.986
27025W        W27890  16.341  27.860  21.299
27026W        W27891  16.171  26.218  19.289
27027W        W27892  17.527  25.815  19.717
27028W        W27893  17.247  29.097  20.045
27029W        W27894  16.659  28.745  20.385
27030W        W27895  16.055  27.782  20.346
27031W        W27896  17.825  28.505  20.472
27032W        W27897  15.519  26.008  19.241
27033W        W27898  16.041  28.305  20.201
27034W        W27899  15.524  26.236  18.266
27035W        W27900  16.325  26.845  20.660
27036W        W27901  17.173  25.711  20.530
27037W        W27902  14.593  27.554  20.415
27038W        W27903  16.297  27.372  18.573
27039W        W27904  15.565  25.687  18.343
27040W        W27905  16.303  26.768  19.394
27041W        W27906  17.273  25.744  21.093
27042W        W27907  15.861  27.756  21.202
27043W        W27908  16.665  27.538  21.419
27044W        W27909  17.282  27.568  21.312
27045W        W27910  16.566  25.708  21.817
27046W        W27911  15.788  26.324  20.210
27047W        W27912  15.214  26.280  19.608
27048W        W27913  15.000  28.992  19.284
27049W        W27914  16.332  28.322  21.409
27050W        W27915  15.367  27.807  18.768
27051W        W27916  17.047  27.192  19.989
27052W        W27917  17.327  26.991  20.388
27053W        W27918  16.532  27.665  20.322
27054W        W27919  17.002  28.039  18.454
27055W        W27920  16.674  26.060  19.782
27056W        W27921  18.153  26.338  19.050
27057W        W27922  14.647  28.927  21.081
27058W        W27923  15.064  28.153  20.613
27059W        W27924  14.631  28.999  18.845
27060W        W27925  16.530  26.269  20.651
27061W        W27926  15.893  28.292  18.500
27062W        W27927  17.798  28.674  18.686
27063W        W27928  16.773  27.327  18.700
27064W        W27929  15.616  26.518  19.217
27065W        W27930  16.448  26.428  18.269
27066W        W27931  17.032  27.993  21.447
27067W        W27932  17.385  25.899  19.064
27068W        W27933  14.715  25.747  18.512
27069W        W27934  16.001  28.066  20.802
27070W        W27935  15.800  27.982  19.894
27071W        W27936  15.542  27.934  18.292
27072W        W27937  14.783  28.175  19.060
27073W        W27938  15.287  27.245  21.502
27074W        W27939  15.991  25.805  21.688
27075W        W27940  16.700  25.947  21.044
27076W        W27941  15.895  25.715  19.325
27077W        W27942  16.954  25.792  18.830
27078W        W27943  14.899  25.724  20.407
27079W        W27944  14.947  26.687  19.777
27080W        W27945  17.636  25.795  20.183
27081W        W27946  15.058  26.293  18.997
27082W        W27947  17.629  25.981  20.613
27083W        W27948  18.025  27.184  18.298
27084W        W27949  15.317  25.942  20.117
27085W        W27950  16.431  26.514  21.057
27086W        W27951  14.579  26.204  18.535
27087W        W27952  15.365  27.593  21.096
27088W        W27953  16.723  26.991  20.275
27089W        W27954  16.590  29.070  18.571
27090W        W27955  14.736  27.577  18.268
27091W        W27956  15.471  27.988  21.394
27092W        W27957  14.992  27.155  21.025
27093W        W27958  15.983  27.260  20.819
27094W        W27959  17.751  25.619  21.081
27095W        W27960  18.149  27.229  21.072
27096W        W27961  18.137  27.429  18.758
27097W        W27962  17.000  27.761  18.857
27098W        W27963  17.474  29.061  18.552
27099W        W27964  16.651  27.051  21.694
27100W        W27965  14.981  28.018  21.734
27101W        W27966  18.187  25.940  21.686
27102W        W27967  17.905  26.868  20.307
27103W        W27968  16.213  28.998  21.784
27104W        W27969  16.068  25.627  18.511
27105W        W27970  17.607  28.226  18.454
27106W        W27971  15.376  26.319  21.340
27107W        W27972  15.810  28.313  21.202
27108W        W27973  17.936  26.304  21.000
27109W        W27974  17.147  28.963  18.968
27110W        W27975  17.386  27.582  20.335
27111W        W27976  15.636  25.998  21.002
27112W        W27977  16.105  27.067  21.759
27113W        W27978  15.608  28.246  18.953
27114W        W27979  17.363  27.744  19.217
27115W        W27980  15.131  26.370  20.941
27116W        W27981  16.460  28.432  19.405
27117W        W27982  18.210  26.992  19.586
27118W        W27983  16.432  25.625  21.305
27119W        W27984  17.212  28.330  20.384
27120W        W27985  17.515  28.674  20.092
27121W        W27986  16.734  28.476  18.520
27122W        W27987  14.744  28.368  21.362
27123W        W27988  15.487  26.360  20.600
27124W        W27989  15.457  25.708  19.710
27125W        W27990  17.078  26.550  20.402
27126W        W27991  15.876  27.721  18.602
27127W        W27992  17.874  27.663  20.101
27128W        W27993  15.201  28.421  21.524
27129W        W27994  17.588  29.103  19.321
27130W        W27995  15.687  26.123  19.766
27131W        W27996  15.456  27.616  19.856
27132W        W27997  15.769  29.027  20.606
27133W        W27998  17.836  29.123  21.638
27134W        W27999  16.995  27.311  20.571
27135W        W28000  14.844  27.109  18.486
27136W        W28001  17.978  28.767  19.183
27137W        W28002  17.815  26.091  18.802
27138W        W28003  15.954  25.610  21.205
27139W        W28004  17.660  28.412  19.663
27140W        W28005  17.689  26.968  19.568
27141W        W28006  15.806  26.641  19.784
27142W        W28007  16.051  26.903  21.108
27143W        W28008  17.162  28.056  20.971
27144W        W28009  15.812  26.510  21.083
27145W        W28010  15.791  28.976  19.699
27146W        W28011  15.108  28.935  21.333
27147W        W28012  15.220  28.296  18.463
27148W        W28013  17.737  28.054  19.273
27149W        W28014  15.341  26.846  21.159
27150W        W28015  18.114  26.776  18.640
27151W        W28016  15.859  27.833  19.111
27152W        W28017  16.958  27.215  21.192
27153W        W28018  16.849  26.843  20.736
27154W        W28019  15.409  27.215  20.765
27155W        W28020  17.619  29.103  20.594
27156W        W28021  17.410  25.737  21.588
27157W        W28022  15.074  25.887  21.175
27158W        W28023  15.413  26.910  20.228
27159W        W28024  15.782  26.724  18.350
27160W        W28025  14.585  28.483  20.895
27161W        W28026  16.170  27.192  20.338
27162W        W28027  15.993  26.217  18.443
27163W        W28028  15.128  27.033  19.224
27164W        W28029  14.899  28.885  20.661
27165W        W28030  17.694  27.111  18.769
27166W        W28031  17.789  26.027  21.455
27167W        W28032  17.225  28.236  19.418
27168W        W28033  14.823  27.160  21.595
27169W        W28034  17.789  25.624  18.891
27170W        W28035  17.309  28.099  18.902
27171W        W28036  16.211  27.157  18.987
27172W        W28037  17.398  25.961  18.510
27173W        W28038  17.463  26.568  20.696
27174W        W28039  15.172  27.161  19.903
27175W        W28040  15.466  28.100  19.552
27176W        W28041  17.229  26.720  19.517
27177W        W28042  16.252  26.099  20.213
27178W        W28043  18.214  28.010  20.724
27179W        W28044  18.132  25.997  20.285
27180W        W28045  14.671  28.827  19.661
27181W        W28046  15.180  28.014  19.197
27182W        W28047  15.095  25.631  21.750
27183W        W28048  16.214  28.484  21.852
27184W        W28049  17.969  27.452  19.642
27185W        W28050  17.323  27.629  18.522
27186W        W28051  16.618  29.150  20.734
27187W        W28052  17.475  27.872  21.771
27188W        W28053  16.290  25.582  19.051
27189W        W28054  17.003  26.451  19.910
27190W        W28055  14.689  28.038  20.242
27191W        W28056  15.942  26.000  18.883
27192W        W28057  15.746  27.484  21.732
27193W        W28058  16.740  26.465  19.446
27194W        W28059  16.945  27.875  20.568
27195W        W28060  15.099  28.480  21.003
27196W        W28061  15.690  28.463  21.726
27197W        W28062  15.541  26.260  18.740
27198W        W28063  17.058  26.402  19.065
27199W        W28064  17.016  28.510  21.302
27200W        W28065  15.701  27.102  19.901
27201W        W28066  15.356  28.800  20.766
27202W        W28067  18.101  28.917  18.367
27203W        W28068  14.964  27.589  21.363
27204W        W28069  16.959  27.851  20.051
27205W        W28070  15.395  27.500  19.293
27206W        W28071  15.766  28.507  20.688
27207W        W28072  16.144  25.926  19.729
27208W        W28073  14.755  27.910  18.659
27209W        W28074  16.274  26.861  18.529
27210W        W28075  14.920  27.410  19.548
27211W        W28076  16.210  26.052  21.012
27212W        W28077  17.882  25.761  18.439
27213W        W28078  17.975  27.507  21.538
27214W        W28079  16.629  28.764  21.690
27215W        W28080  18.187  27.858  21.212
27216W        W28081  17.595  28.656  21.823
27217W        W28082  15.334  29.112  20.301
27218W        W28083  18.193  27.734  19.175
27219W        W28084  16.723  27.001  19.688
27220W        W28085  16.490  25.613  19.578
27221W        W28086  15.549  28.597  19.415
27222W        W28087  16.048  26.338  20.640
27223W        W28088  15.748  25.707  20.109
27224W        W28089  14.811  28.529  18.657
27225W        W28090  16.627  27.893  19.375
27226W        W28091  15.502  28.688  21.254
27227W        W28092  14.979  27.511  18.950
27228W        W28093  14.864  26.054  19.949
27229W        W28094  16.412  28.019  20.006
27230W        W28095  14.664  25.873  19.026
27231W        W28096  17.328  27.079  20.953
27232W        W28097  17.205  26.465  18.525
27233W        W28098  17.722  28.137  20.173
27234W        W28099  16.383  28.621  20.004
27235W        W28100  15.795  28.725  18.915
27236W        W28101  17.077  25.628  18.345
27237W        W28102  14.877  28.888  20.086
27238W        W28103  17.074  26.646  21.721
27239W        W28104  15.057  26.176  21.720
27240W        W28105  14.788  26.776  19.053
27241W        W28106  15.479  26.765  18.778
27242W        W28107  17.242  27.092  21.595
27243W        W28108  15.585  27.373  20.304
27244W        W28109  17.059  25.659  19.424
27245W        W28110  16.190  29.090  19.927
27246W        W28111  17.404  28.552  20.864
27247W        W28112  16.988  28.701  19.975
27248W        W28113  17.007  27.681  19.569
27249W        W28114  16.469  25.906  18.640
27250W        W28115  18.150  25.534  19.362
27251W        W28116  15.838  27.169  18.525
27252W        W28117  18.004  26.506  19.515
27253W        W28118  16.696  27.676  18.392
27254W        W28119  17.632  27.876  21.140
27255W        W28120  17.286  28.577  18.607
27256W        W28121  15.901  26.252  21.513
27257W        W28122  15.721  26.836  20.754
27258W        W28123  17.813  28.331  21.031
27259W        W28124  16.913  26.281  21.408
27260W        W28125  14.757  26.752  21.185
27261W        W28126  16.517  27.229  20.911
27262W        W28127  14.874  27.987  19.568
27263W        W28128  15.021  27.284  20.458
27264W        W28129  17.338  27.570  20.808
27265W        W28130  17.110  28.950  21.619
27266W        W28131  17.006  26.689  21.172
27267W        W28132  17.283  28.743  19.577
27268W        W28133  16.285  28.463  20.900
27269W        W28134  15.770  28.818  20.169
27270W        W28135  17.575  27.989  20.588
27271W        W28136  16.625  28.061  21.725
27272W        W28137  15.230  28.014  20.064
27273W        W28138  17.576  27.773  19.709
27274W        W28139  17.217  28.839  20.460
27275W        W28140  15.195  28.568  20.330
27276W        W28141  16.216  26.620  21.540
27277W        W28142  16.667  28.786  19.051
27278W        W28143  15.975  28.041  21.689
27279W        W28144  16.101  28.279  19.066
27280W        W28145  15.322  27.019  18.325
27281W        W28146  14.661  29.105  25.225
27282W        W28147  15.037  27.998  24.748
27283W        W28148  17.742  27.728  22.518
27284W        W28149  17.872  28.813  24.545
27285W        W28150  15.790  28.804  22.071
27286W        W28151  15.873  26.956  23.054
27287W        W28152  15.388  26.804  23.218
27288W        W28153  16.379  27.619  22.652
27289W        W28154  16.054  28.711  25.007
27290W        W28155  14.703  26.272  24.970
27291W        W28156  15.465  25.552  24.772
27292W        W28157  17.159  25.940  23.659
27293W        W28158  16.808  26.811  22.229
27294W        W28159  17.378  26.245  25.320
27295W        W28160  14.744  26.037  24.445
27296W        W28161  14.843  28.656  25.466
27297W        W28162  16.365  28.046  22.198
27298W        W28163  14.797  26.829  23.891
27299W        W28164  15.690  26.720  25.128
27300W        W28165  18.149  26.579  23.627
27301W        W28166  17.913  27.622  24.486
27302W        W28167  16.221  26.955  23.513
27303W        W28168  16.767  28.294  23.882
27304W        W28169  15.267  27.728  24.114
27305W        W28170  14.626  27.256  23.685
27306W        W28171  15.662  27.228  24.877
27307W        W28172  17.933  27.011  25.131
27308W        W28173  15.549  28.455  23.576
27309W        W28174  16.670  28.144  24.710
27310W        W28175  15.890  26.784  23.935
27311W        W28176  16.182  27.568  23.578
27312W        W28177  17.179  28.341  25.426
27313W        W28178  16.258  27.661  25.436
27314W        W28179  16.239  27.377  24.914
27315W        W28180  14.648  26.768  25.436
27316W        W28181  17.480  28.303  25.035
27317W        W28182  15.061  25.885  23.033
27318W        W28183  15.588  28.143  24.032
27319W        W28184  18.051  27.926  23.322
27320W        W28185  17.464  26.326  23.889
27321W        W28186  17.749  26.279  21.984
27322W        W28187  18.214  27.080  24.290
27323W        W28188  16.181  28.787  24.043
27324W        W28189  17.955  28.253  22.481
27325W        W28190  15.084  29.039  22.235
27326W        W28191  15.477  29.085  22.911
27327W        W28192  15.274  25.839  24.337
27328W        W28193  17.897  26.857  24.612
27329W        W28194  17.302  27.279  23.071
27330W        W28195  17.268  26.967  22.098
27331W        W28196  16.476  28.111  24.238
27332W        W28197  16.282  26.441  23.437
27333W        W28198  16.882  28.528  24.431
27334W        W28199  17.753  27.319  22.853
27335W        W28200  16.655  25.977  22.869
27336W        W28201  15.312  28.671  22.552
27337W        W28202  14.683  26.170  23.151
27338W        W28203  17.469  26.777  23.625
27339W        W28204  14.927  28.394  23.540
27340W        W28205  16.268  28.744  22.410
27341W        W28206  17.660  26.770  21.874
27342W        W28207  14.683  28.528  24.038
27343W        W28208  15.474  28.100  24.518
27344W        W28209  15.847  27.460  23.137
27345W        W28210  15.869  25.865  24.230
27346W        W28211  18.098  25.627  23.527
27347W        W28212  15.317  27.499  21.995
27348W        W28213  14.972  26.532  22.174
27349W        W28214  15.034  28.488  22.968
27350W        W28215  16.165  27.971  23.216
27351W        W28216  17.497  28.830  24.930
27352W        W28217  16.423  26.472  22.614
27353W        W28218  17.806  28.870  23.386
27354W        W28219  17.483  26.723  24.984
27355W        W28220  18.196  28.379  23.118
27356W        W28221  16.823  27.671  24.602
27357W        W28222  14.589  27.222  22.808
27358W        W28223  15.700  27.637  24.381
27359W        W28224  16.904  26.901  22.759
27360W        W28225  16.781  27.391  22.863
27361W        W28226  15.124  26.811  24.337
27362W        W28227  15.109  26.687  25.259
27363W        W28228  14.999  25.604  23.418
27364W        W28229  16.767  25.951  23.979
27365W        W28230  16.415  26.136  25.142
27366W        W28231  16.770  26.285  22.320
27367W        W28232  17.953  28.678  25.074
27368W        W28233  16.920  25.759  25.113
27369W        W28234  17.939  28.060  25.235
27370W        W28235  17.369  26.227  24.831
27371W        W28236  17.169  26.165  23.101
27372W        W28237  17.562  27.299  25.505
27373W        W28238  15.302  28.875  23.491
27374W        W28239  15.960  26.592  22.477
27375W        W28240  15.529  25.876  25.141
27376W        W28241  17.581  26.360  22.822
27377W        W28242  17.948  26.842  22.767
27378W        W28243  15.691  29.059  25.238
27379W        W28244  15.617  25.595  22.473
27380W        W28245  17.938  26.129  23.508
27381W        W28246  18.088  28.378  21.953
27382W        W28247  14.995  27.581  23.655
27383W        W28248  16.912  26.168  21.885
27384W        W28249  18.046  28.500  23.605
27385W        W28250  18.085  25.694  24.355
27386W        W28251  16.530  26.906  24.909
27387W        W28252  16.623  28.245  22.612
27388W        W28253  17.023  27.539  25.352
27389W        W28254  16.697  25.516  23.661
27390W        W28255  15.309  26.419  23.724
27391W        W28256  14.863  27.619  24.498
27392W        W28257  16.722  28.812  23.204
27393W        W28258  17.916  26.409  24.076
27394W        W28259  16.553  28.756  24.843
27395W        W28260  17.896  27.815  22.048
27396W        W28261  16.331  27.298  23.109
27397W        W28262  18.183  25.809  24.850
27398W        W28263  16.332  27.644  24.444
27399W        W28264  16.549  26.530  23.889
27400W        W28265  17.401  26.828  22.727
27401W        W28266  17.688  26.561  22.369
27402W        W28267  17.497  28.601  22.758
27403W        W28268  17.331  28.204  23.554
27404W        W28269  17.227  27.283  22.532
27405W        W28270  16.660  27.493  23.518
27406W        W28271  17.541  27.281  23.585
27407W        W28272  14.916  26.296  24.009
27408W        W28273  17.694  27.348  24.836
27409W        W28274  18.045  28.966  23.982
27410W        W28275  15.975  28.410  23.384
27411W        W28276  16.982  28.943  24.708
27412W        W28277  16.976  26.273  24.472
27413W        W28278  16.183  28.981  24.533
27414W        W28279  17.880  25.935  22.999
27415W        W28280  17.671  27.254  24.300
27416W        W28281  14.654  26.575  24.338
27417W        W28282  17.514  26.370  23.356
27418W        W28283  17.925  26.521  25.133
27419W        W28284  16.810  28.220  23.351
27420W        W28285  16.066  28.811  22.964
27421W        W28286  15.181  25.991  22.222
27422W        W28287  16.285  25.645  24.032
27423W        W28288  15.313  28.765  21.880
27424W        W28289  15.687  27.231  22.631
27425W        W28290  16.341  27.860  24.944
27426W        W28291  16.171  26.218  22.934
27427W        W28292  17.527  25.815  23.362
27428W        W28293  17.247  29.097  23.690
27429W        W28294  16.659  28.745  24.030
27430W        W28295  16.055  27.782  23.991
27431W        W28296  17.825  28.505  24.117
27432W        W28297  15.519  26.008  22.886
27433W        W28298  16.041  28.305  23.846
27434W        W28299  15.524  26.236  21.911
27435W        W28300  16.325  26.845  24.305
27436W        W28301  17.173  25.711  24.175
27437W        W28302  14.593  27.554  24.060
27438W        W28303  16.297  27.372  22.218
27439W        W28304  15.565  25.687  21.988
27440W        W28305  16.303  26.768  23.039
27441W        W28306  17.273  25.744  24.738
27442W        W28307  15.861  27.756  24.847
27443W        W28308  16.665  27.538  25.064
27444W        W28309  17.282  27.568  24.957
27445W        W28310  16.566  25.708  25.462
27446W        W28311  15.788  26.324  23.855
27447W        W28312  15.214  26.280  23.253
27448W        W28313  15.000  28.992  22.929
27449W        W28314  16.332  28.322  25.054
27450W        W28315  15.367  27.807  22.413
27451W        W28316  17.047  27.192  23.634
27452W        W28317  17.327  26.991  24.033
27453W        W28318  16.532  27.665  23.967
27454W        W28319  17.002  28.039  22.099
27455W        W28320  16.674  26.060  23.427
27456W        W28321  18.153  26.338  22.695
27457W        W28322  14.647  28.927  24.726
27458W        W28323  15.064  28.153  24.258
27459W        W28324  14.631  28.999  22.490
27460W        W28325  16.530  26.269  24.296
27461W        W28326  15.893  28.292  22.145
27462W        W28327  17.798  28.674  22.331
27463W        W28328  16.773  27.327  22.345
27464W        W28329  15.616  26.518  22.862
27465W        W28330  16.448  26.428  21.914
27466W        W28331  17.032  27.993  25.092
27467W        W28332  17.385  25.899  22.709
27468W        W28333  14.715  25.747  22.157
27469W        W28334  16.001  28.066  24.447
27470W        W28335  15.800  27.982  23.539
27471W        W28336  15.542  27.934  21.937
27472W        W28337  14.783  28.175  22.705
27473W        W28338  15.287  27.245  25.147
27474W        W28339  15.991  25.805  25.333
27475W        W28340  16.700  25.947  24.689
27476W        W28341  15.895  25.715  22.970
27477W        W28342  16.954  25.792  22.475
27478W        W28343  14.899  25.724  24.052
27479W        W28344  14.947  26.687  23.422
27480W        W28345  17.636  25.795  23.828
27481W        W28346  15.058  26.293  22.642
27482W        W28347  17.629  25.981  24.258
27483W        W28348  18.025  27.184  21.943
27484W        W28349  15.317  25.942  23.762
27485W        W28350  16.431  26.514  24.702
27486W        W28351  14.579  26.204  22.180
27487W        W28352  15.365  27.593  24.741
27488W        W28353  16.723  26.991  23.920
27489W        W28354  16.590  29.070  22.216
27490W        W28355  14.736  27.577  21.913
27491W        W28356  15.471  27.988  25.039
27492W        W28357  14.992  27.155  24.670
27493W        W28358  15.983  27.260  24.464
27494W        W28359  17.751  25.619  24.726
27495W        W28360  18.149  27.229  24.717
27496W        W28361  18.137  27.429  22.403
27497W        W28362  17.000  27.761  22.502
27498W        W28363  17.474  29.061  22.197
27499W        W28364  16.651  27.051  25.339
27500W        W28365  14.981  28.018  25.379
27501W        W28366  18.187  25.940  25.331
27502W        W28367  17.905  26.868  23.952
27503W        W28368  16.213  28.998  25.429
27504W        W28369  16.068  25.627  22.156
27505W        W28370  17.607  28.226  22.099
27506W        W28371  15.376  26.319  24.985
27507W        W28372  15.810  28.313  24.847
27508W        W28373  17.936  26.304  24.645
27509W        W28374  17.147  28.963  22.613
27510W        W28375  17.386  27.582  23.980
27511W        W28376  15.636  25.998  24.647
27512W        W28377  16.105  27.067  25.404
27513W        W28378  15.608  28.246  22.598
27514W        W28379  17.363  27.744  22.862
27515W        W28380  15.131  26.370  24.586
27516W        W28381  16.460  28.432  23.050
27517W        W28382  18.210  26.992  23.231
27518W        W28383  16.432  25.625  24.950
27519W        W28384  17.212  28.330  24.029
27520W        W28385  17.515  28.674  23.737
27521W        W28386  16.734  28.476  22.165
27522W        W28387  14.744  28.368  25.007
27523W        W28388  15.487  26.360  24.245
27524W        W28389  15.457  25.708  23.355
27525W        W28390  17.078  26.550  24.047
27526W        W28391  15.876  27.721  22.247
27527W        W28392  17.874  27.663  23.746
27528W        W28393  15.201  28.421  25.169
27529W        W28394  17.588  29.103  22.966
27530W        W28395  15.687  26.123  23.411
27531W        W28396  15.456  27.616  23.501
27532W        W28397  15.769  29.027  24.251
27533W        W28398  17.836  29.123  25.283
27534W        W28399  16.995  27.311  24.216
27535W        W28400  14.844  27.109  22.131
27536W        W28401  17.978  28.767  22.828
27537W        W28402  17.815  26.091  22.447
27538W        W28403  15.954  25.610  24.850
27539W        W28404  17.660  28.412  23.308
27540W        W28405  17.689  26.968  23.213
27541W        W28406  15.806  26.641  23.429
27542W        W28407  16.051  26.903  24.753
27543W        W28408  17.162  28.056  24.616
27544W        W28409  15.812  26.510  24.728
27545W        W28410  15.791  28.976  23.344
27546W        W28411  15.108  28.935  24.978
27547W        W28412  15.220  28.296  22.108
27548W        W28413  17.737  28.054  22.918
27549W        W28414  15.341  26.846  24.804
27550W        W28415  18.114  26.776  22.285
27551W        W28416  15.859  27.833  22.756
27552W        W28417  16.958  27.215  24.837
27553W        W28418  16.849  26.843  24.381
27554W        W28419  15.409  27.215  24.410
27555W        W28420  17.619  29.103  24.239
27556W        W28421  17.410  25.737  25.233
27557W        W28422  15.074  25.887  24.820
27558W        W28423  15.413  26.910  23.873
27559W        W28424  15.782  26.724  21.995
27560W        W28425  14.585  28.483  24.540
27561W        W28426  16.170  27.192  23.983
27562W        W28427  15.993  26.217  22.088
27563W        W28428  15.128  27.033  22.869
27564W        W28429  14.899  28.885  24.306
27565W        W28430  17.694  27.111  22.414
27566W        W28431  17.789  26.027  25.100
27567W        W28432  17.225  28.236  23.063
27568W        W28433  14.823  27.160  25.240
27569W        W28434  17.789  25.624  22.536
27570W        W28435  17.309  28.099  22.547
27571W        W28436  16.211  27.157  22.632
27572W        W28437  17.398  25.961  22.155
27573W        W28438  17.463  26.568  24.341
27574W        W28439  15.172  27.161  23.548
27575W        W28440  15.466  28.100  23.197
27576W        W28441  17.229  26.720  23.162
27577W        W28442  16.252  26.099  23.858
27578W        W28443  18.214  28.010  24.369
27579W        W28444  18.132  25.997  23.930
27580W        W28445  14.671  28.827  23.306
27581W        W28446  15.180  28.014  22.842
27582W        W28447  15.095  25.631  25.395
27583W        W28448  16.214  28.484  25.497
27584W        W28449  17.969  27.452  23.287
27585W        W28450  17.323  27.629  22.167
27586W        W28451  16.618  29.150  24.379
27587W        W28452  17.475  27.872  25.416
27588W        W28453  16.290  25.582  22.696
27589W        W28454  17.003  26.451  23.555
27590W        W28455  14.689  28.038  23.887
27591W        W28456  15.942  26.000  22.528
27592W        W28457  15.746  27.484  25.377
27593W        W28458  16.740  26.465  23.091
27594W        W28459  16.945  27.875  24.213
27595W        W28460  15.099  28.480  24.648
27596W        W28461  15.690  28.463  25.371
27597W        W28462  15.541  26.260  22.385
27598W        W28463  17.058  26.402  22.710
27599W        W28464  17.016  28.510  24.947
27600W        W28465  15.701  27.102  23.546
27601W        W28466  15.356  28.800  24.411
27602W        W28467  18.101  28.917  22.012
27603W        W28468  14.964  27.589  25.008
27604W        W28469  16.959  27.851  23.696
27605W        W28470  15.395  27.500  22.938
27606W        W28471  15.766  28.507  24.333
27607W        W28472  16.144  25.926  23.374
27608W        W28473  14.755  27.910  22.304
27609W        W28474  16.274  26.861  22.174
27610W        W28475  14.920  27.410  23.193
27611W        W28476  16.210  26.052  24.657
27612W        W28477  17.882  25.761  22.084
27613W        W28478  17.975  27.507  25.183
27614W        W28479  16.629  28.764  25.335
27615W        W28480  18.187  27.858  24.857
27616W        W28481  17.595  28.656  25.468
27617W        W28482  15.334  29.112  23.946
27618W        W28483  18.193  27.734  22.820
27619W        W28484  16.723  27.001  23.333
27620W        W28485  16.490  25.613  23.223
27621W        W28486  15.549  28.597  23.060
27622W        W28487  16.048  26.338  24.285
27623W        W28488  15.748  25.707  23.754
27624W        W28489  14.811  28.529  22.302
27625W        W28490  16.627  27.893  23.020
27626W        W28491  15.502  28.688  24.899
27627W        W28492  14.979  27.511  22.595
27628W        W28493  14.864  26.054  23.594
27629W        W28494  16.412  28.019  23.651
27630W        W28495  14.664  25.873  22.671
27631W        W28496  17.328  27.079  24.598
27632W        W28497  17.205  26.465  22.170
27633W        W28498  17.722  28.137  23.818
27634W        W28499  16.383  28.621  23.649
27635W        W28500  15.795  28.725  22.560
27636W        W28501  17.077  25.628  21.990
27637W        W28502  14.877  28.888  23.731
27638W        W28503  17.074  26.646  25.366
27639W        W28504  15.057  26.176  25.365
27640W        W28505  14.788  26.776  22.698
27641W        W28506  15.479  26.765  22.423
27642W        W28507  17.242  27.092  25.240
27643W        W28508  15.585  27.373  23.949
27644W        W28509  17.059  25.659  23.069
27645W        W28510  16.190  29.090  23.572
27646W        W28511  17.404  28.552  24.509
27647W        W28512  16.988  28.701  23.620
27648W        W28513  17.007  27.681  23.214
27649W        W28514  16.469  25.906  22.285
27650W        W28515  18.150  25.534  23.007
27651W        W28516  15.838  27.169  22.170
27652W        W28517  18.004  26.506  23.160
27653W        W28518  16.696  27.676  22.037
27654W        W28519  17.632  27.876  24.785
27655W        W28520  17.286  28.577  22.252
27656W        W28521  15.901  26.252  25.158
27657W        W28522  15.721  26.836  24.399
27658W        W28523  17.813  28.331  24.676
27659W        W28524  16.913  26.281  25.053
27660W        W28525  14.757  26.752  24.830
27661W        W28526  16.517  27.229  24.556
27662W        W28527  14.874  27.987  23.213
27663W        W28528  15.021  27.284  24.103
27664W        W28529  17.338  27.570  24.453
27665W        W28530  17.110  28.950  25.264
27666W        W28531  17.006  26.689  24.817
27667W        W28532  17.283  28.743  23.222
27668W        W28533  16.285  28.463  24.545
27669W        W28534  15.770  28.818  23.814
27670W        W28535  17.575  27.989  24.233
27671W        W28536  16.625  28.061  25.370
27672W        W28537  15.230  28.014  23.709
27673W        W28538  17.576  27.773  23.354
27674W        W28539  17.217  28.839  24.105
27675W        W28540  15.195  28.568  23.975
27676W        W28541  16.216  26.620  25.185
27677W        W28542  16.667  28.786  22.696
27678W        W28543  15.975  28.041  25.334
27679W        W28544  16.101  28.279  22.711
27680W        W28545  15.322  27.019  21.970
27681W        W28546  14.661  29.105  28.869
27682W        W28547  15.037  27.998  28.392
27683W        W28548  17.742  27.728  26.162
27684W        W28549  17.872  28.813  28.189
27685W        W28550  15.790  28.804  25.715
27686W        W28551  15.873  26.956  26.698
27687W        W28552  15.388  26.804  26.862
27688W        W28553  16.379  27.619  26.296
27689W        W28554  16.054  28.711  28.651
27690W        W28555  14.703  26.272  28.614
27691W        W28556  15.465  25.552  28.416
27692W        W28557  17.159  25.940  27.303
27693W        W28558  16.808  26.811  25.873
27694W        W28559  17.378  26.245  28.964
27695W        W28560  14.744  26.037  28.089
27696W        W28561  14.843  28.656  29.110
27697W        W28562  16.365  28.046  25.842
27698W        W28563  14.797  26.829  27.535
27699W        W28564  15.690  26.720  28.772
27700W        W28565  18.149  26.579  27.271
27701W        W28566  17.913  27.622  28.130
27702W        W28567  16.221  26.955  27.157
27703W        W28568  16.767  28.294  27.526
27704W        W28569  15.267  27.728  27.758
27705W        W28570  14.626  27.256  27.329
27706W        W28571  15.662  27.228  28.521
27707W        W28572  17.933  27.011  28.775
27708W        W28573  15.549  28.455  27.220
27709W        W28574  16.670  28.144  28.354
27710W        W28575  15.890  26.784  27.579
27711W        W28576  16.182  27.568  27.222
27712W        W28577  17.179  28.341  29.070
27713W        W28578  16.258  27.661  29.080
27714W        W28579  16.239  27.377  28.558
27715W        W28580  14.648  26.768  29.080
27716W        W28581  17.480  28.303  28.679
27717W        W28582  15.061  25.885  26.677
27718W        W28583  15.588  28.143  27.676
27719W        W28584  18.051  27.926  26.966
27720W        W28585  17.464  26.326  27.533
27721W        W28586  17.749  26.279  25.628
27722W        W28587  18.214  27.080  27.934
27723W        W28588  16.181  28.787  27.687
27724W        W28589  17.955  28.253  26.125
27725W        W28590  15.084  29.039  25.879
27726W        W28591  15.477  29.085  26.555
27727W        W28592  15.274  25.839  27.981
27728W        W28593  17.897  26.857  28.256
27729W        W28594  17.302  27.279  26.715
27730W        W28595  17.268  26.967  25.742
27731W        W28596  16.476  28.111  27.882
27732W        W28597  16.282  26.441  27.081
27733W        W28598  16.882  28.528  28.075
27734W        W28599  17.753  27.319  26.497
27735W        W28600  16.655  25.977  26.513
27736W        W28601  15.312  28.671  26.196
27737W        W28602  14.683  26.170  26.795
27738W        W28603  17.469  26.777  27.269
27739W        W28604  14.927  28.394  27.184
27740W        W28605  16.268  28.744  26.054
27741W        W28606  17.660  26.770  25.518
27742W        W28607  14.683  28.528  27.682
27743W        W28608  15.474  28.100  28.162
27744W        W28609  15.847  27.460  26.781
27745W        W28610  15.869  25.865  27.874
27746W        W28611  18.098  25.627  27.171
27747W        W28612  15.317  27.499  25.639
27748W        W28613  14.972  26.532  25.818
27749W        W28614  15.034  28.488  26.612
27750W        W28615  16.165  27.971  26.860
27751W        W28616  17.497  28.830  28.574
27752W        W28617  16.423  26.472  26.258
27753W        W28618  17.806  28.870  27.030
27754W        W28619  17.483  26.723  28.628
27755W        W28620  18.196  28.379  26.762
27756W        W28621  16.823  27.671  28.246
27757W        W28622  14.589  27.222  26.452
27758W        W28623  15.700  27.637  28.025
27759W        W28624  16.904  26.901  26.403
27760W        W28625  16.781  27.391  26.507
27761W        W28626  15.124  26.811  27.981
27762W        W28627  15.109  26.687  28.903
27763W        W28628  14.999  25.604  27.062
27764W        W28629  16.767  25.951  27.623
27765W        W28630  16.415  26.136  28.786
27766W        W28631  16.770  26.285  25.964
27767W        W28632  17.953  28.678  28.718
27768W        W28633  16.920  25.759  28.757
27769W        W28634  17.939  28.060  28.879
27770W        W28635  17.369  26.227  28.475
27771W        W28636  17.169  26.165  26.745
27772W        W28637  17.562  27.299  29.149
27773W        W28638  15.302  28.875  27.135
27774W        W28639  15.960  26.592  26.121
27775W        W28640  15.529  25.876  28.785
27776W        W28641  17.581  26.360  26.466
27777W        W28642  17.948  26.842  26.411
27778W        W28643  15.691  29.059  28.882
27779W        W28644  15.617  25.595  26.117
27780W        W28645  17.938  26.129  27.152
27781W        W28646  18.088  28.378  25.597
27782W        W28647  14.995  27.581  27.299
27783W        W28648  16.912  26.168  25.529
27784W        W28649  18.046  28.500  27.249
27785W        W28650  18.085  25.694  27.999
27786W        W28651  16.530  26.906  28.553
27787W        W28652  16.623  28.245  26.256
27788W        W28653  17.023  27.539  28.996
27789W        W28654  16.697  25.516  27.305
27790W        W28655  15.309  26.419  27.368
27791W        W28656  14.863  27.619  28.142
27792W        W28657  16.722  28.812  26.848
27793W        W28658  17.916  26.409  27.720
27794W        W28659  16.553  28.756  28.487
27795W        W28660  17.896  27.815  25.692
27796W        W28661  16.331  27.298  26.753
27797W        W28662  18.183  25.809  28.494
27798W        W28663  16.332  27.644  28.088
27799W        W28664  16.549  26.530  27.533
27800W        W28665  17.401  26.828  26.371
27801W        W28666  17.688  26.561  26.013
27802W        W28667  17.497  28.601  26.402
27803W        W28668  17.331  28.204  27.198
27804W        W28669  17.227  27.283  26.176
27805W        W28670  16.660  27.493  27.162
27806W        W28671  17.541  27.281  27.229
27807W        W28672  14.916  26.296  27.653
27808W        W28673  17.694  27.348  28.480
27809W        W28674  18.045  28.966  27.626
27810W        W28675  15.975  28.410  27.028
27811W        W28676  16.982  28.943  28.352
27812W        W28677  16.976  26.273  28.116
27813W        W28678  16.183  28.981  28.177
27814W        W28679  17.880  25.935  26.643
27815W        W28680  17.671  27.254  27.944
27816W        W28681  14.654  26.575  27.982
27817W        W28682  17.514  26.370  27.000
27818W        W28683  17.925  26.521  28.777
27819W        W28684  16.810  28.220  26.995
27820W        W28685  16.066  28.811  26.608
27821W        W28686  15.181  25.991  25.866
27822W        W28687  16.285  25.645  27.676
27823W        W28688  15.313  28.765  25.524
27824W        W28689  15.687  27.231  26.275
27825W        W28690  16.341  27.860  28.588
27826W        W28691  16.171  26.218  26.578
27827W        W28692  17.527  25.815  27.006
27828W        W28693  17.247  29.097  27.334
27829W        W28694  16.659  28.745  27.674
27830W        W28695  16.055  27.782  27.635
27831W        W28696  17.825  28.505  27.761
27832W        W28697  15.519  26.008  26.530
27833W        W28698  16.041  28.305  27.490
27834W        W28699  15.524  26.236  25.555
27835W        W28700  16.325  26.845  27.949
27836W        W28701  17.173  25.711  27.819
27837W        W28702  14.593  27.554  27.704
27838W        W28703  16.297  27.372  25.862
27839W        W28704  15.565  25.687  25.632
27840W        W28705  16.303  26.768  26.683
27841W        W28706  17.273  25.744  28.382
27842W        W28707  15.861  27.756  28.491
27843W        W28708  16.665  27.538  28.708
27844W        W28709  17.282  27.568  28.601
27845W        W28710  16.566  25.708  29.106
27846W        W28711  15.788  26.324  27.499
27847W        W28712  15.214  26.280  26.897
27848W        W28713  15.000  28.992  26.573
27849W        W28714  16.332  28.322  28.698
27850W        W28715  15.367  27.807  26.057
27851W        W28716  17.047  27.192  27.278
27852W        W28717  17.327  26.991  27.677
27853W        W28718  16.532  27.665  27.611
27854W        W28719  17.002  28.039  25.743
27855W        W28720  16.674  26.060  27.071
27856W        W28721  18.153  26.338  26.339
27857W        W28722  14.647  28.927  28.370
27858W        W28723  15.064  28.153  27.902
27859W        W28724  14.631  28.999  26.134
27860W        W28725  16.530  26.269  27.940
27861W        W28726  15.893  28.292  25.789
27862W        W28727  17.798  28.674  25.975
27863W        W28728  16.773  27.327  25.989
27864W        W28729  15.616  26.518  26.506
27865W        W28730  16.448  26.428  25.558
27866W        W28731  17.032  27.993  28.736
27867W        W28732  17.385  25.899  26.353
27868W        W28733  14.715  25.747  25.801
27869W        W28734  16.001  28.066  28.091
27870W        W28735  15.800  27.982  27.183
27871W        W28736  15.542  27.934  25.581
27872W        W28737  14.783  28.175  26.349
27873W        W28738  15.287  27.245  28.791
27874W        W28739  15.991  25.805  28.977
27875W        W28740  16.700  25.947  28.333
27876W        W28741  15.895  25.715  26.614
27877W        W28742  16.954  25.792  26.119
27878W        W28743  14.899  25.724  27.696
27879W        W28744  14.947  26.687  27.066
27880W        W28745  17.636  25.795  27.472
27881W        W28746  15.058  26.293  26.286
27882W        W28747  17.629  25.981  27.902
27883W        W28748  18.025  27.184  25.587
27884W        W28749  15.317  25.942  27.406
27885W        W28750  16.431  26.514  28.346
27886W        W28751  14.579  26.204  25.824
27887W        W28752  15.365  27.593  28.385
27888W        W28753  16.723  26.991  27.564
27889W        W28754  16.590  29.070  25.860
27890W        W28755  14.736  27.577  25.557
27891W        W28756  15.471  27.988  28.683
27892W        W28757  14.992  27.155  28.314
27893W        W28758  15.983  27.260  28.108
27894W        W28759  17.751  25.619  28.370
27895W        W28760  18.149  27.229  28.361
27896W        W28761  18.137  27.429  26.047
27897W        W28762  17.000  27.761  26.146
27898W        W28763  17.474  29.061  25.841
27899W        W28764  16.651  27.051  28.983
27900W        W28765  14.981  28.018  29.023
27901W        W28766  18.187  25.940  28.975
27902W        W28767  17.905  26.868  27.596
27903W        W28768  16.213  28.998  29.073
27904W        W28769  16.068  25.627  25.800
27905W        W28770  17.607  28.226  25.743
27906W        W28771  15.376  26.319  28.629
27907W        W28772  15.810  28.313  28.491
27908W        W28773  17.936  26.304  28.289
27909W        W28774  17.147  28.963  26.257
27910W        W28775  17.386  27.582  27.624
27911W        W28776  15.636  25.998  28.291
27912W        W28777  16.105  27.067  29.048
27913W        W28778  15.608  28.246  26.242
27914W        W28779  17.363  27.744  26.506
27915W        W28780  15.131  26.370  28.230
27916W        W28781  16.460  28.432  26.694
27917W        W28782  18.210  26.992  26.875
27918W        W28783  16.432  25.625  28.594
27919W        W28784  17.212  28.330  27.673
27920W        W28785  17.515  28.674  27.381
27921W        W28786  16.734  28.476  25.809
27922W        W28787  14.744  28.368  28.651
27923W        W28788  15.487  26.360  27.889
27924W        W28789  15.457  25.708  26.999
27925W        W28790  17.078  26.550  27.691
27926W        W28791  15.876  27.721  25.891
27927W        W28792  17.874  27.663  27.390
27928W        W28793  15.201  28.421  28.813
27929W        W28794  17.588  29.103  26.610
27930W        W28795  15.687  26.123  27.055
27931W        W28796  15.456  27.616  27.145
27932W        W28797  15.769  29.027  27.895
27933W        W28798  17.836  29.123  28.927
27934W        W28799  16.995  27.311  27.860
27935W        W28800  14.844  27.109  25.775
27936W        W28801  17.978  28.767  26.472
27937W        W28802  17.815  26.091  26.091
27938W        W28803  15.954  25.610  28.494
27939W        W28804  17.660  28.412  26.952
27940W        W28805  17.689  26.968  26.857
27941W        W28806  15.806  26.641  27.073
27942W        W28807  16.051  26.903  28.397
27943W        W28808  17.162  28.056  28.260
27944W        W28809  15.812  26.510  28.372
27945W        W28810  15.791  28.976  26.988
27946W        W28811  15.108  28.935  28.622
27947W        W28812  15.220  28.296  25.752
27948W        W28813  17.737  28.054  26.562
27949W        W28814  15.341  26.846  28.448
27950W        W28815  18.114  26.776  25.929
27951W        W28816  15.859  27.833  26.400
27952W        W28817  16.958  27.215  28.481
27953W        W28818  16.849  26.843  28.025
27954W        W28819  15.409  27.215  28.054
27955W        W28820  17.619  29.103  27.883
27956W        W28821  17.410  25.737  28.877
27957W        W28822  15.074  25.887  28.464
27958W        W28823  15.413  26.910  27.517
27959W        W28824  15.782  26.724  25.639
27960W        W28825  14.585  28.483  28.184
27961W        W28826  16.170  27.192  27.627
27962W        W28827  15.993  26.217  25.732
27963W        W28828  15.128  27.033  26.513
27964W        W28829  14.899  28.885  27.950
27965W        W28830  17.694  27.111  26.058
27966W        W28831  17.789  26.027  28.744
27967W        W28832  17.225  28.236  26.707
27968W        W28833  14.823  27.160  28.884
27969W        W28834  17.789  25.624  26.180
27970W        W28835  17.309  28.099  26.191
27971W        W28836  16.211  27.157  26.276
27972W        W28837  17.398  25.961  25.799
27973W        W28838  17.463  26.568  27.985
27974W        W28839  15.172  27.161  27.192
27975W        W28840  15.466  28.100  26.841
27976W        W28841  17.229  26.720  26.806
27977W        W28842  16.252  26.099  27.502
27978W        W28843  18.214  28.010  28.013
27979W        W28844  18.132  25.997  27.574
27980W        W28845  14.671  28.827  26.950
27981W        W28846  15.180  28.014  26.486
27982W        W28847  15.095  25.631  29.039
27983W        W28848  16.214  28.484  29.141
27984W        W28849  17.969  27.452  26.931
27985W        W28850  17.323  27.629  25.811
27986W        W28851  16.618  29.150  28.023
27987W        W28852  17.475  27.872  29.060
27988W        W28853  16.290  25.582  26.340
27989W        W28854  17.003  26.451  27.199
27990W        W28855  14.689  28.038  27.531
27991W        W28856  15.942  26.000  26.172
27992W        W28857  15.746  27.484  29.021
27993W        W28858  16.740  26.465  26.735
27994W        W28859  16.945  27.875  27.857
27995W        W28860  15.099  28.480  28.292
27996W        W28861  15.690  28.463  29.015
27997W        W28862  15.541  26.260  26.029
27998W        W28863  17.058  26.402  26.354
27999W        W28864  17.016  28.510  28.591
28000W        W28865  15.701  27.102  27.190
28001W        W28866  15.356  28.800  28.055
28002W        W28867  18.101  28.917  25.656
28003W        W28868  14.964  27.589  28.652
28004W        W28869  16.959  27.851  27.340
28005W        W28870  15.395  27.500  26.582
28006W        W28871  15.766  28.507  27.977
28007W        W28872  16.144  25.926  27.018
28008W        W28873  14.755  27.910  25.948
28009W        W28874  16.274  26.861  25.818
28010W        W28875  14.920  27.410  26.837
28011W        W28876  16.210  26.052  28.301
28012W        W28877  17.882  25.761  25.728
28013W        W28878  17.975  27.507  28.827
28014W        W28879  16.629  28.764  28.979
28015W        W28880  18.187  27.858  28.501
28016W        W28881  17.595  28.656  29.112
28017W        W28882  15.334  29.112  27.590
28018W        W28883  18.193  27.734  26.464
28019W        W28884  16.723  27.001  26.977
28020W        W28885  16.490  25.613  26.867
28021W        W28886  15.549  28.597  26.704
28022W        W28887  16.048  26.338  27.929
28023W        W28888  15.748  25.707  27.398
28024W        W28889  14.811  28.529  25.946
28025W        W28890  16.627  27.893  26.664
28026W        W28891  15.502  28.688  28.543
28027W        W28892  14.979  27.511  26.239
28028W        W28893  14.864  26.054  27.238
28029W        W28894  16.412  28.019  27.295
28030W        W28895  14.664  25.873  26.315
28031W        W28896  17.328  27.079  28.242
28032W        W28897  17.205  26.465  25.814
28033W        W28898  17.722  28.137  27.462
28034W        W28899  16.383  28.621  27.293
28035W        W28900  15.795  28.725  26.204
28036W        W28901  17.077  25.628  25.634
28037W        W28902  14.877  28.888  27.375
28038W        W28903  17.074  26.646  29.010
28039W        W28904  15.057  26.176  29.009
28040W        W28905  14.788  26.776  26.342
28041W        W28906  15.479  26.765  26.067
28042W        W28907  17.242  27.092  28.884
28043W        W28908  15.585  27.373  27.593
28044W        W28909  17.059  25.659  26.713
28045W        W28910  16.190  29.090  27.216
28046W        W28911  17.404  28.552  28.153
28047W        W28912  16.988  28.701  27.264
28048W        W28913  17.007  27.681  26.858
28049W        W28914  16.469  25.906  25.929
28050W        W28915  18.150  25.534  26.651
28051W        W28916  15.838  27.169  25.814
28052W        W28917  18.004  26.506  26.804
28053W        W28918  16.696  27.676  25.681
28054W        W28919  17.632  27.876  28.429
28055W        W28920  17.286  28.577  25.896
28056W        W28921  15.901  26.252  28.802
28057W        W28922  15.721  26.836  28.043
28058W        W28923  17.813  28.331  28.320
28059W        W28924  16.913  26.281  28.697
28060W        W28925  14.757  26.752  28.474
28061W        W28926  16.517  27.229  28.200
28062W        W28927  14.874  27.987  26.857
28063W        W28928  15.021  27.284  27.747
28064W        W28929  17.338  27.570  28.097
28065W        W28930  17.110  28.950  28.908
28066W        W28931  17.006  26.689  28.461
28067W        W28932  17.283  28.743  26.866
28068W        W28933  16.285  28.463  28.189
28069W        W28934  15.770  28.818  27.458
28070W        W28935  17.575  27.989  27.877
28071W        W28936  16.625  28.061  29.014
28072W        W28937  15.230  28.014  27.353
28073W        W28938  17.576  27.773  26.998
28074W        W28939  17.217  28.839  27.749
28075W        W28940  15.195  28.568  27.619
28076W        W28941  16.216  26.620  28.829
28077W        W28942  16.667  28.786  26.340
28078W        W28943  15.975  28.041  28.978
28079W        W28944  16.101  28.279  26.355
28080W        W28945  15.322  27.019  25.614
28081W        W28946  18.305   3.595   3.359
28082W        W28947  18.681   2.488   2.882
28083W        W28948  21.386   2.218   0.652
28084W        W28949  21.516   3.303   2.679
28085W        W28950  19.434   3.294   0.205
28086W        W28951  19.517   1.446   1.188
28087W        W28952  19.032   1.294   1.352
28088W        W28953  20.023   2.109   0.786
28089W        W28954  19.698   3.201   3.141
28090W        W28955  18.347   0.762   3.104
28091W        W28956  19.109   0.042   2.906
28092W        W28957  20.803   0.430   1.793
28093W        W28958  20.452   1.301   0.363
28094W        W28959  21.022   0.735   3.454
28095W        W28960  18.388   0.527   2.579
28096W        W28961  18.487   3.146   3.600
28097W        W28962  20.009   2.536   0.332
28098W        W28963  18.441   1.319   2.025
28099W        W28964  19.334   1.210   3.262
28100W        W28965  21.793   1.069   1.761
28101W        W28966  21.557   2.112   2.620
28102W        W28967  19.865   1.445   1.647
28103W        W28968  20.411   2.784   2.016
28104W        W28969  18.911   2.218   2.248
28105W        W28970  18.270   1.746   1.819
28106W        W28971  19.306   1.718   3.011
28107W        W28972  21.577   1.501   3.265
28108W        W28973  19.193   2.945   1.710
28109W        W28974  20.314   2.634   2.844
28110W        W28975  19.534   1.274   2.069
28111W        W28976  19.826   2.058   1.712
28112W        W28977  20.823   2.831   3.560
28113W        W28978  19.902   2.151   3.570
28114W        W28979  19.883   1.867   3.048
28115W        W28980  18.292   1.258   3.570
28116W        W28981  21.124   2.793   3.169
28117W        W28982  18.705   0.375   1.167
28118W        W28983  19.232   2.633   2.166
28119W        W28984  21.695   2.416   1.456
28120W        W28985  21.108   0.816   2.023
28121W        W28986  21.393   0.769   0.118
28122W        W28987  21.858   1.570   2.424
28123W        W28988  19.825   3.277   2.177
28124W        W28989  21.599   2.743   0.615
28125W        W28990  18.728   3.529   0.369
28126W        W28991  19.121   3.575   1.045
28127W        W28992  18.918   0.329   2.471
28128W        W28993  21.541   1.347   2.746
28129W        W28994  20.946   1.769   1.205
28130W        W28995  20.912   1.457   0.232
28131W        W28996  20.120   2.601   2.372
28132W        W28997  19.926   0.931   1.571
28133W        W28998  20.526   3.018   2.565
28134W        W28999  21.397   1.809   0.987
28135W        W29000  20.299   0.467   1.003
28136W        W29001  18.956   3.161   0.686
28137W        W29002  18.327   0.660   1.285
28138W        W29003  21.113   1.267   1.759
28139W        W29004  18.571   2.884   1.674
28140W        W29005  19.912   3.234   0.544
28141W        W29006  21.304   1.260   0.008
28142W        W29007  18.327   3.018   2.172
28143W        W29008  19.118   2.590   2.652
28144W        W29009  19.491   1.950   1.271
28145W        W29010  19.513   0.355   2.364
28146W        W29011  21.742   0.117   1.661
28147W        W29012  18.961   1.989   0.129
28148W        W29013  18.616   1.022   0.308
28149W        W29014  18.678   2.978   1.102
28150W        W29015  19.809   2.461   1.350
28151W        W29016  21.141   3.320   3.064
28152W        W29017  20.067   0.962   0.748
28153W        W29018  21.450   3.360   1.520
28154W        W29019  21.127   1.213   3.118
28155W        W29020  21.840   2.869   1.252
28156W        W29021  20.467   2.161   2.736
28157W        W29022  18.233   1.712   0.942
28158W        W29023  19.344   2.127   2.515
28159W        W29024  20.548   1.391   0.893
28160W        W29025  20.425   1.881   0.997
28161W        W29026  18.768   1.301   2.471
28162W        W29027  18.753   1.177   3.393
28163W        W29028  18.643   0.094   1.552
28164W        W29029  20.411   0.441   2.113
28165W        W29030  20.059   0.626   3.276
28166W        W29031  20.414   0.775   0.454
28167W        W29032  21.597   3.168   3.208
28168W        W29033  20.564   0.249   3.247
28169W        W29034  21.583   2.550   3.369
28170W        W29035  21.013   0.717   2.965
28171W        W29036  20.813   0.655   1.235
28172W        W29037  21.206   1.789   3.639
28173W        W29038  18.946   3.365   1.625
28174W        W29039  19.604   1.082   0.611
28175W        W29040  19.173   0.366   3.275
28176W        W29041  21.225   0.850   0.956
28177W        W29042  21.592   1.332   0.901
28178W        W29043  19.335   3.549   3.372
28179W        W29044  19.261   0.085   0.607
28180W        W29045  21.582   0.619   1.642
28181W        W29046  21.732   2.868   0.087
28182W        W29047  18.639   2.071   1.789
28183W        W29048  20.556   0.658   0.019
28184W        W29049  21.690   2.990   1.739
28185W        W29050  21.729   0.184   2.489
28186W        W29051  20.174   1.396   3.043
28187W        W29052  20.267   2.735   0.746
28188W        W29053  20.667   2.029   3.486
28189W        W29054  20.341   0.006   1.795
28190W        W29055  18.953   0.909   1.858
28191W        W29056  18.507   2.109   2.632
28192W        W29057  20.366   3.302   1.338
28193W        W29058  21.560   0.899   2.210
28194W        W29059  20.197   3.246   2.977
28195W        W29060  21.540   2.305   0.182
28196W        W29061  19.975   1.788   1.243
28197W        W29062  21.827   0.299   2.984
28198W        W29063  19.976   2.134   2.578
28199W        W29064  20.193   1.020   2.023
28200W        W29065  21.045   1.318   0.861
28201W        W29066  21.332   1.051   0.503
28202W        W29067  21.141   3.091   0.892
28203W        W29068  20.975   2.694   1.688
28204W        W29069  20.871   1.773   0.666
28205W        W29070  20.304   1.983   1.652
28206W        W29071  21.185   1.771   1.719
28207W        W29072  18.560   0.786   2.143
28208W        W29073  21.338   1.838   2.970
28209W        W29074  21.689   3.456   2.116
28210W        W29075  19.619   2.900   1.518
28211W        W29076  20.626   3.433   2.842
28212W        W29077  20.620   0.763   2.606
28213W        W29078  19.827   3.471   2.667
28214W        W29079  21.524   0.425   1.133
28215W        W29080  21.315   1.744   2.434
28216W        W29081  18.298   1.065   2.472
28217W        W29082  21.158   0.860   1.490
28218W        W29083  21.569   1.011   3.267
28219W        W29084  20.454   2.710   1.485
28220W        W29085  19.710   3.301   1.098
28221W        W29086  18.825   0.481   0.356
28222W        W29087  19.929   0.135   2.166
28223W        W29088  18.957   3.255   0.014
28224W        W29089  19.331   1.721   0.765
28225W        W29090  19.985   2.350   3.078
28226W        W29091  19.815   0.708   1.068
28227W        W29092  21.171   0.305   1.496
28228W        W29093  20.891   3.587   1.824
28229W        W29094  20.303   3.235   2.164
28230W        W29095  19.699   2.272   2.125
28231W        W29096  21.469   2.995   2.251
28232W        W29097  19.163   0.498   1.020
28233W        W29098  19.685   2.795   1.980
28234W        W29099  19.168   0.726   0.045
28235W        W29100  19.969   1.335   2.439
28236W        W29101  20.817   0.201   2.309
28237W        W29102  18.237   2.044   2.194
28238W        W29103  19.941   1.862   0.352
28239W        W29104  19.209   0.177   0.122
28240W        W29105  19.947   1.258   1.173
28241W        W29106  20.917   0.234   2.872
28242W        W29107  19.505   2.246   2.981
28243W        W29108  20.309   2.028   3.198
28244W        W29109  20.926   2.058   3.091
28245W        W29110  20.210   0.198   3.596
28246W        W29111  19.432   0.814   1.989
28247W        W29112  18.858   0.770   1.387
28248W        W29113  18.644   3.482   1.063
28249W        W29114  19.976   2.812   3.188
28250W        W29115  19.011   2.297   0.547
28251W        W29116  20.691   1.682   1.768
28252W        W29117  20.971   1.481   2.167
28253W        W29118  20.176   2.155   2.101
28254W        W29119  20.646   2.529   0.233
28255W        W29120  20.318   0.550   1.561
28256W        W29121  21.797   0.828   0.829
28257W        W29122  18.291   3.417   2.860
28258W        W29123  18.708   2.643   2.392
28259W        W29124  18.275   3.489   0.624
28260W        W29125  20.174   0.759   2.430
28261W        W29126  19.537   2.782   0.279
28262W        W29127  21.442   3.164   0.465
28263W        W29128  20.417   1.817   0.479
28264W        W29129  19.260   1.008   0.996
28265W        W29130  20.092   0.918   0.048
28266W        W29131  20.676   2.483   3.226
28267W        W29132  21.029   0.389   0.843
28268W        W29133  18.359   0.237   0.291
28269W        W29134  19.645   2.556   2.581
28270W        W29135  19.444   2.472   1.673
28271W        W29136  19.186   2.424   0.071
28272W        W29137  18.427   2.665   0.839
28273W        W29138  18.931   1.735   3.281
28274W        W29139  19.635   0.295   3.467
28275W        W29140  20.344   0.437   2.823
28276W        W29141  19.539   0.205   1.104
28277W        W29142  20.598   0.282   0.609
28278W        W29143  18.543   0.214   2.186
28279W        W29144  18.591   1.177   1.556
28280W        W29145  21.280   0.285   1.962
28281W        W29146  18.702   0.783   0.776
28282W        W29147  21.273   0.471   2.392
28283W        W29148  21.669   1.674   0.077
28284W        W29149  18.961   0.432   1.896
28285W        W29150  20.075   1.004   2.836
28286W        W29151  18.223   0.694   0.314
28287W        W29152  19.009   2.083   2.875
28288W        W29153  20.367   1.481   2.054
28289W        W29154  20.234   3.560   0.350
28290W        W29155  18.380   2.067   0.047
28291W        W29156  19.115   2.478   3.173
28292W        W29157  18.636   1.645   2.804
28293W        W29158  19.627   1.750   2.598
28294W        W29159  21.395   0.109   2.860
28295W        W29160  21.793   1.719   2.851
28296W        W29161  21.781   1.919   0.537
28297W        W29162  20.644   2.251   0.636
28298W        W29163  21.118   3.551   0.331
28299W        W29164  20.295   1.541   3.473
28300W        W29165  18.625   2.508   3.513
28301W        W29166  21.831   0.430   3.465
28302W        W29167  21.549   1.358   2.086
28303W        W29168  19.857   3.488   3.563
28304W        W29169  19.712   0.117   0.290
28305W        W29170  21.251   2.716   0.233
28306W        W29171  19.020   0.809   3.119
28307W        W29172  19.454   2.803   2.981
28308W        W29173  21.580   0.794   2.779
28309W        W29174  20.791   3.453   0.747
28310W        W29175  21.030   2.072   2.114
28311W        W29176  19.280   0.488   2.781
28312W        W29177  19.749   1.557   3.538
28313W        W29178  19.252   2.736   0.732
28314W        W29179  21.007   2.234   0.996
28315W        W29180  18.775   0.860   2.720
28316W        W29181  20.104   2.922   1.184
28317W        W29182  21.854   1.482   1.365
28318W        W29183  20.076   0.115   3.084
28319W        W29184  20.856   2.820   2.163
28320W        W29185  21.159   3.164   1.871
28321W        W29186  20.378   2.966   0.299
28322W        W29187  18.388   2.858   3.141
28323W        W29188  19.131   0.850   2.379
28324W        W29189  19.101   0.198   1.489
28325W        W29190  20.722   1.040   2.181
28326W        W29191  19.520   2.211   0.381
28327W        W29192  21.518   2.153   1.880
28328W        W29193  18.845   2.911   3.303
28329W        W29194  21.232   3.593   1.100
28330W        W29195  19.331   0.613   1.545
28331W        W29196  19.100   2.106   1.635
28332W        W29197  19.413   3.517   2.385
28333W        W29198  21.480   3.613   3.417
28334W        W29199  20.639   1.801   2.350
28335W        W29200  18.488   1.599   0.265
28336W        W29201  21.622   3.257   0.962
28337W        W29202  21.459   0.581   0.581
28338W        W29203  19.598   0.100   2.984
28339W        W29204  21.304   2.902   1.442
28340W        W29205  21.333   1.458   1.347
28341W        W29206  19.450   1.131   1.563
28342W        W29207  19.695   1.393   2.887
28343W        W29208  20.806   2.546   2.750
28344W        W29209  19.456   1.000   2.862
28345W        W29210  19.435   3.466   1.478
28346W        W29211  18.752   3.425   3.112
28347W        W29212  18.864   2.786   0.242
28348W        W29213  21.381   2.544   1.052
28349W        W29214  18.985   1.336   2.938
28350W        W29215  21.758   1.266   0.419
28351W        W29216  19.503   2.323   0.890
28352W        W29217  20.602   1.705   2.971
28353W        W29218  20.493   1.333   2.515
28354W        W29219  19.053   1.705   2.544
28355W        W29220  21.263   3.593   2.373
28356W        W29221  21.054   0.227   3.367
28357W        W29222  18.718   0.377   2.954
28358W        W29223  19.057   1.400   2.007
28359W        W29224  19.426   1.214   0.129
28360W        W29225  18.229   2.973   2.674
28361W        W29226  19.814   1.682   2.117
28362W        W29227  19.637   0.707   0.222
28363W        W29228  18.772   1.523   1.003
28364W        W29229  18.543   3.375   2.440
28365W        W29230  21.338   1.601   0.548
28366W        W29231  21.433   0.517   3.234
28367W        W29232  20.869   2.726   1.197
28368W        W29233  18.467   1.650   3.374
28369W        W29234  21.433   0.114   0.670
28370W        W29235  20.953   2.589   0.681
28371W        W29236  19.855   1.647   0.766
28372W        W29237  21.042   0.451   0.289
28373W        W29238  21.107   1.058   2.475
28374W        W29239  18.816   1.651   1.682
28375W        W29240  19.110   2.590   1.331
28376W        W29241  20.873   1.210   1.296
28377W        W29242  19.896   0.589   1.992
28378W        W29243  21.858   2.500   2.503
28379W        W29244  21.776   0.487   2.064
28380W        W29245  18.315   3.317   1.440
28381W        W29246  18.824   2.504   0.976
28382W        W29247  18.739   0.121   3.529
28383W        W29248  19.858   2.974   3.631
28384W        W29249  21.613   1.942   1.421
28385W        W29250  20.967   2.119   0.301
28386W        W29251  20.262   3.640   2.513
28387W        W29252  21.119   2.362   3.550
28388W        W29253  19.934   0.072   0.830
28389W        W29254  20.647   0.941   1.689
28390W        W29255  18.333   2.528   2.021
28391W        W29256  19.586   0.490   0.662
28392W        W29257  19.390   1.974   3.511
28393W        W29258  20.384   0.955   1.225
28394W        W29259  20.589   2.365   2.347
28395W        W29260  18.743   2.970   2.782
28396W        W29261  19.334   2.953   3.505
28397W        W29262  19.185   0.750   0.519
28398W        W29263  20.702   0.892   0.844
28399W        W29264  20.660   3.000   3.081
28400W        W29265  19.345   1.592   1.680
28401W        W29266  19.000   3.290   2.545
28402W        W29267  21.745   3.407   0.146
28403W        W29268  18.608   2.079   3.142
28404W        W29269  20.603   2.341   1.830
28405W        W29270  19.039   1.990   1.072
28406W        W29271  19.410   2.997   2.467
28407W        W29272  19.788   0.416   1.508
28408W        W29273  18.399   2.400   0.438
28409W        W29274  19.918   1.351   0.308
28410W        W29275  18.564   1.900   1.327
28411W        W29276  19.854   0.542   2.791
28412W        W29277  21.526   0.251   0.218
28413W        W29278  21.619   1.997   3.317
28414W        W29279  20.273   3.254   3.469
28415W        W29280  21.831   2.348   2.991
28416W        W29281  21.239   3.146   3.602
28417W        W29282  18.978   3.602   2.080
28418W        W29283  21.837   2.224   0.954
28419W        W29284  20.367   1.491   1.467
28420W        W29285  20.134   0.103   1.357
28421W        W29286  19.193   3.087   1.194
28422W        W29287  19.692   0.828   2.419
28423W        W29288  19.392   0.197   1.888
28424W        W29289  18.455   3.019   0.436
28425W        W29290  20.271   2.383   1.154
28426W        W29291  19.146   3.178   3.033
28427W        W29292  18.623   2.001   0.729
28428W        W29293  18.508   0.544   1.728
28429W        W29294  20.056   2.509   1.785
28430W        W29295  18.308   0.363   0.805
28431W        W29296  20.972   1.569   2.732
28432W        W29297  20.849   0.955   0.304
28433W        W29298  21.366   2.627   1.952
28434W        W29299  20.027   3.111   1.783
28435W        W29300  19.439   3.215   0.694
28436W        W29301  20.721   0.118   0.124
28437W        W29302  18.521   3.378   1.865
28438W        W29303  20.718   1.136   3.500
28439W        W29304  18.701   0.666   3.499
28440W        W29305  18.432   1.266   0.832
28441W        W29306  19.123   1.255   0.557
28442W        W29307  20.886   1.582   3.374
28443W        W29308  19.229   1.863   2.083
28444W        W29309  20.703   0.149   1.203
28445W        W29310  19.834   3.580   1.706
28446W        W29311  21.048   3.042   2.643
28447W        W29312  20.632   3.191   1.754
28448W        W29313  20.651   2.171   1.348
28449W        W29314  20.113   0.396   0.419
28450W        W29315  21.794   0.024   1.141
28451W        W29316  19.482   1.659   0.304
28452W        W29317  21.648   0.996   1.294
28453W        W29318  20.340   2.166   0.171
28454W        W29319  21.276   2.366   2.919
28455W        W29320  20.930   3.067   0.386
28456W        W29321  19.545   0.742   3.292
28457W        W29322  19.365   1.326   2.533
28458W        W29323  21.457   2.821   2.810
28459W        W29324  20.557   0.771   3.187
28460W        W29325  18.401   1.242   2.964
28461W        W29326  20.161   1.719   2.690
28462W        W29327  18.518   2.477   1.347
28463W        W29328  18.665   1.774   2.237
28464W        W29329  20.982   2.060   2.587
28465W        W29330  20.754   3.440   3.398
28466W        W29331  20.650   1.179   2.951
28467W        W29332  20.927   3.233   1.356
28468W        W29333  19.929   2.953   2.679
28469W        W29334  19.414   3.308   1.948
28470W        W29335  21.219   2.479   2.367
28471W        W29336  20.269   2.551   3.504
28472W        W29337  18.874   2.504   1.843
28473W        W29338  21.220   2.263   1.488
28474W        W29339  20.861   3.329   2.239
28475W        W29340  18.839   3.058   2.109
28476W        W29341  19.860   1.110   3.319
28477W        W29342  20.311   3.276   0.830
28478W        W29343  19.619   2.531   3.468
28479W        W29344  19.745   2.769   0.845
28480W        W29345  18.966   1.509   0.104
28481W        W29346  18.305   3.595   7.003
28482W        W29347  18.681   2.488   6.526
28483W        W29348  21.386   2.218   4.296
28484W        W29349  21.516   3.303   6.323
28485W        W29350  19.434   3.294   3.849
28486W        W29351  19.517   1.446   4.832
28487W        W29352  19.032   1.294   4.996
28488W        W29353  20.023   2.109   4.430
28489W        W29354  19.698   3.201   6.785
28490W        W29355  18.347   0.762   6.748
28491W        W29356  19.109   0.042   6.550
28492W        W29357  20.803   0.430   5.437
28493W        W29358  20.452   1.301   4.007
28494W        W29359  21.022   0.735   7.098
28495W        W29360  18.388   0.527   6.223
28496W        W29361  18.487   3.146   7.244
28497W        W29362  20.009   2.536   3.976
28498W        W29363  18.441   1.319   5.669
28499W        W29364  19.334   1.210   6.906
28500W        W29365  21.793   1.069   5.405
28501W        W29366  21.557   2.112   6.264
28502W        W29367  19.865   1.445   5.291
28503W        W29368  20.411   2.784   5.660
28504W        W29369  18.911   2.218   5.892
28505W        W29370  18.270   1.746   5.463
28506W        W29371  19.306   1.718   6.655
28507W        W29372  21.577   1.501   6.909
28508W        W29373  19.193   2.945   5.354
28509W        W29374  20.314   2.634   6.488
28510W        W29375  19.534   1.274   5.713
28511W        W29376  19.826   2.058   5.356
28512W        W29377  20.823   2.831   7.204
28513W        W29378  19.902   2.151   7.214
28514W        W29379  19.883   1.867   6.692
28515W        W29380  18.292   1.258   7.214
28516W        W29381  21.124   2.793   6.813
28517W        W29382  18.705   0.375   4.811
28518W        W29383  19.232   2.633   5.810
28519W        W29384  21.695   2.416   5.100
28520W        W29385  21.108   0.816   5.667
28521W        W29386  21.393   0.769   3.762
28522W        W29387  21.858   1.570   6.068
28523W        W29388  19.825   3.277   5.821
28524W        W29389  21.599   2.743   4.259
28525W        W29390  18.728   3.529   4.013
28526W        W29391  19.121   3.575   4.689
28527W        W29392  18.918   0.329   6.115
28528W        W29393  21.541   1.347   6.390
28529W        W29394  20.946   1.769   4.849
28530W        W29395  20.912   1.457   3.876
28531W        W29396  20.120   2.601   6.016
28532W        W29397  19.926   0.931   5.215
28533W        W29398  20.526   3.018   6.209
28534W        W29399  21.397   1.809   4.631
28535W        W29400  20.299   0.467   4.647
28536W        W29401  18.956   3.161   4.330
28537W        W29402  18.327   0.660   4.929
28538W        W29403  21.113   1.267   5.403
28539W        W29404  18.571   2.884   5.318
28540W        W29405  19.912   3.234   4.188
28541W        W29406  21.304   1.260   3.652
28542W        W29407  18.327   3.018   5.816
28543W        W29408  19.118   2.590   6.296
28544W        W29409  19.491   1.950   4.915
28545W        W29410  19.513   0.355   6.008
28546W        W29411  21.742   0.117   5.305
28547W        W29412  18.961   1.989   3.773
28548W        W29413  18.616   1.022   3.952
28549W        W29414  18.678   2.978   4.746
28550W        W29415  19.809   2.461   4.994
28551W        W29416  21.141   3.320   6.708
28552W        W29417  20.067   0.962   4.392
28553W        W29418  21.450   3.360   5.164
28554W        W29419  21.127   1.213   6.762
28555W        W29420  21.840   2.869   4.896
28556W        W29421  20.467   2.161   6.380
28557W        W29422  18.233   1.712   4.586
28558W        W29423  19.344   2.127   6.159
28559W        W29424  20.548   1.391   4.537
28560W        W29425  20.425   1.881   4.641
28561W        W29426  18.768   1.301   6.115
28562W        W29427  18.753   1.177   7.037
28563W        W29428  18.643   0.094   5.196
28564W        W29429  20.411   0.441   5.757
28565W        W29430  20.059   0.626   6.920
28566W        W29431  20.414   0.775   4.098
28567W        W29432  21.597   3.168   6.852
28568W        W29433  20.564   0.249   6.891
28569W        W29434  21.583   2.550   7.013
28570W        W29435  21.013   0.717   6.609
28571W        W29436  20.813   0.655   4.879
28572W        W29437  21.206   1.789   7.283
28573W        W29438  18.946   3.365   5.269
28574W        W29439  19.604   1.082   4.255
28575W        W29440  19.173   0.366   6.919
28576W        W29441  21.225   0.850   4.600
28577W        W29442  21.592   1.332   4.545
28578W        W29443  19.335   3.549   7.016
28579W        W29444  19.261   0.085   4.251
28580W        W29445  21.582   0.619   5.286
28581W        W29446  21.732   2.868   3.731
28582W        W29447  18.639   2.071   5.433
28583W        W29448  20.556   0.658   3.663
28584W        W29449  21.690   2.990   5.383
28585W        W29450  21.729   0.184   6.133
28586W        W29451  20.174   1.396   6.687
28587W        W29452  20.267   2.735   4.390
28588W        W29453  20.667   2.029   7.130
28589W        W29454  20.341   0.006   5.439
28590W        W29455  18.953   0.909   5.502
28591W        W29456  18.507   2.109   6.276
28592W        W29457  20.366   3.302   4.982
28593W        W29458  21.560   0.899   5.854
28594W        W29459  20.197   3.246   6.621
28595W        W29460  21.540   2.305   3.826
28596W        W29461  19.975   1.788   4.887
28597W        W29462  21.827   0.299   6.628
28598W        W29463  19.976   2.134   6.222
28599W        W29464  20.193   1.020   5.667
28600W        W29465  21.045   1.318   4.505
28601W        W29466  21.332   1.051   4.147
28602W        W29467  21.141   3.091   4.536
28603W        W29468  20.975   2.694   5.332
28604W        W29469  20.871   1.773   4.310
28605W        W29470  20.304   1.983   5.296
28606W        W29471  21.185   1.771   5.363
28607W        W29472  18.560   0.786   5.787
28608W        W29473  21.338   1.838   6.614
28609W        W29474  21.689   3.456   5.760
28610W        W29475  19.619   2.900   5.162
28611W        W29476  20.626   3.433   6.486
28612W        W29477  20.620   0.763   6.250
28613W        W29478  19.827   3.471   6.311
28614W        W29479  21.524   0.425   4.777
28615W        W29480  21.315   1.744   6.078
28616W        W29481  18.298   1.065   6.116
28617W        W29482  21.158   0.860   5.134
28618W        W29483  21.569   1.011   6.911
28619W        W29484  20.454   2.710   5.129
28620W        W29485  19.710   3.301   4.742
28621W        W29486  18.825   0.481   4.000
28622W        W29487  19.929   0.135   5.810
28623W        W29488  18.957   3.255   3.658
28624W        W29489  19.331   1.721   4.409
28625W        W29490  19.985   2.350   6.722
28626W        W29491  19.815   0.708   4.712
28627W        W29492  21.171   0.305   5.140
28628W        W29493  20.891   3.587   5.468
28629W        W29494  20.303   3.235   5.808
28630W        W29495  19.699   2.272   5.769
28631W        W29496  21.469   2.995   5.895
28632W        W29497  19.163   0.498   4.664
28633W        W29498  19.685   2.795   5.624
28634W        W29499  19.168   0.726   3.689
28635W        W29500  19.969   1.335   6.083
28636W        W29501  20.817   0.201   5.953
28637W        W29502  18.237   2.044   5.838
28638W        W29503  19.941   1.862   3.996
28639W        W29504  19.209   0.177   3.766
28640W        W29505  19.947   1.258   4.817
28641W        W29506  20.917   0.234   6.516
28642W        W29507  19.505   2.246   6.625
28643W        W29508  20.309   2.028   6.842
28644W        W29509  20.926   2.058   6.735
28645W        W29510  20.210   0.198   7.240
28646W        W29511  19.432   0.814   5.633
28647W        W29512  18.858   0.770   5.031
28648W        W29513  18.644   3.482   4.707
28649W        W29514  19.976   2.812   6.832
28650W        W29515  19.011   2.297   4.191
28651W        W29516  20.691   1.682   5.412
28652W        W29517  20.971   1.481   5.811
28653W        W29518  20.176   2.155   5.745
28654W        W29519  20.646   2.529   3.877
28655W        W29520  20.318   0.550   5.205
28656W        W29521  21.797   0.828   4.473
28657W        W29522  18.291   3.417   6.504
28658W        W29523  18.708   2.643   6.036
28659W        W29524  18.275   3.489   4.268
28660W        W29525  20.174   0.759   6.074
28661W        W29526  19.537   2.782   3.923
28662W        W29527  21.442   3.164   4.109
28663W        W29528  20.417   1.817   4.123
28664W        W29529  19.260   1.008   4.640
28665W        W29530  20.092   0.918   3.692
28666W        W29531  20.676   2.483   6.870
28667W        W29532  21.029   0.389   4.487
28668W        W29533  18.359   0.237   3.935
28669W        W29534  19.645   2.556   6.225
28670W        W29535  19.444   2.472   5.317
28671W        W29536  19.186   2.424   3.715
28672W        W29537  18.427   2.665   4.483
28673W        W29538  18.931   1.735   6.925
28674W        W29539  19.635   0.295   7.111
28675W        W29540  20.344   0.437   6.467
28676W        W29541  19.539   0.205   4.748
28677W        W29542  20.598   0.282   4.253
28678W        W29543  18.543   0.214   5.830
28679W        W29544  18.591   1.177   5.200
28680W        W29545  21.280   0.285   5.606
28681W        W29546  18.702   0.783   4.420
28682W        W29547  21.273   0.471   6.036
28683W        W29548  21.669   1.674   3.721
28684W        W29549  18.961   0.432   5.540
28685W        W29550  20.075   1.004   6.480
28686W        W29551  18.223   0.694   3.958
28687W        W29552  19.009   2.083   6.519
28688W        W29553  20.367   1.481   5.698
28689W        W29554  20.234   3.560   3.994
28690W        W29555  18.380   2.067   3.691
28691W        W29556  19.115   2.478   6.817
28692W        W29557  18.636   1.645   6.448
28693W        W29558  19.627   1.750   6.242
28694W        W29559  21.395   0.109   6.504
28695W        W29560  21.793   1.719   6.495
28696W        W29561  21.781   1.919   4.181
28697W        W29562  20.644   2.251   4.280
28698W        W29563  21.118   3.551   3.975
28699W        W29564  20.295   1.541   7.117
28700W        W29565  18.625   2.508   7.157
28701W        W29566  21.831   0.430   7.109
28702W        W29567  21.549   1.358   5.730
28703W        W29568  19.857   3.488   7.207
28704W        W29569  19.712   0.117   3.934
28705W        W29570  21.251   2.716   3.877
28706W        W29571  19.020   0.809   6.763
28707W        W29572  19.454   2.803   6.625
28708W        W29573  21.580   0.794   6.423
28709W        W29574  20.791   3.453   4.391
28710W        W29575  21.030   2.072   5.758
28711W        W29576  19.280   0.488   6.425
28712W        W29577  19.749   1.557   7.182
28713W        W29578  19.252   2.736   4.376
28714W        W29579  21.007   2.234   4.640
28715W        W29580  18.775   0.860   6.364
28716W        W29581  20.104   2.922   4.828
28717W        W29582  21.854   1.482   5.009
28718W        W29583  20.076   0.115   6.728
28719W        W29584  20.856   2.820   5.807
28720W        W29585  21.159   3.164   5.515
28721W        W29586  20.378   2.966   3.943
28722W        W29587  18.388   2.858   6.785
28723W        W29588  19.131   0.850   6.023
28724W        W29589  19.101   0.198   5.133
28725W        W29590  20.722   1.040   5.825
28726W        W29591  19.520   2.211   4.025
28727W        W29592  21.518   2.153   5.524
28728W        W29593  18.845   2.911   6.947
28729W        W29594  21.232   3.593   4.744
28730W        W29595  19.331   0.613   5.189
28731W        W29596  19.100   2.106   5.279
28732W        W29597  19.413   3.517   6.029
28733W        W29598  21.480   3.613   7.061
28734W        W29599  20.639   1.801   5.994
28735W        W29600  18.488   1.599   3.909
28736W        W29601  21.622   3.257   4.606
28737W        W29602  21.459   0.581   4.225
28738W        W29603  19.598   0.100   6.628
28739W        W29604  21.304   2.902   5.086
28740W        W29605  21.333   1.458   4.991
28741W        W29606  19.450   1.131   5.207
28742W        W29607  19.695   1.393   6.531
28743W        W29608  20.806   2.546   6.394
28744W        W29609  19.456   1.000   6.506
28745W        W29610  19.435   3.466   5.122
28746W        W29611  18.752   3.425   6.756
28747W        W29612  18.864   2.786   3.886
28748W        W29613  21.381   2.544   4.696
28749W        W29614  18.985   1.336   6.582
28750W        W29615  21.758   1.266   4.063
28751W        W29616  19.503   2.323   4.534
28752W        W29617  20.602   1.705   6.615
28753W        W29618  20.493   1.333   6.159
28754W        W29619  19.053   1.705   6.188
28755W        W29620  21.263   3.593   6.017
28756W        W29621  21.054   0.227   7.011
28757W        W29622  18.718   0.377   6.598
28758W        W29623  19.057   1.400   5.651
28759W        W29624  19.426   1.214   3.773
28760W        W29625  18.229   2.973   6.318
28761W        W29626  19.814   1.682   5.761
28762W        W29627  19.637   0.707   3.866
28763W        W29628  18.772   1.523   4.647
28764W        W29629  18.543   3.375   6.084
28765W        W29630  21.338   1.601   4.192
28766W        W29631  21.433   0.517   6.878
28767W        W29632  20.869   2.726   4.841
28768W        W29633  18.467   1.650   7.018
28769W        W29634  21.433   0.114   4.314
28770W        W29635  20.953   2.589   4.325
28771W        W29636  19.855   1.647   4.410
28772W        W29637  21.042   0.451   3.933
28773W        W29638  21.107   1.058   6.119
28774W        W29639  18.816   1.651   5.326
28775W        W29640  19.110   2.590   4.975
28776W        W29641  20.873   1.210   4.940
28777W        W29642  19.896   0.589   5.636
28778W        W29643  21.858   2.500   6.147
28779W        W29644  21.776   0.487   5.708
28780W        W29645  18.315   3.317   5.084
28781W        W29646  18.824   2.504   4.620
28782W        W29647  18.739   0.121   7.173
28783W        W29648  19.858   2.974   7.275
28784W        W29649  21.613   1.942   5.065
28785W        W29650  20.967   2.119   3.945
28786W        W29651  20.262   3.640   6.157
28787W        W29652  21.119   2.362   7.194
28788W        W29653  19.934   0.072   4.474
28789W        W29654  20.647   0.941   5.333
28790W        W29655  18.333   2.528   5.665
28791W        W29656  19.586   0.490   4.306
28792W        W29657  19.390   1.974   7.155
28793W        W29658  20.384   0.955   4.869
28794W        W29659  20.589   2.365   5.991
28795W        W29660  18.743   2.970   6.426
28796W        W29661  19.334   2.953   7.149
28797W        W29662  19.185   0.750   4.163
28798W        W29663  20.702   0.892   4.488
28799W        W29664  20.660   3.000   6.725
28800W        W29665  19.345   1.592   5.324
28801W        W29666  19.000   3.290   6.189
28802W        W29667  21.745   3.407   3.790
28803W        W29668  18.608   2.079   6.786
28804W        W29669  20.603   2.341   5.474
28805W        W29670  19.039   1.990   4.716
28806W        W29671  19.410   2.997   6.111
28807W        W29672  19.788   0.416   5.152
28808W        W29673  18.399   2.400   4.082
28809W        W29674  19.918   1.351   3.952
28810W        W29675  18.564   1.900   4.971
28811W        W29676  19.854   0.542   6.435
28812W        W29677  21.526   0.251   3.862
28813W        W29678  21.619   1.997   6.961
28814W        W29679  20.273   3.254   7.113
28815W        W29680  21.831   2.348   6.635
28816W        W29681  21.239   3.146   7.246
28817W        W29682  18.978   3.602   5.724
28818W        W29683  21.837   2.224   4.598
28819W        W29684  20.367   1.491   5.111
28820W        W29685  20.134   0.103   5.001
28821W        W29686  19.193   3.087   4.838
28822W        W29687  19.692   0.828   6.063
28823W        W29688  19.392   0.197   5.532
28824W        W29689  18.455   3.019   4.080
28825W        W29690  20.271   2.383   4.798
28826W        W29691  19.146   3.178   6.677
28827W        W29692  18.623   2.001   4.373
28828W        W29693  18.508   0.544   5.372
28829W        W29694  20.056   2.509   5.429
28830W        W29695  18.308   0.363   4.449
28831W        W29696  20.972   1.569   6.376
28832W        W29697  20.849   0.955   3.948
28833W        W29698  21.366   2.627   5.596
28834W        W29699  20.027   3.111   5.427
28835W        W29700  19.439   3.215   4.338
28836W        W29701  20.721   0.118   3.768
28837W        W29702  18.521   3.378   5.509
28838W        W29703  20.718   1.136   7.144
28839W        W29704  18.701   0.666   7.143
28840W        W29705  18.432   1.266   4.476
28841W        W29706  19.123   1.255   4.201
28842W        W29707  20.886   1.582   7.018
28843W        W29708  19.229   1.863   5.727
28844W        W29709  20.703   0.149   4.847
28845W        W29710  19.834   3.580   5.350
28846W        W29711  21.048   3.042   6.287
28847W        W29712  20.632   3.191   5.398
28848W        W29713  20.651   2.171   4.992
28849W        W29714  20.113   0.396   4.063
28850W        W29715  21.794   0.024   4.785
28851W        W29716  19.482   1.659   3.948
28852W        W29717  21.648   0.996   4.938
28853W        W29718  20.340   2.166   3.815
28854W        W29719  21.276   2.366   6.563
28855W        W29720  20.930   3.067   4.030
28856W        W29721  19.545   0.742   6.936
28857W        W29722  19.365   1.326   6.177
28858W        W29723  21.457   2.821   6.454
28859W        W29724  20.557   0.771   6.831
28860W        W29725  18.401   1.242   6.608
28861W        W29726  20.161   1.719   6.334
28862W        W29727  18.518   2.477   4.991
28863W        W29728  18.665   1.774   5.881
28864W        W29729  20.982   2.060   6.231
28865W        W29730  20.754   3.440   7.042
28866W        W29731  20.650   1.179   6.595
28867W        W29732  20.927   3.233   5.000
28868W        W29733  19.929   2.953   6.323
28869W        W29734  19.414   3.308   5.592
28870W        W29735  21.219   2.479   6.011
28871W        W29736  20.269   2.551   7.148
28872W        W29737  18.874   2.504   5.487
28873W        W29738  21.220   2.263   5.132
28874W        W29739  20.861   3.329   5.883
28875W        W29740  18.839   3.058   5.753
28876W        W29741  19.860   1.110   6.963
28877W        W29742  20.311   3.276   4.474
28878W        W29743  19.619   2.531   7.112
28879W        W29744  19.745   2.769   4.489
28880W        W29745  18.966   1.509   3.748
28881W        W29746  18.305   3.595  10.648
28882W        W29747  18.681   2.488  10.171
28883W        W29748  21.386   2.218   7.941
28884W        W29749  21.516   3.303   9.968
28885W        W29750  19.434   3.294   7.494
28886W        W29751  19.517   1.446   8.477
28887W        W29752  19.032   1.294   8.641
28888W        W29753  20.023   2.109   8.075
28889W        W29754  19.698   3.201  10.430
28890W        W29755  18.347   0.762  10.393
28891W        W29756  19.109   0.042  10.195
28892W        W29757  20.803   0.430   9.082
28893W        W29758  20.452   1.301   7.652
28894W        W29759  21.022   0.735  10.743
28895W        W29760  18.388   0.527   9.868
28896W        W29761  18.487   3.146  10.889
28897W        W29762  20.009   2.536   7.621
28898W        W29763  18.441   1.319   9.314
28899W        W29764  19.334   1.210  10.551
28900W        W29765  21.793   1.069   9.050
28901W        W29766  21.557   2.112   9.909
28902W        W29767  19.865   1.445   8.936
28903W        W29768  20.411   2.784   9.305
28904W        W29769  18.911   2.218   9.537
28905W        W29770  18.270   1.746   9.108
28906W        W29771  19.306   1.718  10.300
28907W        W29772  21.577   1.501  10.554
28908W        W29773  19.193   2.945   8.999
28909W        W29774  20.314   2.634  10.133
28910W        W29775  19.534   1.274   9.358
28911W        W29776  19.826   2.058   9.001
28912W        W29777  20.823   2.831  10.849
28913W        W29778  19.902   2.151  10.859
28914W        W29779  19.883   1.867  10.337
28915W        W29780  18.292   1.258  10.859
28916W        W29781  21.124   2.793  10.458
28917W        W29782  18.705   0.375   8.456
28918W        W29783  19.232   2.633   9.455
28919W        W29784  21.695   2.416   8.745
28920W        W29785  21.108   0.816   9.312
28921W        W29786  21.393   0.769   7.407
28922W        W29787  21.858   1.570   9.713
28923W        W29788  19.825   3.277   9.466
28924W        W29789  21.599   2.743   7.904
28925W        W29790  18.728   3.529   7.658
28926W        W29791  19.121   3.575   8.334
28927W        W29792  18.918   0.329   9.760
28928W        W29793  21.541   1.347  10.035
28929W        W29794  20.946   1.769   8.494
28930W        W29795  20.912   1.457   7.521
28931W        W29796  20.120   2.601   9.661
28932W        W29797  19.926   0.931   8.860
28933W        W29798  20.526   3.018   9.854
28934W        W29799  21.397   1.809   8.276
28935W        W29800  20.299   0.467   8.292
28936W        W29801  18.956   3.161   7.975
28937W        W29802  18.327   0.660   8.574
28938W        W29803  21.113   1.267   9.048
28939W        W29804  18.571   2.884   8.963
28940W        W29805  19.912   3.234   7.833
28941W        W29806  21.304   1.260   7.297
28942W        W29807  18.327   3.018   9.461
28943W        W29808  19.118   2.590   9.941
28944W        W29809  19.491   1.950   8.560
28945W        W29810  19.513   0.355   9.653
28946W        W29811  21.742   0.117   8.950
28947W        W29812  18.961   1.989   7.418
28948W        W29813  18.616   1.022   7.597
28949W        W29814  18.678   2.978   8.391
28950W        W29815  19.809   2.461   8.639
28951W        W29816  21.141   3.320  10.353
28952W        W29817  20.067   0.962   8.037
28953W        W29818  21.450   3.360   8.809
28954W        W29819  21.127   1.213  10.407
28955W        W29820  21.840   2.869   8.541
28956W        W29821  20.467   2.161  10.025
28957W        W29822  18.233   1.712   8.231
28958W        W29823  19.344   2.127   9.804
28959W        W29824  20.548   1.391   8.182
28960W        W29825  20.425   1.881   8.286
28961W        W29826  18.768   1.301   9.760
28962W        W29827  18.753   1.177  10.682
28963W        W29828  18.643   0.094   8.841
28964W        W29829  20.411   0.441   9.402
28965W        W29830  20.059   0.626  10.565
28966W        W29831  20.414   0.775   7.743
28967W        W29832  21.597   3.168  10.497
28968W        W29833  20.564   0.249  10.536
28969W        W29834  21.583   2.550  10.658
28970W        W29835  21.013   0.717  10.254
28971W        W29836  20.813   0.655   8.524
28972W        W29837  21.206   1.789  10.928
28973W        W29838  18.946   3.365   8.914
28974W        W29839  19.604   1.082   7.900
28975W        W29840  19.173   0.366  10.564
28976W        W29841  21.225   0.850   8.245
28977W        W29842  21.592   1.332   8.190
28978W        W29843  19.335   3.549  10.661
28979W        W29844  19.261   0.085   7.896
28980W        W29845  21.582   0.619   8.931
28981W        W29846  21.732   2.868   7.376
28982W        W29847  18.639   2.071   9.078
28983W        W29848  20.556   0.658   7.308
28984W        W29849  21.690   2.990   9.028
28985W        W29850  21.729   0.184   9.778
28986W        W29851  20.174   1.396  10.332
28987W        W29852  20.267   2.735   8.035
28988W        W29853  20.667   2.029  10.775
28989W        W29854  20.341   0.006   9.084
28990W        W29855  18.953   0.909   9.147
28991W        W29856  18.507   2.109   9.921
28992W        W29857  20.366   3.302   8.627
28993W        W29858  21.560   0.899   9.499
28994W        W29859  20.197   3.246  10.266
28995W        W29860  21.540   2.305   7.471
28996W        W29861  19.975   1.788   8.532
28997W        W29862  21.827   0.299  10.273
28998W        W29863  19.976   2.134   9.867
28999W        W29864  20.193   1.020   9.312
29000W        W29865  21.045   1.318   8.150
29001W        W29866  21.332   1.051   7.792
29002W        W29867  21.141   3.091   8.181
29003W        W29868  20.975   2.694   8.977
29004W        W29869  20.871   1.773   7.955
29005W        W29870  20.304   1.983   8.941
29006W        W29871  21.185   1.771   9.008
29007W        W29872  18.560   0.786   9.432
29008W        W29873  21.338   1.838  10.259
29009W        W29874  21.689   3.456   9.405
29010W        W29875  19.619   2.900   8.807
29011W        W29876  20.626   3.433  10.131
29012W        W29877  20.620   0.763   9.895
29013W        W29878  19.827   3.471   9.956
29014W        W29879  21.524   0.425   8.422
29015W        W29880  21.315   1.744   9.723
29016W        W29881  18.298   1.065   9.761
29017W        W29882  21.158   0.860   8.779
29018W        W29883  21.569   1.011  10.556
29019W        W29884  20.454   2.710   8.774
29020W        W29885  19.710   3.301   8.387
29021W        W29886  18.825   0.481   7.645
29022W        W29887  19.929   0.135   9.455
29023W        W29888  18.957   3.255   7.303
29024W        W29889  19.331   1.721   8.054
29025W        W29890  19.985   2.350  10.367
29026W        W29891  19.815   0.708   8.357
29027W        W29892  21.171   0.305   8.785
29028W        W29893  20.891   3.587   9.113
29029W        W29894  20.303   3.235   9.453
29030W        W29895  19.699   2.272   9.414
29031W        W29896  21.469   2.995   9.540
29032W        W29897  19.163   0.498   8.309
29033W        W29898  19.685   2.795   9.269
29034W        W29899  19.168   0.726   7.334
29035W        W29900  19.969   1.335   9.728
29036W        W29901  20.817   0.201   9.598
29037W        W29902  18.237   2.044   9.483
29038W        W29903  19.941   1.862   7.641
29039W        W29904  19.209   0.177   7.411
29040W        W29905  19.947   1.258   8.462
29041W        W29906  20.917   0.234  10.161
29042W        W29907  19.505   2.246  10.270
29043W        W29908  20.309   2.028  10.487
29044W        W29909  20.926   2.058  10.380
29045W        W29910  20.210   0.198  10.885
29046W        W29911  19.432   0.814   9.278
29047W        W29912  18.858   0.770   8.676
29048W        W29913  18.644   3.482   8.352
29049W        W29914  19.976   2.812  10.477
29050W        W29915  19.011   2.297   7.836
29051W        W29916  20.691   1.682   9.057
29052W        W29917  20.971   1.481   9.456
29053W        W29918  20.176   2.155   9.390
29054W        W29919  20.646   2.529   7.522
29055W        W29920  20.318   0.550   8.850
29056W        W29921  21.797   0.828   8.118
29057W        W29922  18.291   3.417  10.149
29058W        W29923  18.708   2.643   9.681
29059W        W29924  18.275   3.489   7.913
29060W        W29925  20.174   0.759   9.719
29061W        W29926  19.537   2.782   7.568
29062W        W29927  21.442   3.164   7.754
29063W        W29928  20.417   1.817   7.768
29064W        W29929  19.260   1.008   8.285
29065W        W29930  20.092   0.918   7.337
29066W        W29931  20.676   2.483  10.515
29067W        W29932  21.029   0.389   8.132
29068W        W29933  18.359   0.237   7.580
29069W        W29934  19.645   2.556   9.870
29070W        W29935  19.444   2.472   8.962
29071W        W29936  19.186   2.424   7.360
29072W        W29937  18.427   2.665   8.128
29073W        W29938  18.931   1.735  10.570
29074W        W29939  19.635   0.295  10.756
29075W        W29940  20.344   0.437  10.112
29076W        W29941  19.539   0.205   8.393
29077W        W29942  20.598   0.282   7.898
29078W        W29943  18.543   0.214   9.475
29079W        W29944  18.591   1.177   8.845
29080W        W29945  21.280   0.285   9.251
29081W        W29946  18.702   0.783   8.065
29082W        W29947  21.273   0.471   9.681
29083W        W29948  21.669   1.674   7.366
29084W        W29949  18.961   0.432   9.185
29085W        W29950  20.075   1.004  10.125
29086W        W29951  18.223   0.694   7.603
29087W        W29952  19.009   2.083  10.164
29088W        W29953  20.367   1.481   9.343
29089W        W29954  20.234   3.560   7.639
29090W        W29955  18.380   2.067   7.336
29091W        W29956  19.115   2.478  10.462
29092W        W29957  18.636   1.645  10.093
29093W        W29958  19.627   1.750   9.887
29094W        W29959  21.395   0.109  10.149
29095W        W29960  21.793   1.719  10.140
29096W        W29961  21.781   1.919   7.826
29097W        W29962  20.644   2.251   7.925
29098W        W29963  21.118   3.551   7.620
29099W        W29964  20.295   1.541  10.762
29100W        W29965  18.625   2.508  10.802
29101W        W29966  21.831   0.430  10.754
29102W        W29967  21.549   1.358   9.375
29103W        W29968  19.857   3.488  10.852
29104W        W29969  19.712   0.117   7.579
29105W        W29970  21.251   2.716   7.522
29106W        W29971  19.020   0.809  10.408
29107W        W29972  19.454   2.803  10.270
29108W        W29973  21.580   0.794  10.068
29109W        W29974  20.791   3.453   8.036
29110W        W29975  21.030   2.072   9.403
29111W        W29976  19.280   0.488  10.070
29112W        W29977  19.749   1.557  10.827
29113W        W29978  19.252   2.736   8.021
29114W        W29979  21.007   2.234   8.285
29115W        W29980  18.775   0.860  10.009
29116W        W29981  20.104   2.922   8.473
29117W        W29982  21.854   1.482   8.654
29118W        W29983  20.076   0.115  10.373
29119W        W29984  20.856   2.820   9.452
29120W        W29985  21.159   3.164   9.160
29121W        W29986  20.378   2.966   7.588
29122W        W29987  18.388   2.858  10.430
29123W        W29988  19.131   0.850   9.668
29124W        W29989  19.101   0.198   8.778
29125W        W29990  20.722   1.040   9.470
29126W        W29991  19.520   2.211   7.670
29127W        W29992  21.518   2.153   9.169
29128W        W29993  18.845   2.911  10.592
29129W        W29994  21.232   3.593   8.389
29130W        W29995  19.331   0.613   8.834
29131W        W29996  19.100   2.106   8.924
29132W        W29997  19.413   3.517   9.674
29133W        W29998  21.480   3.613  10.706
29134W        W29999  20.639   1.801   9.639
29135W        W30000  18.488   1.599   7.554
29136W        W30001  21.622   3.257   8.251
29137W        W30002  21.459   0.581   7.870
29138W        W30003  19.598   0.100  10.273
29139W        W30004  21.304   2.902   8.731
29140W        W30005  21.333   1.458   8.636
29141W        W30006  19.450   1.131   8.852
29142W        W30007  19.695   1.393  10.176
29143W        W30008  20.806   2.546  10.039
29144W        W30009  19.456   1.000  10.151
29145W        W30010  19.435   3.466   8.767
29146W        W30011  18.752   3.425  10.401
29147W        W30012  18.864   2.786   7.531
29148W        W30013  21.381   2.544   8.341
29149W        W30014  18.985   1.336  10.227
29150W        W30015  21.758   1.266   7.708
29151W        W30016  19.503   2.323   8.179
29152W        W30017  20.602   1.705  10.260
29153W        W30018  20.493   1.333   9.804
29154W        W30019  19.053   1.705   9.833
29155W        W30020  21.263   3.593   9.662
29156W        W30021  21.054   0.227  10.656
29157W        W30022  18.718   0.377  10.243
29158W        W30023  19.057   1.400   9.296
29159W        W30024  19.426   1.214   7.418
29160W        W30025  18.229   2.973   9.963
29161W        W30026  19.814   1.682   9.406
29162W        W30027  19.637   0.707   7.511
29163W        W30028  18.772   1.523   8.292
29164W        W30029  18.543   3.375   9.729
29165W        W30030  21.338   1.601   7.837
29166W        W30031  21.433   0.517  10.523
29167W        W30032  20.869   2.726   8.486
29168W        W30033  18.467   1.650  10.663
29169W        W30034  21.433   0.114   7.959
29170W        W30035  20.953   2.589   7.970
29171W        W30036  19.855   1.647   8.055
29172W        W30037  21.042   0.451   7.578
29173W        W30038  21.107   1.058   9.764
29174W        W30039  18.816   1.651   8.971
29175W        W30040  19.110   2.590   8.620
29176W        W30041  20.873   1.210   8.585
29177W        W30042  19.896   0.589   9.281
29178W        W30043  21.858   2.500   9.792
29179W        W30044  21.776   0.487   9.353
29180W        W30045  18.315   3.317   8.729
29181W        W30046  18.824   2.504   8.265
29182W        W30047  18.739   0.121  10.818
29183W        W30048  19.858   2.974  10.920
29184W        W30049  21.613   1.942   8.710
29185W        W30050  20.967   2.119   7.590
29186W        W30051  20.262   3.640   9.802
29187W        W30052  21.119   2.362  10.839
29188W        W30053  19.934   0.072   8.119
29189W        W30054  20.647   0.941   8.978
29190W        W30055  18.333   2.528   9.310
29191W        W30056  19.586   0.490   7.951
29192W        W30057  19.390   1.974  10.800
29193W        W30058  20.384   0.955   8.514
29194W        W30059  20.589   2.365   9.636
29195W        W30060  18.743   2.970  10.071
29196W        W30061  19.334   2.953  10.794
29197W        W30062  19.185   0.750   7.808
29198W        W30063  20.702   0.892   8.133
29199W        W30064  20.660   3.000  10.370
29200W        W30065  19.345   1.592   8.969
29201W        W30066  19.000   3.290   9.834
29202W        W30067  21.745   3.407   7.435
29203W        W30068  18.608   2.079  10.431
29204W        W30069  19.039   1.990   8.361
29205W        W30070  19.410   2.997   9.756
29206W        W30071  19.788   0.416   8.797
29207W        W30072  18.399   2.400   7.727
29208W        W30073  19.918   1.351   7.597
29209W        W30074  18.564   1.900   8.616
29210W        W30075  19.854   0.542  10.080
29211W        W30076  21.526   0.251   7.507
29212W        W30077  21.619   1.997  10.606
29213W        W30078  20.273   3.254  10.758
29214W        W30079  21.831   2.348  10.280
29215W        W30080  21.239   3.146  10.891
29216W        W30081  18.978   3.602   9.369
29217W        W30082  21.837   2.224   8.243
29218W        W30083  20.367   1.491   8.756
29219W        W30084  20.134   0.103   8.646
29220W        W30085  19.193   3.087   8.483
29221W        W30086  19.692   0.828   9.708
29222W        W30087  19.392   0.197   9.177
29223W        W30088  18.455   3.019   7.725
29224W        W30089  20.271   2.383   8.443
29225W        W30090  19.146   3.178  10.322
29226W        W30091  18.623   2.001   8.018
29227W        W30092  18.508   0.544   9.017
29228W        W30093  20.056   2.509   9.074
29229W        W30094  18.308   0.363   8.094
29230W        W30095  20.972   1.569  10.021
29231W        W30096  20.849   0.955   7.593
29232W        W30097  21.366   2.627   9.241
29233W        W30098  20.027   3.111   9.072
29234W        W30099  19.439   3.215   7.983
29235W        W30100  20.721   0.118   7.413
29236W        W30101  18.521   3.378   9.154
29237W        W30102  20.718   1.136  10.789
29238W        W30103  18.701   0.666  10.788
29239W        W30104  18.432   1.266   8.121
29240W        W30105  19.123   1.255   7.846
29241W        W30106  20.886   1.582  10.663
29242W        W30107  19.229   1.863   9.372
29243W        W30108  20.703   0.149   8.492
29244W        W30109  19.834   3.580   8.995
29245W        W30110  21.048   3.042   9.932
29246W        W30111  20.632   3.191   9.043
29247W        W30112  20.113   0.396   7.708
29248W        W30113  21.794   0.024   8.430
29249W        W30114  19.482   1.659   7.593
29250W        W30115  21.648   0.996   8.583
29251W        W30116  20.340   2.166   7.460
29252W        W30117  21.276   2.366  10.208
29253W        W30118  20.930   3.067   7.675
29254W        W30119  19.545   0.742  10.581
29255W        W30120  19.365   1.326   9.822
29256W        W30121  21.457   2.821  10.099
29257W        W30122  20.557   0.771  10.476
29258W        W30123  18.401   1.242  10.253
29259W        W30124  20.161   1.719   9.979
29260W        W30125  18.518   2.477   8.636
29261W        W30126  18.665   1.774   9.526
29262W        W30127  20.982   2.060   9.876
29263W        W30128  20.754   3.440  10.687
29264W        W30129  20.650   1.179  10.240
29265W        W30130  20.927   3.233   8.645
29266W        W30131  19.929   2.953   9.968
29267W        W30132  19.414   3.308   9.237
29268W        W30133  21.219   2.479   9.656
29269W        W30134  20.269   2.551  10.793
29270W        W30135  18.874   2.504   9.132
29271W        W30136  21.220   2.263   8.777
29272W        W30137  20.861   3.329   9.528
29273W        W30138  18.839   3.058   9.398
29274W        W30139  19.860   1.110  10.608
29275W        W30140  20.311   3.276   8.119
29276W        W30141  19.619   2.531  10.757
29277W        W30142  19.745   2.769   8.134
29278W        W30143  18.966   1.509   7.393
29279W        W30144  18.305   3.595  14.292
29280W        W30145  18.681   2.488  13.815
29281W        W30146  21.386   2.218  11.585
29282W        W30147  21.516   3.303  13.612
29283W        W30148  19.434   3.294  11.138
29284W        W30149  19.517   1.446  12.121
29285W        W30150  19.032   1.294  12.285
29286W        W30151  20.023   2.109  11.719
29287W        W30152  19.698   3.201  14.074
29288W        W30153  18.347   0.762  14.037
29289W        W30154  19.109   0.042  13.839
29290W        W30155  20.803   0.430  12.726
29291W        W30156  20.452   1.301  11.296
29292W        W30157  21.022   0.735  14.387
29293W        W30158  18.388   0.527  13.512
29294W        W30159  18.487   3.146  14.533
29295W        W30160  20.009   2.536  11.265
29296W        W30161  18.441   1.319  12.958
29297W        W30162  19.334   1.210  14.195
29298W        W30163  21.793   1.069  12.694
29299W        W30164  21.557   2.112  13.553
29300W        W30165  19.865   1.445  12.580
29301W        W30166  20.411   2.784  12.949
29302W        W30167  18.911   2.218  13.181
29303W        W30168  18.270   1.746  12.752
29304W        W30169  19.306   1.718  13.944
29305W        W30170  21.577   1.501  14.198
29306W        W30171  19.193   2.945  12.643
29307W        W30172  20.314   2.634  13.777
29308W        W30173  19.534   1.274  13.002
29309W        W30174  19.826   2.058  12.645
29310W        W30175  20.823   2.831  14.493
29311W        W30176  19.902   2.151  14.503
29312W        W30177  19.883   1.867  13.981
29313W        W30178  18.292   1.258  14.503
29314W        W30179  21.124   2.793  14.102
29315W        W30180  18.705   0.375  12.100
29316W        W30181  19.232   2.633  13.099
29317W        W30182  21.695   2.416  12.389
29318W        W30183  21.108   0.816  12.956
29319W        W30184  21.393   0.769  11.051
29320W        W30185  21.858   1.570  13.357
29321W        W30186  19.825   3.277  13.110
29322W        W30187  21.599   2.743  11.548
29323W        W30188  18.728   3.529  11.302
29324W        W30189  19.121   3.575  11.978
29325W        W30190  18.918   0.329  13.404
29326W        W30191  21.541   1.347  13.679
29327W        W30192  20.946   1.769  12.138
29328W        W30193  20.912   1.457  11.165
29329W        W30194  20.120   2.601  13.305
29330W        W30195  19.926   0.931  12.504
29331W        W30196  20.526   3.018  13.498
29332W        W30197  21.397   1.809  11.920
29333W        W30198  20.299   0.467  11.936
29334W        W30199  18.956   3.161  11.619
29335W        W30200  18.327   0.660  12.218
29336W        W30201  21.113   1.267  12.692
29337W        W30202  18.571   2.884  12.607
29338W        W30203  19.912   3.234  11.477
29339W        W30204  21.304   1.260  10.941
29340W        W30205  18.327   3.018  13.105
29341W        W30206  19.118   2.590  13.585
29342W        W30207  19.491   1.950  12.204
29343W        W30208  19.513   0.355  13.297
29344W        W30209  21.742   0.117  12.594
29345W        W30210  18.961   1.989  11.062
29346W        W30211  18.616   1.022  11.241
29347W        W30212  18.678   2.978  12.035
29348W        W30213  19.809   2.461  12.283
29349W        W30214  21.141   3.320  13.997
29350W        W30215  20.067   0.962  11.681
29351W        W30216  21.450   3.360  12.453
29352W        W30217  21.127   1.213  14.051
29353W        W30218  21.840   2.869  12.185
29354W        W30219  20.467   2.161  13.669
29355W        W30220  18.233   1.712  11.875
29356W        W30221  19.344   2.127  13.448
29357W        W30222  20.548   1.391  11.826
29358W        W30223  20.425   1.881  11.930
29359W        W30224  18.768   1.301  13.404
29360W        W30225  18.753   1.177  14.326
29361W        W30226  18.643   0.094  12.485
29362W        W30227  20.411   0.441  13.046
29363W        W30228  20.059   0.626  14.209
29364W        W30229  20.414   0.775  11.387
29365W        W30230  21.597   3.168  14.141
29366W        W30231  20.564   0.249  14.180
29367W        W30232  21.583   2.550  14.302
29368W        W30233  21.013   0.717  13.898
29369W        W30234  20.813   0.655  12.168
29370W        W30235  21.206   1.789  14.572
29371W        W30236  18.946   3.365  12.558
29372W        W30237  19.604   1.082  11.544
29373W        W30238  19.173   0.366  14.208
29374W        W30239  21.225   0.850  11.889
29375W        W30240  21.592   1.332  11.834
29376W        W30241  19.335   3.549  14.305
29377W        W30242  19.261   0.085  11.540
29378W        W30243  21.582   0.619  12.575
29379W        W30244  21.732   2.868  11.020
29380W        W30245  18.639   2.071  12.722
29381W        W30246  20.556   0.658  10.952
29382W        W30247  21.690   2.990  12.672
29383W        W30248  21.729   0.184  13.422
29384W        W30249  20.174   1.396  13.976
29385W        W30250  20.267   2.735  11.679
29386W        W30251  20.667   2.029  14.419
29387W        W30252  20.341   0.006  12.728
29388W        W30253  18.953   0.909  12.791
29389W        W30254  18.507   2.109  13.565
29390W        W30255  20.366   3.302  12.271
29391W        W30256  21.560   0.899  13.143
29392W        W30257  20.197   3.246  13.910
29393W        W30258  21.540   2.305  11.115
29394W        W30259  19.975   1.788  12.176
29395W        W30260  21.827   0.299  13.917
29396W        W30261  19.976   2.134  13.511
29397W        W30262  20.193   1.020  12.956
29398W        W30263  21.045   1.318  11.794
29399W        W30264  21.332   1.051  11.436
29400W        W30265  21.141   3.091  11.825
29401W        W30266  20.975   2.694  12.621
29402W        W30267  20.871   1.773  11.599
29403W        W30268  20.304   1.983  12.585
29404W        W30269  21.185   1.771  12.652
29405W        W30270  18.560   0.786  13.076
29406W        W30271  21.338   1.838  13.903
29407W        W30272  21.689   3.456  13.049
29408W        W30273  19.619   2.900  12.451
29409W        W30274  20.626   3.433  13.775
29410W        W30275  20.620   0.763  13.539
29411W        W30276  19.827   3.471  13.600
29412W        W30277  21.524   0.425  12.066
29413W        W30278  21.315   1.744  13.367
29414W        W30279  18.298   1.065  13.405
29415W        W30280  21.158   0.860  12.423
29416W        W30281  21.569   1.011  14.200
29417W        W30282  20.454   2.710  12.418
29418W        W30283  19.710   3.301  12.031
29419W        W30284  18.825   0.481  11.289
29420W        W30285  19.929   0.135  13.099
29421W        W30286  18.957   3.255  10.947
29422W        W30287  19.331   1.721  11.698
29423W        W30288  19.985   2.350  14.011
29424W        W30289  19.815   0.708  12.001
29425W        W30290  21.171   0.305  12.429
29426W        W30291  20.891   3.587  12.757
29427W        W30292  20.303   3.235  13.097
29428W        W30293  19.699   2.272  13.058
29429W        W30294  21.469   2.995  13.184
29430W        W30295  19.163   0.498  11.953
29431W        W30296  19.685   2.795  12.913
29432W        W30297  19.168   0.726  10.978
29433W        W30298  19.969   1.335  13.372
29434W        W30299  20.817   0.201  13.242
29435W        W30300  18.237   2.044  13.127
29436W        W30301  19.941   1.862  11.285
29437W        W30302  19.209   0.177  11.055
29438W        W30303  19.947   1.258  12.106
29439W        W30304  20.917   0.234  13.805
29440W        W30305  19.505   2.246  13.914
29441W        W30306  20.309   2.028  14.131
29442W        W30307  20.926   2.058  14.024
29443W        W30308  20.210   0.198  14.529
29444W        W30309  19.432   0.814  12.922
29445W        W30310  18.858   0.770  12.320
29446W        W30311  18.644   3.482  11.996
29447W        W30312  19.976   2.812  14.121
29448W        W30313  19.011   2.297  11.480
29449W        W30314  20.691   1.682  12.701
29450W        W30315  20.971   1.481  13.100
29451W        W30316  20.176   2.155  13.034
29452W        W30317  20.646   2.529  11.166
29453W        W30318  20.318   0.550  12.494
29454W        W30319  21.797   0.828  11.762
29455W        W30320  18.291   3.417  13.793
29456W        W30321  18.708   2.643  13.325
29457W        W30322  18.275   3.489  11.557
29458W        W30323  20.174   0.759  13.363
29459W        W30324  19.537   2.782  11.212
29460W        W30325  21.442   3.164  11.398
29461W        W30326  20.417   1.817  11.412
29462W        W30327  19.260   1.008  11.929
29463W        W30328  20.092   0.918  10.981
29464W        W30329  20.676   2.483  14.159
29465W        W30330  21.029   0.389  11.776
29466W        W30331  18.359   0.237  11.224
29467W        W30332  19.645   2.556  13.514
29468W        W30333  19.444   2.472  12.606
29469W        W30334  19.186   2.424  11.004
29470W        W30335  18.427   2.665  11.772
29471W        W30336  18.931   1.735  14.214
29472W        W30337  19.635   0.295  14.400
29473W        W30338  20.344   0.437  13.756
29474W        W30339  19.539   0.205  12.037
29475W        W30340  20.598   0.282  11.542
29476W        W30341  18.543   0.214  13.119
29477W        W30342  18.591   1.177  12.489
29478W        W30343  21.280   0.285  12.895
29479W        W30344  18.702   0.783  11.709
29480W        W30345  21.273   0.471  13.325
29481W        W30346  21.669   1.674  11.010
29482W        W30347  18.961   0.432  12.829
29483W        W30348  20.075   1.004  13.769
29484W        W30349  18.223   0.694  11.247
29485W        W30350  19.009   2.083  13.808
29486W        W30351  20.367   1.481  12.987
29487W        W30352  20.234   3.560  11.283
29488W        W30353  18.380   2.067  10.980
29489W        W30354  19.115   2.478  14.106
29490W        W30355  18.636   1.645  13.737
29491W        W30356  19.627   1.750  13.531
29492W        W30357  21.395   0.109  13.793
29493W        W30358  21.793   1.719  13.784
29494W        W30359  21.781   1.919  11.470
29495W        W30360  20.644   2.251  11.569
29496W        W30361  21.118   3.551  11.264
29497W        W30362  20.295   1.541  14.406
29498W        W30363  18.625   2.508  14.446
29499W        W30364  21.831   0.430  14.398
29500W        W30365  21.549   1.358  13.019
29501W        W30366  19.857   3.488  14.496
29502W        W30367  19.712   0.117  11.223
29503W        W30368  21.251   2.716  11.166
29504W        W30369  19.020   0.809  14.052
29505W        W30370  19.454   2.803  13.914
29506W        W30371  21.580   0.794  13.712
29507W        W30372  20.791   3.453  11.680
29508W        W30373  21.030   2.072  13.047
29509W        W30374  19.280   0.488  13.714
29510W        W30375  19.749   1.557  14.471
29511W        W30376  19.252   2.736  11.665
29512W        W30377  21.007   2.234  11.929
29513W        W30378  18.775   0.860  13.653
29514W        W30379  20.104   2.922  12.117
29515W        W30380  21.854   1.482  12.298
29516W        W30381  20.076   0.115  14.017
29517W        W30382  20.856   2.820  13.096
29518W        W30383  21.159   3.164  12.804
29519W        W30384  20.378   2.966  11.232
29520W        W30385  18.388   2.858  14.074
29521W        W30386  19.131   0.850  13.312
29522W        W30387  19.101   0.198  12.422
29523W        W30388  20.722   1.040  13.114
29524W        W30389  19.520   2.211  11.314
29525W        W30390  21.518   2.153  12.813
29526W        W30391  18.845   2.911  14.236
29527W        W30392  21.232   3.593  12.033
29528W        W30393  19.331   0.613  12.478
29529W        W30394  19.100   2.106  12.568
29530W        W30395  19.413   3.517  13.318
29531W        W30396  21.480   3.613  14.350
29532W        W30397  20.639   1.801  13.283
29533W        W30398  18.488   1.599  11.198
29534W        W30399  21.622   3.257  11.895
29535W        W30400  21.459   0.581  11.514
29536W        W30401  19.598   0.100  13.917
29537W        W30402  21.304   2.902  12.375
29538W        W30403  21.333   1.458  12.280
29539W        W30404  19.450   1.131  12.496
29540W        W30405  19.695   1.393  13.820
29541W        W30406  20.806   2.546  13.683
29542W        W30407  19.456   1.000  13.795
29543W        W30408  19.435   3.466  12.411
29544W        W30409  18.752   3.425  14.045
29545W        W30410  18.864   2.786  11.175
29546W        W30411  21.381   2.544  11.985
29547W        W30412  18.985   1.336  13.871
29548W        W30413  21.758   1.266  11.352
29549W        W30414  19.503   2.323  11.823
29550W        W30415  20.602   1.705  13.904
29551W        W30416  20.493   1.333  13.448
29552W        W30417  19.053   1.705  13.477
29553W        W30418  21.263   3.593  13.306
29554W        W30419  21.054   0.227  14.300
29555W        W30420  18.718   0.377  13.887
29556W        W30421  19.057   1.400  12.940
29557W        W30422  19.426   1.214  11.062
29558W        W30423  18.229   2.973  13.607
29559W        W30424  19.814   1.682  13.050
29560W        W30425  19.637   0.707  11.155
29561W        W30426  18.772   1.523  11.936
29562W        W30427  18.543   3.375  13.373
29563W        W30428  21.338   1.601  11.481
29564W        W30429  21.433   0.517  14.167
29565W        W30430  20.869   2.726  12.130
29566W        W30431  18.467   1.650  14.307
29567W        W30432  21.433   0.114  11.603
29568W        W30433  20.953   2.589  11.614
29569W        W30434  19.855   1.647  11.699
29570W        W30435  21.042   0.451  11.222
29571W        W30436  21.107   1.058  13.408
29572W        W30437  18.816   1.651  12.615
29573W        W30438  19.110   2.590  12.264
29574W        W30439  20.873   1.210  12.229
29575W        W30440  19.896   0.589  12.925
29576W        W30441  21.858   2.500  13.436
29577W        W30442  21.776   0.487  12.997
29578W        W30443  18.315   3.317  12.373
29579W        W30444  18.824   2.504  11.909
29580W        W30445  18.739   0.121  14.462
29581W        W30446  19.858   2.974  14.564
29582W        W30447  21.613   1.942  12.354
29583W        W30448  20.967   2.119  11.234
29584W        W30449  20.262   3.640  13.446
29585W        W30450  21.119   2.362  14.483
29586W        W30451  19.934   0.072  11.763
29587W        W30452  20.647   0.941  12.622
29588W        W30453  18.333   2.528  12.954
29589W        W30454  19.586   0.490  11.595
29590W        W30455  19.390   1.974  14.444
29591W        W30456  20.384   0.955  12.158
29592W        W30457  20.589   2.365  13.280
29593W        W30458  18.743   2.970  13.715
29594W        W30459  19.334   2.953  14.438
29595W        W30460  19.185   0.750  11.452
29596W        W30461  20.702   0.892  11.777
29597W        W30462  20.660   3.000  14.014
29598W        W30463  19.345   1.592  12.613
29599W        W30464  19.000   3.290  13.478
29600W        W30465  21.745   3.407  11.079
29601W        W30466  18.608   2.079  14.075
29602W        W30467  20.603   2.341  12.763
29603W        W30468  19.039   1.990  12.005
29604W        W30469  19.410   2.997  13.400
29605W        W30470  19.788   0.416  12.441
29606W        W30471  18.399   2.400  11.371
29607W        W30472  19.918   1.351  11.241
29608W        W30473  18.564   1.900  12.260
29609W        W30474  19.854   0.542  13.724
29610W        W30475  21.526   0.251  11.151
29611W        W30476  21.619   1.997  14.250
29612W        W30477  20.273   3.254  14.402
29613W        W30478  21.831   2.348  13.924
29614W        W30479  21.239   3.146  14.535
29615W        W30480  18.978   3.602  13.013
29616W        W30481  21.837   2.224  11.887
29617W        W30482  20.367   1.491  12.400
29618W        W30483  20.134   0.103  12.290
29619W        W30484  19.193   3.087  12.127
29620W        W30485  19.692   0.828  13.352
29621W        W30486  19.392   0.197  12.821
29622W        W30487  18.455   3.019  11.369
29623W        W30488  20.271   2.383  12.087
29624W        W30489  19.146   3.178  13.966
29625W        W30490  18.623   2.001  11.662
29626W        W30491  18.508   0.544  12.661
29627W        W30492  20.056   2.509  12.718
29628W        W30493  18.308   0.363  11.738
29629W        W30494  20.972   1.569  13.665
29630W        W30495  20.849   0.955  11.237
29631W        W30496  21.366   2.627  12.885
29632W        W30497  20.027   3.111  12.716
29633W        W30498  19.439   3.215  11.627
29634W        W30499  20.721   0.118  11.057
29635W        W30500  18.521   3.378  12.798
29636W        W30501  20.718   1.136  14.433
29637W        W30502  18.701   0.666  14.432
29638W        W30503  18.432   1.266  11.765
29639W        W30504  19.123   1.255  11.490
29640W        W30505  20.886   1.582  14.307
29641W        W30506  19.229   1.863  13.016
29642W        W30507  20.703   0.149  12.136
29643W        W30508  19.834   3.580  12.639
29644W        W30509  21.048   3.042  13.576
29645W        W30510  20.632   3.191  12.687
29646W        W30511  20.651   2.171  12.281
29647W        W30512  20.113   0.396  11.352
29648W        W30513  21.794   0.024  12.074
29649W        W30514  19.482   1.659  11.237
29650W        W30515  21.648   0.996  12.227
29651W        W30516  20.340   2.166  11.104
29652W        W30517  21.276   2.366  13.852
29653W        W30518  20.930   3.067  11.319
29654W        W30519  19.545   0.742  14.225
29655W        W30520  19.365   1.326  13.466
29656W        W30521  21.457   2.821  13.743
29657W        W30522  20.557   0.771  14.120
29658W        W30523  18.401   1.242  13.897
29659W        W30524  20.161   1.719  13.623
29660W        W30525  18.518   2.477  12.280
29661W        W30526  18.665   1.774  13.170
29662W        W30527  20.982   2.060  13.520
29663W        W30528  20.754   3.440  14.331
29664W        W30529  20.650   1.179  13.884
29665W        W30530  20.927   3.233  12.289
29666W        W30531  19.929   2.953  13.612
29667W        W30532  19.414   3.308  12.881
29668W        W30533  21.219   2.479  13.300
29669W        W30534  20.269   2.551  14.437
29670W        W30535  18.874   2.504  12.776
29671W        W30536  21.220   2.263  12.421
29672W        W30537  20.861   3.329  13.172
29673W        W30538  18.839   3.058  13.042
29674W        W30539  19.860   1.110  14.252
29675W        W30540  20.311   3.276  11.763
29676W        W30541  19.619   2.531  14.401
29677W        W30542  19.745   2.769  11.778
29678W        W30543  18.966   1.509  11.037
29679W        W30544  18.305   3.595  17.936
29680W        W30545  18.681   2.488  17.459
29681W        W30546  21.386   2.218  15.229
29682W        W30547  21.516   3.303  17.256
29683W        W30548  19.434   3.294  14.782
29684W        W30549  19.517   1.446  15.765
29685W        W30550  19.032   1.294  15.929
29686W        W30551  20.023   2.109  15.363
29687W        W30552  19.698   3.201  17.718
29688W        W30553  18.347   0.762  17.681
29689W        W30554  19.109   0.042  17.483
29690W        W30555  20.803   0.430  16.370
29691W        W30556  20.452   1.301  14.940
29692W        W30557  21.022   0.735  18.031
29693W        W30558  18.388   0.527  17.156
29694W        W30559  18.487   3.146  18.177
29695W        W30560  20.009   2.536  14.909
29696W        W30561  18.441   1.319  16.602
29697W        W30562  19.334   1.210  17.839
29698W        W30563  21.793   1.069  16.338
29699W        W30564  21.557   2.112  17.197
29700W        W30565  19.865   1.445  16.224
29701W        W30566  20.411   2.784  16.593
29702W        W30567  18.911   2.218  16.825
29703W        W30568  18.270   1.746  16.396
29704W        W30569  19.306   1.718  17.588
29705W        W30570  21.577   1.501  17.842
29706W        W30571  19.193   2.945  16.287
29707W        W30572  20.314   2.634  17.421
29708W        W30573  19.534   1.274  16.646
29709W        W30574  19.826   2.058  16.289
29710W        W30575  20.823   2.831  18.137
29711W        W30576  19.902   2.151  18.147
29712W        W30577  19.883   1.867  17.625
29713W        W30578  18.292   1.258  18.147
29714W        W30579  21.124   2.793  17.746
29715W        W30580  18.705   0.375  15.744
29716W        W30581  19.232   2.633  16.743
29717W        W30582  21.695   2.416  16.033
29718W        W30583  21.108   0.816  16.600
29719W        W30584  21.393   0.769  14.695
29720W        W30585  21.858   1.570  17.001
29721W        W30586  19.825   3.277  16.754
29722W        W30587  21.599   2.743  15.192
29723W        W30588  18.728   3.529  14.946
29724W        W30589  19.121   3.575  15.622
29725W        W30590  18.918   0.329  17.048
29726W        W30591  21.541   1.347  17.323
29727W        W30592  20.946   1.769  15.782
29728W        W30593  20.912   1.457  14.809
29729W        W30594  20.120   2.601  16.949
29730W        W30595  19.926   0.931  16.148
29731W        W30596  20.526   3.018  17.142
29732W        W30597  21.397   1.809  15.564
29733W        W30598  20.299   0.467  15.580
29734W        W30599  18.956   3.161  15.263
29735W        W30600  18.327   0.660  15.862
29736W        W30601  21.113   1.267  16.336
29737W        W30602  18.571   2.884  16.251
29738W        W30603  19.912   3.234  15.121
29739W        W30604  21.304   1.260  14.585
29740W        W30605  18.327   3.018  16.749
29741W        W30606  19.118   2.590  17.229
29742W        W30607  19.491   1.950  15.848
29743W        W30608  19.513   0.355  16.941
29744W        W30609  21.742   0.117  16.238
29745W        W30610  18.961   1.989  14.706
29746W        W30611  18.616   1.022  14.885
29747W        W30612  18.678   2.978  15.679
29748W        W30613  19.809   2.461  15.927
29749W        W30614  21.141   3.320  17.641
29750W        W30615  20.067   0.962  15.325
29751W        W30616  21.450   3.360  16.097
29752W        W30617  21.127   1.213  17.695
29753W        W30618  21.840   2.869  15.829
29754W        W30619  20.467   2.161  17.313
29755W        W30620  18.233   1.712  15.519
29756W        W30621  19.344   2.127  17.092
29757W        W30622  20.548   1.391  15.470
29758W        W30623  20.425   1.881  15.574
29759W        W30624  18.768   1.301  17.048
29760W        W30625  18.753   1.177  17.970
29761W        W30626  18.643   0.094  16.129
29762W        W30627  20.411   0.441  16.690
29763W        W30628  20.059   0.626  17.853
29764W        W30629  20.414   0.775  15.031
29765W        W30630  21.597   3.168  17.785
29766W        W30631  20.564   0.249  17.824
29767W        W30632  21.583   2.550  17.946
29768W        W30633  21.013   0.717  17.542
29769W        W30634  20.813   0.655  15.812
29770W        W30635  21.206   1.789  18.216
29771W        W30636  18.946   3.365  16.202
29772W        W30637  19.604   1.082  15.188
29773W        W30638  19.173   0.366  17.852
29774W        W30639  21.225   0.850  15.533
29775W        W30640  21.592   1.332  15.478
29776W        W30641  19.335   3.549  17.949
29777W        W30642  19.261   0.085  15.184
29778W        W30643  21.582   0.619  16.219
29779W        W30644  21.732   2.868  14.664
29780W        W30645  18.639   2.071  16.366
29781W        W30646  20.556   0.658  14.596
29782W        W30647  21.690   2.990  16.316
29783W        W30648  21.729   0.184  17.066
29784W        W30649  20.174   1.396  17.620
29785W        W30650  20.267   2.735  15.323
29786W        W30651  20.667   2.029  18.063
29787W        W30652  20.341   0.006  16.372
29788W        W30653  18.953   0.909  16.435
29789W        W30654  18.507   2.109  17.209
29790W        W30655  20.366   3.302  15.915
29791W        W30656  21.560   0.899  16.787
29792W        W30657  20.197   3.246  17.554
29793W        W30658  21.540   2.305  14.759
29794W        W30659  19.975   1.788  15.820
29795W        W30660  21.827   0.299  17.561
29796W        W30661  19.976   2.134  17.155
29797W        W30662  20.193   1.020  16.600
29798W        W30663  21.045   1.318  15.438
29799W        W30664  21.332   1.051  15.080
29800W        W30665  21.141   3.091  15.469
29801W        W30666  20.975   2.694  16.265
29802W        W30667  20.871   1.773  15.243
29803W        W30668  20.304   1.983  16.229
29804W        W30669  21.185   1.771  16.296
29805W        W30670  18.560   0.786  16.720
29806W        W30671  21.338   1.838  17.547
29807W        W30672  21.689   3.456  16.693
29808W        W30673  19.619   2.900  16.095
29809W        W30674  20.626   3.433  17.419
29810W        W30675  20.620   0.763  17.183
29811W        W30676  19.827   3.471  17.244
29812W        W30677  21.524   0.425  15.710
29813W        W30678  21.315   1.744  17.011
29814W        W30679  18.298   1.065  17.049
29815W        W30680  21.158   0.860  16.067
29816W        W30681  21.569   1.011  17.844
29817W        W30682  20.454   2.710  16.062
29818W        W30683  19.710   3.301  15.675
29819W        W30684  18.825   0.481  14.933
29820W        W30685  19.929   0.135  16.743
29821W        W30686  18.957   3.255  14.591
29822W        W30687  19.331   1.721  15.342
29823W        W30688  19.985   2.350  17.655
29824W        W30689  19.815   0.708  15.645
29825W        W30690  21.171   0.305  16.073
29826W        W30691  20.891   3.587  16.401
29827W        W30692  20.303   3.235  16.741
29828W        W30693  19.699   2.272  16.702
29829W        W30694  21.469   2.995  16.828
29830W        W30695  19.163   0.498  15.597
29831W        W30696  19.685   2.795  16.557
29832W        W30697  19.168   0.726  14.622
29833W        W30698  19.969   1.335  17.016
29834W        W30699  20.817   0.201  16.886
29835W        W30700  18.237   2.044  16.771
29836W        W30701  19.941   1.862  14.929
29837W        W30702  19.209   0.177  14.699
29838W        W30703  19.947   1.258  15.750
29839W        W30704  20.917   0.234  17.449
29840W        W30705  19.505   2.246  17.558
29841W        W30706  20.309   2.028  17.775
29842W        W30707  20.926   2.058  17.668
29843W        W30708  20.210   0.198  18.173
29844W        W30709  19.432   0.814  16.566
29845W        W30710  18.858   0.770  15.964
29846W        W30711  18.644   3.482  15.640
29847W        W30712  19.976   2.812  17.765
29848W        W30713  19.011   2.297  15.124
29849W        W30714  20.691   1.682  16.345
29850W        W30715  20.971   1.481  16.744
29851W        W30716  20.176   2.155  16.678
29852W        W30717  20.646   2.529  14.810
29853W        W30718  20.318   0.550  16.138
29854W        W30719  21.797   0.828  15.406
29855W        W30720  18.291   3.417  17.437
29856W        W30721  18.708   2.643  16.969
29857W        W30722  20.174   0.759  17.007
29858W        W30723  19.537   2.782  14.856
29859W        W30724  21.442   3.164  15.042
29860W        W30725  20.417   1.817  15.056
29861W        W30726  19.260   1.008  15.573
29862W        W30727  20.092   0.918  14.625
29863W        W30728  20.676   2.483  17.803
29864W        W30729  21.029   0.389  15.420
29865W        W30730  18.359   0.237  14.868
29866W        W30731  19.645   2.556  17.158
29867W        W30732  19.444   2.472  16.250
29868W        W30733  19.186   2.424  14.648
29869W        W30734  18.427   2.665  15.416
29870W        W30735  18.931   1.735  17.858
29871W        W30736  19.635   0.295  18.044
29872W        W30737  20.344   0.437  17.400
29873W        W30738  19.539   0.205  15.681
29874W        W30739  20.598   0.282  15.186
29875W        W30740  18.543   0.214  16.763
29876W        W30741  18.591   1.177  16.133
29877W        W30742  21.280   0.285  16.539
29878W        W30743  18.702   0.783  15.353
29879W        W30744  21.273   0.471  16.969
29880W        W30745  21.669   1.674  14.654
29881W        W30746  20.075   1.004  17.413
29882W        W30747  18.223   0.694  14.891
29883W        W30748  19.009   2.083  17.452
29884W        W30749  20.367   1.481  16.631
29885W        W30750  20.234   3.560  14.927
29886W        W30751  18.380   2.067  14.624
29887W        W30752  19.115   2.478  17.750
29888W        W30753  18.636   1.645  17.381
29889W        W30754  19.627   1.750  17.175
29890W        W30755  21.395   0.109  17.437
29891W        W30756  21.793   1.719  17.428
29892W        W30757  21.781   1.919  15.114
29893W        W30758  20.644   2.251  15.213
29894W        W30759  21.118   3.551  14.908
29895W        W30760  20.295   1.541  18.050
29896W        W30761  18.625   2.508  18.090
29897W        W30762  21.831   0.430  18.042
29898W        W30763  21.549   1.358  16.663
29899W        W30764  19.857   3.488  18.140
29900W        W30765  19.712   0.117  14.867
29901W        W30766  21.251   2.716  14.810
29902W        W30767  19.020   0.809  17.696
29903W        W30768  19.454   2.803  17.558
29904W        W30769  21.580   0.794  17.356
29905W        W30770  20.791   3.453  15.324
29906W        W30771  21.030   2.072  16.691
29907W        W30772  19.280   0.488  17.358
29908W        W30773  19.749   1.557  18.115
29909W        W30774  19.252   2.736  15.309
29910W        W30775  21.007   2.234  15.573
29911W        W30776  18.775   0.860  17.297
29912W        W30777  20.104   2.922  15.761
29913W        W30778  21.854   1.482  15.942
29914W        W30779  20.076   0.115  17.661
29915W        W30780  20.856   2.820  16.740
29916W        W30781  21.159   3.164  16.448
29917W        W30782  20.378   2.966  14.876
29918W        W30783  18.388   2.858  17.718
29919W        W30784  19.131   0.850  16.956
29920W        W30785  19.101   0.198  16.066
29921W        W30786  20.722   1.040  16.758
29922W        W30787  19.520   2.211  14.958
29923W        W30788  21.518   2.153  16.457
29924W        W30789  18.845   2.911  17.880
29925W        W30790  21.232   3.593  15.677
29926W        W30791  19.331   0.613  16.122
29927W        W30792  19.100   2.106  16.212
29928W        W30793  19.413   3.517  16.962
29929W        W30794  21.480   3.613  17.994
29930W        W30795  20.639   1.801  16.927
29931W        W30796  18.488   1.599  14.842
29932W        W30797  21.622   3.257  15.539
29933W        W30798  21.459   0.581  15.158
29934W        W30799  19.598   0.100  17.561
29935W        W30800  21.304   2.902  16.019
29936W        W30801  21.333   1.458  15.924
29937W        W30802  19.450   1.131  16.140
29938W        W30803  19.695   1.393  17.464
29939W        W30804  20.806   2.546  17.327
29940W        W30805  19.456   1.000  17.439
29941W        W30806  19.435   3.466  16.055
29942W        W30807  18.752   3.425  17.689
29943W        W30808  18.864   2.786  14.819
29944W        W30809  21.381   2.544  15.629
29945W        W30810  18.985   1.336  17.515
29946W        W30811  21.758   1.266  14.996
29947W        W30812  19.503   2.323  15.467
29948W        W30813  20.602   1.705  17.548
29949W        W30814  20.493   1.333  17.092
29950W        W30815  19.053   1.705  17.121
29951W        W30816  21.263   3.593  16.950
29952W        W30817  21.054   0.227  17.944
29953W        W30818  18.718   0.377  17.531
29954W        W30819  19.057   1.400  16.584
29955W        W30820  19.426   1.214  14.706
29956W        W30821  18.229   2.973  17.251
29957W        W30822  19.814   1.682  16.694
29958W        W30823  19.637   0.707  14.799
29959W        W30824  18.772   1.523  15.580
29960W        W30825  18.543   3.375  17.017
29961W        W30826  21.338   1.601  15.125
29962W        W30827  21.433   0.517  17.811
29963W        W30828  20.869   2.726  15.774
29964W        W30829  18.467   1.650  17.951
29965W        W30830  21.433   0.114  15.247
29966W        W30831  20.953   2.589  15.258
29967W        W30832  19.855   1.647  15.343
29968W        W30833  21.042   0.451  14.866
29969W        W30834  21.107   1.058  17.052
29970W        W30835  18.816   1.651  16.259
29971W        W30836  19.110   2.590  15.908
29972W        W30837  20.873   1.210  15.873
29973W        W30838  19.896   0.589  16.569
29974W        W30839  21.858   2.500  17.080
29975W        W30840  21.776   0.487  16.641
29976W        W30841  18.315   3.317  16.017
29977W        W30842  18.824   2.504  15.553
29978W        W30843  18.739   0.121  18.106
29979W        W30844  19.858   2.974  18.208
29980W        W30845  21.613   1.942  15.998
29981W        W30846  20.967   2.119  14.878
29982W        W30847  20.262   3.640  17.090
29983W        W30848  21.119   2.362  18.127
29984W        W30849  19.934   0.072  15.407
29985W        W30850  20.647   0.941  16.266
29986W        W30851  18.333   2.528  16.598
29987W        W30852  19.586   0.490  15.239
29988W        W30853  19.390   1.974  18.088
29989W        W30854  20.384   0.955  15.802
29990W        W30855  20.589   2.365  16.924
29991W        W30856  18.743   2.970  17.359
29992W        W30857  19.334   2.953  18.082
29993W        W30858  19.185   0.750  15.096
29994W        W30859  20.702   0.892  15.421
29995W        W30860  20.660   3.000  17.658
29996W        W30861  19.345   1.592  16.257
29997W        W30862  19.000   3.290  17.122
29998W        W30863  21.745   3.407  14.723
29999W        W30864  18.608   2.079  17.719
30000W        W30865  20.603   2.341  16.407
30001W        W30866  19.039   1.990  15.649
30002W        W30867  19.410   2.997  17.044
30003W        W30868  19.788   0.416  16.085
30004W        W30869  18.399   2.400  15.015
30005W        W30870  19.918   1.351  14.885
30006W        W30871  18.564   1.900  15.904
30007W        W30872  19.854   0.542  17.368
30008W        W30873  21.526   0.251  14.795
30009W        W30874  21.619   1.997  17.894
30010W        W30875  20.273   3.254  18.046
30011W        W30876  21.831   2.348  17.568
30012W        W30877  21.239   3.146  18.179
30013W        W30878  18.978   3.602  16.657
30014W        W30879  21.837   2.224  15.531
30015W        W30880  20.367   1.491  16.044
30016W        W30881  20.134   0.103  15.934
30017W        W30882  19.193   3.087  15.771
30018W        W30883  19.692   0.828  16.996
30019W        W30884  19.392   0.197  16.465
30020W        W30885  18.455   3.019  15.013
30021W        W30886  20.271   2.383  15.731
30022W        W30887  19.146   3.178  17.610
30023W        W30888  18.623   2.001  15.306
30024W        W30889  18.508   0.544  16.305
30025W        W30890  20.056   2.509  16.362
30026W        W30891  18.308   0.363  15.382
30027W        W30892  20.972   1.569  17.309
30028W        W30893  20.849   0.955  14.881
30029W        W30894  21.366   2.627  16.529
30030W        W30895  20.027   3.111  16.360
30031W        W30896  19.439   3.215  15.271
30032W        W30897  20.721   0.118  14.701
30033W        W30898  18.521   3.378  16.442
30034W        W30899  20.718   1.136  18.077
30035W        W30900  18.701   0.666  18.076
30036W        W30901  18.432   1.266  15.409
30037W        W30902  19.123   1.255  15.134
30038W        W30903  20.886   1.582  17.951
30039W        W30904  19.229   1.863  16.660
30040W        W30905  20.703   0.149  15.780
30041W        W30906  19.834   3.580  16.283
30042W        W30907  21.048   3.042  17.220
30043W        W30908  20.632   3.191  16.331
30044W        W30909  20.651   2.171  15.925
30045W        W30910  20.113   0.396  14.996
30046W        W30911  21.794   0.024  15.718
30047W        W30912  19.482   1.659  14.881
30048W        W30913  21.648   0.996  15.871
30049W        W30914  20.340   2.166  14.748
30050W        W30915  21.276   2.366  17.496
30051W        W30916  20.930   3.067  14.963
30052W        W30917  19.545   0.742  17.869
30053W        W30918  19.365   1.326  17.110
30054W        W30919  21.457   2.821  17.387
30055W        W30920  20.557   0.771  17.764
30056W        W30921  18.401   1.242  17.541
30057W        W30922  20.161   1.719  17.267
30058W        W30923  18.518   2.477  15.924
30059W        W30924  18.665   1.774  16.814
30060W        W30925  20.982   2.060  17.164
30061W        W30926  20.754   3.440  17.975
30062W        W30927  20.650   1.179  17.528
30063W        W30928  20.927   3.233  15.933
30064W        W30929  19.929   2.953  17.256
30065W        W30930  19.414   3.308  16.525
30066W        W30931  21.219   2.479  16.944
30067W        W30932  20.269   2.551  18.081
30068W        W30933  18.874   2.504  16.420
30069W        W30934  21.220   2.263  16.065
30070W        W30935  20.861   3.329  16.816
30071W        W30936  18.839   3.058  16.686
30072W        W30937  19.860   1.110  17.896
30073W        W30938  20.311   3.276  15.407
30074W        W30939  19.619   2.531  18.045
30075W        W30940  19.745   2.769  15.422
30076W        W30941  18.966   1.509  14.681
30077W        W30942  18.305   3.595  21.580
30078W        W30943  18.681   2.488  21.103
30079W        W30944  21.386   2.218  18.873
30080W        W30945  21.516   3.303  20.900
30081W        W30946  19.434   3.294  18.426
30082W        W30947  19.517   1.446  19.409
30083W        W30948  19.032   1.294  19.573
30084W        W30949  20.023   2.109  19.007
30085W        W30950  19.698   3.201  21.362
30086W        W30951  18.347   0.762  21.325
30087W        W30952  19.109   0.042  21.127
30088W        W30953  20.803   0.430  20.014
30089W        W30954  20.452   1.301  18.584
30090W        W30955  21.022   0.735  21.675
30091W        W30956  18.388   0.527  20.800
30092W        W30957  18.487   3.146  21.821
30093W        W30958  20.009   2.536  18.553
30094W        W30959  18.441   1.319  20.246
30095W        W30960  19.334   1.210  21.483
30096W        W30961  21.793   1.069  19.982
30097W        W30962  21.557   2.112  20.841
30098W        W30963  19.865   1.445  19.868
30099W        W30964  20.411   2.784  20.237
30100W        W30965  18.911   2.218  20.469
30101W        W30966  18.270   1.746  20.040
30102W        W30967  19.306   1.718  21.232
30103W        W30968  21.577   1.501  21.486
30104W        W30969  19.193   2.945  19.931
30105W        W30970  20.314   2.634  21.065
30106W        W30971  19.534   1.274  20.290
30107W        W30972  19.826   2.058  19.933
30108W        W30973  20.823   2.831  21.781
30109W        W30974  19.902   2.151  21.791
30110W        W30975  19.883   1.867  21.269
30111W        W30976  18.292   1.258  21.791
30112W        W30977  21.124   2.793  21.390
30113W        W30978  18.705   0.375  19.388
30114W        W30979  19.232   2.633  20.387
30115W        W30980  21.695   2.416  19.677
30116W        W30981  21.108   0.816  20.244
30117W        W30982  21.393   0.769  18.339
30118W        W30983  21.858   1.570  20.645
30119W        W30984  19.825   3.277  20.398
30120W        W30985  21.599   2.743  18.836
30121W        W30986  18.728   3.529  18.590
30122W        W30987  19.121   3.575  19.266
30123W        W30988  18.918   0.329  20.692
30124W        W30989  21.541   1.347  20.967
30125W        W30990  20.946   1.769  19.426
30126W        W30991  20.912   1.457  18.453
30127W        W30992  20.120   2.601  20.593
30128W        W30993  19.926   0.931  19.792
30129W        W30994  20.526   3.018  20.786
30130W        W30995  21.397   1.809  19.208
30131W        W30996  20.299   0.467  19.224
30132W        W30997  18.956   3.161  18.907
30133W        W30998  18.327   0.660  19.506
30134W        W30999  21.113   1.267  19.980
30135W        W31000  18.571   2.884  19.895
30136W        W31001  19.912   3.234  18.765
30137W        W31002  21.304   1.260  18.229
30138W        W31003  18.327   3.018  20.393
30139W        W31004  19.118   2.590  20.873
30140W        W31005  19.491   1.950  19.492
30141W        W31006  19.513   0.355  20.585
30142W        W31007  21.742   0.117  19.882
30143W        W31008  18.961   1.989  18.350
30144W        W31009  18.616   1.022  18.529
30145W        W31010  18.678   2.978  19.323
30146W        W31011  19.809   2.461  19.571
30147W        W31012  21.141   3.320  21.285
30148W        W31013  20.067   0.962  18.969
30149W        W31014  21.450   3.360  19.741
30150W        W31015  21.127   1.213  21.339
30151W        W31016  21.840   2.869  19.473
30152W        W31017  20.467   2.161  20.957
30153W        W31018  18.233   1.712  19.163
30154W        W31019  19.344   2.127  20.736
30155W        W31020  20.548   1.391  19.114
30156W        W31021  20.425   1.881  19.218
30157W        W31022  18.768   1.301  20.692
30158W        W31023  18.753   1.177  21.614
30159W        W31024  18.643   0.094  19.773
30160W        W31025  20.411   0.441  20.334
30161W        W31026  20.059   0.626  21.497
30162W        W31027  20.414   0.775  18.675
30163W        W31028  21.597   3.168  21.429
30164W        W31029  20.564   0.249  21.468
30165W        W31030  21.583   2.550  21.590
30166W        W31031  21.013   0.717  21.186
30167W        W31032  20.813   0.655  19.456
30168W        W31033  21.206   1.789  21.860
30169W        W31034  18.946   3.365  19.846
30170W        W31035  19.604   1.082  18.832
30171W        W31036  19.173   0.366  21.496
30172W        W31037  21.225   0.850  19.177
30173W        W31038  21.592   1.332  19.122
30174W        W31039  19.335   3.549  21.593
30175W        W31040  19.261   0.085  18.828
30176W        W31041  21.582   0.619  19.863
30177W        W31042  21.732   2.868  18.308
30178W        W31043  18.639   2.071  20.010
30179W        W31044  20.556   0.658  18.240
30180W        W31045  21.690   2.990  19.960
30181W        W31046  21.729   0.184  20.710
30182W        W31047  20.174   1.396  21.264
30183W        W31048  20.267   2.735  18.967
30184W        W31049  20.667   2.029  21.707
30185W        W31050  20.341   0.006  20.016
30186W        W31051  18.953   0.909  20.079
30187W        W31052  18.507   2.109  20.853
30188W        W31053  20.366   3.302  19.559
30189W        W31054  21.560   0.899  20.431
30190W        W31055  20.197   3.246  21.198
30191W        W31056  21.540   2.305  18.403
30192W        W31057  19.975   1.788  19.464
30193W        W31058  21.827   0.299  21.205
30194W        W31059  19.976   2.134  20.799
30195W        W31060  20.193   1.020  20.244
30196W        W31061  21.045   1.318  19.082
30197W        W31062  21.332   1.051  18.724
30198W        W31063  21.141   3.091  19.113
30199W        W31064  20.975   2.694  19.909
30200W        W31065  20.871   1.773  18.887
30201W        W31066  20.304   1.983  19.873
30202W        W31067  21.185   1.771  19.940
30203W        W31068  18.560   0.786  20.364
30204W        W31069  21.338   1.838  21.191
30205W        W31070  21.689   3.456  20.337
30206W        W31071  19.619   2.900  19.739
30207W        W31072  20.626   3.433  21.063
30208W        W31073  20.620   0.763  20.827
30209W        W31074  19.827   3.471  20.888
30210W        W31075  21.524   0.425  19.354
30211W        W31076  21.315   1.744  20.655
30212W        W31077  18.298   1.065  20.693
30213W        W31078  21.158   0.860  19.711
30214W        W31079  21.569   1.011  21.488
30215W        W31080  20.454   2.710  19.706
30216W        W31081  19.710   3.301  19.319
30217W        W31082  18.825   0.481  18.577
30218W        W31083  19.929   0.135  20.387
30219W        W31084  18.957   3.255  18.235
30220W        W31085  19.331   1.721  18.986
30221W        W31086  19.985   2.350  21.299
30222W        W31087  19.815   0.708  19.289
30223W        W31088  21.171   0.305  19.717
30224W        W31089  20.891   3.587  20.045
30225W        W31090  20.303   3.235  20.385
30226W        W31091  19.699   2.272  20.346
30227W        W31092  21.469   2.995  20.472
30228W        W31093  19.163   0.498  19.241
30229W        W31094  19.685   2.795  20.201
30230W        W31095  19.168   0.726  18.266
30231W        W31096  19.969   1.335  20.660
30232W        W31097  20.817   0.201  20.530
30233W        W31098  18.237   2.044  20.415
30234W        W31099  19.941   1.862  18.573
30235W        W31100  19.209   0.177  18.343
30236W        W31101  19.947   1.258  19.394
30237W        W31102  20.917   0.234  21.093
30238W        W31103  19.505   2.246  21.202
30239W        W31104  20.309   2.028  21.419
30240W        W31105  20.926   2.058  21.312
30241W        W31106  20.210   0.198  21.817
30242W        W31107  19.432   0.814  20.210
30243W        W31108  18.858   0.770  19.608
30244W        W31109  18.644   3.482  19.284
30245W        W31110  19.976   2.812  21.409
30246W        W31111  19.011   2.297  18.768
30247W        W31112  20.691   1.682  19.989
30248W        W31113  20.971   1.481  20.388
30249W        W31114  20.176   2.155  20.322
30250W        W31115  20.646   2.529  18.454
30251W        W31116  20.318   0.550  19.782
30252W        W31117  21.797   0.828  19.050
30253W        W31118  18.291   3.417  21.081
30254W        W31119  18.708   2.643  20.613
30255W        W31120  18.275   3.489  18.845
30256W        W31121  20.174   0.759  20.651
30257W        W31122  19.537   2.782  18.500
30258W        W31123  21.442   3.164  18.686
30259W        W31124  20.417   1.817  18.700
30260W        W31125  19.260   1.008  19.217
30261W        W31126  20.092   0.918  18.269
30262W        W31127  20.676   2.483  21.447
30263W        W31128  21.029   0.389  19.064
30264W        W31129  18.359   0.237  18.512
30265W        W31130  19.645   2.556  20.802
30266W        W31131  19.444   2.472  19.894
30267W        W31132  19.186   2.424  18.292
30268W        W31133  18.427   2.665  19.060
30269W        W31134  18.931   1.735  21.502
30270W        W31135  19.635   0.295  21.688
30271W        W31136  20.344   0.437  21.044
30272W        W31137  19.539   0.205  19.325
30273W        W31138  20.598   0.282  18.830
30274W        W31139  18.543   0.214  20.407
30275W        W31140  18.591   1.177  19.777
30276W        W31141  21.280   0.285  20.183
30277W        W31142  18.702   0.783  18.997
30278W        W31143  21.273   0.471  20.613
30279W        W31144  21.669   1.674  18.298
30280W        W31145  18.961   0.432  20.117
30281W        W31146  20.075   1.004  21.057
30282W        W31147  18.223   0.694  18.535
30283W        W31148  19.009   2.083  21.096
30284W        W31149  20.367   1.481  20.275
30285W        W31150  20.234   3.560  18.571
30286W        W31151  18.380   2.067  18.268
30287W        W31152  19.115   2.478  21.394
30288W        W31153  18.636   1.645  21.025
30289W        W31154  19.627   1.750  20.819
30290W        W31155  21.395   0.109  21.081
30291W        W31156  21.793   1.719  21.072
30292W        W31157  21.781   1.919  18.758
30293W        W31158  20.644   2.251  18.857
30294W        W31159  21.118   3.551  18.552
30295W        W31160  20.295   1.541  21.694
30296W        W31161  18.625   2.508  21.734
30297W        W31162  21.831   0.430  21.686
30298W        W31163  21.549   1.358  20.307
30299W        W31164  19.857   3.488  21.784
30300W        W31165  19.712   0.117  18.511
30301W        W31166  21.251   2.716  18.454
30302W        W31167  19.020   0.809  21.340
30303W        W31168  19.454   2.803  21.202
30304W        W31169  21.580   0.794  21.000
30305W        W31170  20.791   3.453  18.968
30306W        W31171  21.030   2.072  20.335
30307W        W31172  19.280   0.488  21.002
30308W        W31173  19.749   1.557  21.759
30309W        W31174  19.252   2.736  18.953
30310W        W31175  21.007   2.234  19.217
30311W        W31176  18.775   0.860  20.941
30312W        W31177  20.104   2.922  19.405
30313W        W31178  21.854   1.482  19.586
30314W        W31179  20.076   0.115  21.305
30315W        W31180  20.856   2.820  20.384
30316W        W31181  21.159   3.164  20.092
30317W        W31182  20.378   2.966  18.520
30318W        W31183  18.388   2.858  21.362
30319W        W31184  19.131   0.850  20.600
30320W        W31185  19.101   0.198  19.710
30321W        W31186  20.722   1.040  20.402
30322W        W31187  19.520   2.211  18.602
30323W        W31188  21.518   2.153  20.101
30324W        W31189  18.845   2.911  21.524
30325W        W31190  21.232   3.593  19.321
30326W        W31191  19.331   0.613  19.766
30327W        W31192  19.100   2.106  19.856
30328W        W31193  19.413   3.517  20.606
30329W        W31194  21.480   3.613  21.638
30330W        W31195  20.639   1.801  20.571
30331W        W31196  18.488   1.599  18.486
30332W        W31197  21.622   3.257  19.183
30333W        W31198  21.459   0.581  18.802
30334W        W31199  19.598   0.100  21.205
30335W        W31200  21.304   2.902  19.663
30336W        W31201  21.333   1.458  19.568
30337W        W31202  19.450   1.131  19.784
30338W        W31203  19.695   1.393  21.108
30339W        W31204  20.806   2.546  20.971
30340W        W31205  19.456   1.000  21.083
30341W        W31206  19.435   3.466  19.699
30342W        W31207  18.752   3.425  21.333
30343W        W31208  18.864   2.786  18.463
30344W        W31209  21.381   2.544  19.273
30345W        W31210  18.985   1.336  21.159
30346W        W31211  21.758   1.266  18.640
30347W        W31212  19.503   2.323  19.111
30348W        W31213  20.602   1.705  21.192
30349W        W31214  20.493   1.333  20.736
30350W        W31215  19.053   1.705  20.765
30351W        W31216  21.263   3.593  20.594
30352W        W31217  21.054   0.227  21.588
30353W        W31218  18.718   0.377  21.175
30354W        W31219  19.057   1.400  20.228
30355W        W31220  19.426   1.214  18.350
30356W        W31221  18.229   2.973  20.895
30357W        W31222  19.814   1.682  20.338
30358W        W31223  19.637   0.707  18.443
30359W        W31224  18.772   1.523  19.224
30360W        W31225  18.543   3.375  20.661
30361W        W31226  21.338   1.601  18.769
30362W        W31227  21.433   0.517  21.455
30363W        W31228  20.869   2.726  19.418
30364W        W31229  18.467   1.650  21.595
30365W        W31230  21.433   0.114  18.891
30366W        W31231  20.953   2.589  18.902
30367W        W31232  19.855   1.647  18.987
30368W        W31233  21.042   0.451  18.510
30369W        W31234  21.107   1.058  20.696
30370W        W31235  18.816   1.651  19.903
30371W        W31236  19.110   2.590  19.552
30372W        W31237  20.873   1.210  19.517
30373W        W31238  19.896   0.589  20.213
30374W        W31239  21.858   2.500  20.724
30375W        W31240  21.776   0.487  20.285
30376W        W31241  18.315   3.317  19.661
30377W        W31242  18.824   2.504  19.197
30378W        W31243  18.739   0.121  21.750
30379W        W31244  19.858   2.974  21.852
30380W        W31245  21.613   1.942  19.642
30381W        W31246  20.967   2.119  18.522
30382W        W31247  20.262   3.640  20.734
30383W        W31248  21.119   2.362  21.771
30384W        W31249  19.934   0.072  19.051
30385W        W31250  20.647   0.941  19.910
30386W        W31251  18.333   2.528  20.242
30387W        W31252  19.586   0.490  18.883
30388W        W31253  19.390   1.974  21.732
30389W        W31254  20.384   0.955  19.446
30390W        W31255  20.589   2.365  20.568
30391W        W31256  18.743   2.970  21.003
30392W        W31257  19.334   2.953  21.726
30393W        W31258  19.185   0.750  18.740
30394W        W31259  20.702   0.892  19.065
30395W        W31260  20.660   3.000  21.302
30396W        W31261  19.345   1.592  19.901
30397W        W31262  19.000   3.290  20.766
30398W        W31263  21.745   3.407  18.367
30399W        W31264  18.608   2.079  21.363
30400W        W31265  20.603   2.341  20.051
30401W        W31266  19.039   1.990  19.293
30402W        W31267  19.410   2.997  20.688
30403W        W31268  19.788   0.416  19.729
30404W        W31269  18.399   2.400  18.659
30405W        W31270  19.918   1.351  18.529
30406W        W31271  18.564   1.900  19.548
30407W        W31272  19.854   0.542  21.012
30408W        W31273  21.526   0.251  18.439
30409W        W31274  21.619   1.997  21.538
30410W        W31275  20.273   3.254  21.690
30411W        W31276  21.831   2.348  21.212
30412W        W31277  21.239   3.146  21.823
30413W        W31278  18.978   3.602  20.301
30414W        W31279  21.837   2.224  19.175
30415W        W31280  20.367   1.491  19.688
30416W        W31281  20.134   0.103  19.578
30417W        W31282  19.193   3.087  19.415
30418W        W31283  19.692   0.828  20.640
30419W        W31284  19.392   0.197  20.109
30420W        W31285  18.455   3.019  18.657
30421W        W31286  20.271   2.383  19.375
30422W        W31287  19.146   3.178  21.254
30423W        W31288  18.623   2.001  18.950
30424W        W31289  18.508   0.544  19.949
30425W        W31290  20.056   2.509  20.006
30426W        W31291  18.308   0.363  19.026
30427W        W31292  20.972   1.569  20.953
30428W        W31293  20.849   0.955  18.525
30429W        W31294  21.366   2.627  20.173
30430W        W31295  20.027   3.111  20.004
30431W        W31296  19.439   3.215  18.915
30432W        W31297  20.721   0.118  18.345
30433W        W31298  18.521   3.378  20.086
30434W        W31299  20.718   1.136  21.721
30435W        W31300  18.701   0.666  21.720
30436W        W31301  18.432   1.266  19.053
30437W        W31302  19.123   1.255  18.778
30438W        W31303  20.886   1.582  21.595
30439W        W31304  19.229   1.863  20.304
30440W        W31305  20.703   0.149  19.424
30441W        W31306  19.834   3.580  19.927
30442W        W31307  21.048   3.042  20.864
30443W        W31308  20.632   3.191  19.975
30444W        W31309  20.651   2.171  19.569
30445W        W31310  20.113   0.396  18.640
30446W        W31311  21.794   0.024  19.362
30447W        W31312  19.482   1.659  18.525
30448W        W31313  21.648   0.996  19.515
30449W        W31314  20.340   2.166  18.392
30450W        W31315  21.276   2.366  21.140
30451W        W31316  20.930   3.067  18.607
30452W        W31317  19.545   0.742  21.513
30453W        W31318  19.365   1.326  20.754
30454W        W31319  21.457   2.821  21.031
30455W        W31320  20.557   0.771  21.408
30456W        W31321  18.401   1.242  21.185
30457W        W31322  20.161   1.719  20.911
30458W        W31323  18.518   2.477  19.568
30459W        W31324  18.665   1.774  20.458
30460W        W31325  20.982   2.060  20.808
30461W        W31326  20.754   3.440  21.619
30462W        W31327  20.650   1.179  21.172
30463W        W31328  20.927   3.233  19.577
30464W        W31329  19.929   2.953  20.900
30465W        W31330  19.414   3.308  20.169
30466W        W31331  21.219   2.479  20.588
30467W        W31332  20.269   2.551  21.725
30468W        W31333  18.874   2.504  20.064
30469W        W31334  21.220   2.263  19.709
30470W        W31335  20.861   3.329  20.460
30471W        W31336  18.839   3.058  20.330
30472W        W31337  19.860   1.110  21.540
30473W        W31338  20.311   3.276  19.051
30474W        W31339  19.619   2.531  21.689
30475W        W31340  19.745   2.769  19.066
30476W        W31341  18.966   1.509  18.325
30477W        W31342  18.305   3.595  25.225
30478W        W31343  18.681   2.488  24.748
30479W        W31344  21.386   2.218  22.518
30480W        W31345  21.516   3.303  24.545
30481W        W31346  19.434   3.294  22.071
30482W        W31347  19.517   1.446  23.054
30483W        W31348  19.032   1.294  23.218
30484W        W31349  20.023   2.109  22.652
30485W        W31350  19.698   3.201  25.007
30486W        W31351  18.347   0.762  24.970
30487W        W31352  19.109   0.042  24.772
30488W        W31353  20.803   0.430  23.659
30489W        W31354  20.452   1.301  22.229
30490W        W31355  21.022   0.735  25.320
30491W        W31356  18.388   0.527  24.445
30492W        W31357  18.487   3.146  25.466
30493W        W31358  20.009   2.536  22.198
30494W        W31359  18.441   1.319  23.891
30495W        W31360  19.334   1.210  25.128
30496W        W31361  21.793   1.069  23.627
30497W        W31362  21.557   2.112  24.486
30498W        W31363  19.865   1.445  23.513
30499W        W31364  20.411   2.784  23.882
30500W        W31365  18.911   2.218  24.114
30501W        W31366  18.270   1.746  23.685
30502W        W31367  19.306   1.718  24.877
30503W        W31368  21.577   1.501  25.131
30504W        W31369  19.193   2.945  23.576
30505W        W31370  20.314   2.634  24.710
30506W        W31371  19.534   1.274  23.935
30507W        W31372  19.826   2.058  23.578
30508W        W31373  20.823   2.831  25.426
30509W        W31374  19.902   2.151  25.436
30510W        W31375  19.883   1.867  24.914
30511W        W31376  18.292   1.258  25.436
30512W        W31377  21.124   2.793  25.035
30513W        W31378  18.705   0.375  23.033
30514W        W31379  19.232   2.633  24.032
30515W        W31380  21.695   2.416  23.322
30516W        W31381  21.108   0.816  23.889
30517W        W31382  21.393   0.769  21.984
30518W        W31383  21.858   1.570  24.290
30519W        W31384  19.825   3.277  24.043
30520W        W31385  21.599   2.743  22.481
30521W        W31386  18.728   3.529  22.235
30522W        W31387  19.121   3.575  22.911
30523W        W31388  18.918   0.329  24.337
30524W        W31389  21.541   1.347  24.612
30525W        W31390  20.946   1.769  23.071
30526W        W31391  20.912   1.457  22.098
30527W        W31392  20.120   2.601  24.238
30528W        W31393  19.926   0.931  23.437
30529W        W31394  20.526   3.018  24.431
30530W        W31395  21.397   1.809  22.853
30531W        W31396  20.299   0.467  22.869
30532W        W31397  18.956   3.161  22.552
30533W        W31398  18.327   0.660  23.151
30534W        W31399  21.113   1.267  23.625
30535W        W31400  18.571   2.884  23.540
30536W        W31401  19.912   3.234  22.410
30537W        W31402  21.304   1.260  21.874
30538W        W31403  18.327   3.018  24.038
30539W        W31404  19.118   2.590  24.518
30540W        W31405  19.491   1.950  23.137
30541W        W31406  19.513   0.355  24.230
30542W        W31407  21.742   0.117  23.527
30543W        W31408  18.961   1.989  21.995
30544W        W31409  18.616   1.022  22.174
30545W        W31410  18.678   2.978  22.968
30546W        W31411  19.809   2.461  23.216
30547W        W31412  21.141   3.320  24.930
30548W        W31413  20.067   0.962  22.614
30549W        W31414  21.450   3.360  23.386
30550W        W31415  21.127   1.213  24.984
30551W        W31416  21.840   2.869  23.118
30552W        W31417  20.467   2.161  24.602
30553W        W31418  18.233   1.712  22.808
30554W        W31419  19.344   2.127  24.381
30555W        W31420  20.548   1.391  22.759
30556W        W31421  20.425   1.881  22.863
30557W        W31422  18.768   1.301  24.337
30558W        W31423  18.753   1.177  25.259
30559W        W31424  18.643   0.094  23.418
30560W        W31425  20.411   0.441  23.979
30561W        W31426  20.059   0.626  25.142
30562W        W31427  20.414   0.775  22.320
30563W        W31428  21.597   3.168  25.074
30564W        W31429  20.564   0.249  25.113
30565W        W31430  21.583   2.550  25.235
30566W        W31431  21.013   0.717  24.831
30567W        W31432  20.813   0.655  23.101
30568W        W31433  21.206   1.789  25.505
30569W        W31434  18.946   3.365  23.491
30570W        W31435  19.604   1.082  22.477
30571W        W31436  19.173   0.366  25.141
30572W        W31437  21.225   0.850  22.822
30573W        W31438  21.592   1.332  22.767
30574W        W31439  19.335   3.549  25.238
30575W        W31440  19.261   0.085  22.473
30576W        W31441  21.582   0.619  23.508
30577W        W31442  21.732   2.868  21.953
30578W        W31443  18.639   2.071  23.655
30579W        W31444  20.556   0.658  21.885
30580W        W31445  21.690   2.990  23.605
30581W        W31446  21.729   0.184  24.355
30582W        W31447  20.174   1.396  24.909
30583W        W31448  20.267   2.735  22.612
30584W        W31449  20.667   2.029  25.352
30585W        W31450  20.341   0.006  23.661
30586W        W31451  18.953   0.909  23.724
30587W        W31452  18.507   2.109  24.498
30588W        W31453  20.366   3.302  23.204
30589W        W31454  21.560   0.899  24.076
30590W        W31455  20.197   3.246  24.843
30591W        W31456  21.540   2.305  22.048
30592W        W31457  19.975   1.788  23.109
30593W        W31458  21.827   0.299  24.850
30594W        W31459  19.976   2.134  24.444
30595W        W31460  20.193   1.020  23.889
30596W        W31461  21.045   1.318  22.727
30597W        W31462  21.332   1.051  22.369
30598W        W31463  21.141   3.091  22.758
30599W        W31464  20.975   2.694  23.554
30600W        W31465  20.871   1.773  22.532
30601W        W31466  20.304   1.983  23.518
30602W        W31467  21.185   1.771  23.585
30603W        W31468  18.560   0.786  24.009
30604W        W31469  21.338   1.838  24.836
30605W        W31470  21.689   3.456  23.982
30606W        W31471  19.619   2.900  23.384
30607W        W31472  20.626   3.433  24.708
30608W        W31473  20.620   0.763  24.472
30609W        W31474  19.827   3.471  24.533
30610W        W31475  21.524   0.425  22.999
30611W        W31476  21.315   1.744  24.300
30612W        W31477  18.298   1.065  24.338
30613W        W31478  21.158   0.860  23.356
30614W        W31479  21.569   1.011  25.133
30615W        W31480  20.454   2.710  23.351
30616W        W31481  19.710   3.301  22.964
30617W        W31482  18.825   0.481  22.222
30618W        W31483  19.929   0.135  24.032
30619W        W31484  18.957   3.255  21.880
30620W        W31485  19.331   1.721  22.631
30621W        W31486  19.985   2.350  24.944
30622W        W31487  19.815   0.708  22.934
30623W        W31488  21.171   0.305  23.362
30624W        W31489  20.891   3.587  23.690
30625W        W31490  20.303   3.235  24.030
30626W        W31491  19.699   2.272  23.991
30627W        W31492  21.469   2.995  24.117
30628W        W31493  19.163   0.498  22.886
30629W        W31494  19.685   2.795  23.846
30630W        W31495  19.168   0.726  21.911
30631W        W31496  19.969   1.335  24.305
30632W        W31497  20.817   0.201  24.175
30633W        W31498  18.237   2.044  24.060
30634W        W31499  19.941   1.862  22.218
30635W        W31500  19.209   0.177  21.988
30636W        W31501  19.947   1.258  23.039
30637W        W31502  20.917   0.234  24.738
30638W        W31503  19.505   2.246  24.847
30639W        W31504  20.309   2.028  25.064
30640W        W31505  20.926   2.058  24.957
30641W        W31506  20.210   0.198  25.462
30642W        W31507  19.432   0.814  23.855
30643W        W31508  18.858   0.770  23.253
30644W        W31509  18.644   3.482  22.929
30645W        W31510  19.976   2.812  25.054
30646W        W31511  19.011   2.297  22.413
30647W        W31512  20.691   1.682  23.634
30648W        W31513  20.971   1.481  24.033
30649W        W31514  20.176   2.155  23.967
30650W        W31515  20.646   2.529  22.099
30651W        W31516  20.318   0.550  23.427
30652W        W31517  21.797   0.828  22.695
30653W        W31518  18.291   3.417  24.726
30654W        W31519  18.708   2.643  24.258
30655W        W31520  18.275   3.489  22.490
30656W        W31521  20.174   0.759  24.296
30657W        W31522  19.537   2.782  22.145
30658W        W31523  21.442   3.164  22.331
30659W        W31524  20.417   1.817  22.345
30660W        W31525  19.260   1.008  22.862
30661W        W31526  20.092   0.918  21.914
30662W        W31527  20.676   2.483  25.092
30663W        W31528  21.029   0.389  22.709
30664W        W31529  18.359   0.237  22.157
30665W        W31530  19.645   2.556  24.447
30666W        W31531  19.444   2.472  23.539
30667W        W31532  19.186   2.424  21.937
30668W        W31533  18.427   2.665  22.705
30669W        W31534  18.931   1.735  25.147
30670W        W31535  19.635   0.295  25.333
30671W        W31536  20.344   0.437  24.689
30672W        W31537  19.539   0.205  22.970
30673W        W31538  20.598   0.282  22.475
30674W        W31539  18.543   0.214  24.052
30675W        W31540  18.591   1.177  23.422
30676W        W31541  21.280   0.285  23.828
30677W        W31542  18.702   0.783  22.642
30678W        W31543  21.273   0.471  24.258
30679W        W31544  21.669   1.674  21.943
30680W        W31545  18.961   0.432  23.762
30681W        W31546  20.075   1.004  24.702
30682W        W31547  18.223   0.694  22.180
30683W        W31548  19.009   2.083  24.741
30684W        W31549  20.367   1.481  23.920
30685W        W31550  20.234   3.560  22.216
30686W        W31551  18.380   2.067  21.913
30687W        W31552  19.115   2.478  25.039
30688W        W31553  18.636   1.645  24.670
30689W        W31554  19.627   1.750  24.464
30690W        W31555  21.395   0.109  24.726
30691W        W31556  21.793   1.719  24.717
30692W        W31557  21.781   1.919  22.403
30693W        W31558  20.644   2.251  22.502
30694W        W31559  21.118   3.551  22.197
30695W        W31560  20.295   1.541  25.339
30696W        W31561  18.625   2.508  25.379
30697W        W31562  21.831   0.430  25.331
30698W        W31563  21.549   1.358  23.952
30699W        W31564  19.857   3.488  25.429
30700W        W31565  19.712   0.117  22.156
30701W        W31566  21.251   2.716  22.099
30702W        W31567  19.020   0.809  24.985
30703W        W31568  19.454   2.803  24.847
30704W        W31569  21.580   0.794  24.645
30705W        W31570  20.791   3.453  22.613
30706W        W31571  21.030   2.072  23.980
30707W        W31572  19.280   0.488  24.647
30708W        W31573  19.749   1.557  25.404
30709W        W31574  19.252   2.736  22.598
30710W        W31575  21.007   2.234  22.862
30711W        W31576  18.775   0.860  24.586
30712W        W31577  20.104   2.922  23.050
30713W        W31578  21.854   1.482  23.231
30714W        W31579  20.076   0.115  24.950
30715W        W31580  20.856   2.820  24.029
30716W        W31581  21.159   3.164  23.737
30717W        W31582  20.378   2.966  22.165
30718W        W31583  18.388   2.858  25.007
30719W        W31584  19.131   0.850  24.245
30720W        W31585  19.101   0.198  23.355
30721W        W31586  20.722   1.040  24.047
30722W        W31587  19.520   2.211  22.247
30723W        W31588  21.518   2.153  23.746
30724W        W31589  18.845   2.911  25.169
30725W        W31590  21.232   3.593  22.966
30726W        W31591  19.331   0.613  23.411
30727W        W31592  19.100   2.106  23.501
30728W        W31593  19.413   3.517  24.251
30729W        W31594  21.480   3.613  25.283
30730W        W31595  20.639   1.801  24.216
30731W        W31596  18.488   1.599  22.131
30732W        W31597  21.622   3.257  22.828
30733W        W31598  21.459   0.581  22.447
30734W        W31599  19.598   0.100  24.850
30735W        W31600  21.304   2.902  23.308
30736W        W31601  21.333   1.458  23.213
30737W        W31602  19.450   1.131  23.429
30738W        W31603  19.695   1.393  24.753
30739W        W31604  20.806   2.546  24.616
30740W        W31605  19.456   1.000  24.728
30741W        W31606  19.435   3.466  23.344
30742W        W31607  18.752   3.425  24.978
30743W        W31608  18.864   2.786  22.108
30744W        W31609  21.381   2.544  22.918
30745W        W31610  18.985   1.336  24.804
30746W        W31611  21.758   1.266  22.285
30747W        W31612  19.503   2.323  22.756
30748W        W31613  20.602   1.705  24.837
30749W        W31614  20.493   1.333  24.381
30750W        W31615  19.053   1.705  24.410
30751W        W31616  21.263   3.593  24.239
30752W        W31617  21.054   0.227  25.233
30753W        W31618  18.718   0.377  24.820
30754W        W31619  19.057   1.400  23.873
30755W        W31620  19.426   1.214  21.995
30756W        W31621  18.229   2.973  24.540
30757W        W31622  19.814   1.682  23.983
30758W        W31623  19.637   0.707  22.088
30759W        W31624  18.772   1.523  22.869
30760W        W31625  18.543   3.375  24.306
30761W        W31626  21.338   1.601  22.414
30762W        W31627  21.433   0.517  25.100
30763W        W31628  20.869   2.726  23.063
30764W        W31629  18.467   1.650  25.240
30765W        W31630  21.433   0.114  22.536
30766W        W31631  20.953   2.589  22.547
30767W        W31632  19.855   1.647  22.632
30768W        W31633  21.042   0.451  22.155
30769W        W31634  21.107   1.058  24.341
30770W        W31635  18.816   1.651  23.548
30771W        W31636  19.110   2.590  23.197
30772W        W31637  20.873   1.210  23.162
30773W        W31638  19.896   0.589  23.858
30774W        W31639  21.858   2.500  24.369
30775W        W31640  21.776   0.487  23.930
30776W        W31641  18.315   3.317  23.306
30777W        W31642  18.824   2.504  22.842
30778W        W31643  18.739   0.121  25.395
30779W        W31644  19.858   2.974  25.497
30780W        W31645  21.613   1.942  23.287
30781W        W31646  20.967   2.119  22.167
30782W        W31647  20.262   3.640  24.379
30783W        W31648  21.119   2.362  25.416
30784W        W31649  19.934   0.072  22.696
30785W        W31650  20.647   0.941  23.555
30786W        W31651  18.333   2.528  23.887
30787W        W31652  19.586   0.490  22.528
30788W        W31653  19.390   1.974  25.377
30789W        W31654  20.384   0.955  23.091
30790W        W31655  20.589   2.365  24.213
30791W        W31656  18.743   2.970  24.648
30792W        W31657  19.334   2.953  25.371
30793W        W31658  19.185   0.750  22.385
30794W        W31659  20.702   0.892  22.710
30795W        W31660  20.660   3.000  24.947
30796W        W31661  19.345   1.592  23.546
30797W        W31662  19.000   3.290  24.411
30798W        W31663  21.745   3.407  22.012
30799W        W31664  18.608   2.079  25.008
30800W        W31665  20.603   2.341  23.696
30801W        W31666  19.039   1.990  22.938
30802W        W31667  19.410   2.997  24.333
30803W        W31668  19.788   0.416  23.374
30804W        W31669  18.399   2.400  22.304
30805W        W31670  19.918   1.351  22.174
30806W        W31671  18.564   1.900  23.193
30807W        W31672  19.854   0.542  24.657
30808W        W31673  21.526   0.251  22.084
30809W        W31674  21.619   1.997  25.183
30810W        W31675  20.273   3.254  25.335
30811W        W31676  21.831   2.348  24.857
30812W        W31677  21.239   3.146  25.468
30813W        W31678  18.978   3.602  23.946
30814W        W31679  21.837   2.224  22.820
30815W        W31680  20.367   1.491  23.333
30816W        W31681  20.134   0.103  23.223
30817W        W31682  19.193   3.087  23.060
30818W        W31683  19.692   0.828  24.285
30819W        W31684  19.392   0.197  23.754
30820W        W31685  18.455   3.019  22.302
30821W        W31686  20.271   2.383  23.020
30822W        W31687  19.146   3.178  24.899
30823W        W31688  18.623   2.001  22.595
30824W        W31689  18.508   0.544  23.594
30825W        W31690  20.056   2.509  23.651
30826W        W31691  18.308   0.363  22.671
30827W        W31692  20.972   1.569  24.598
30828W        W31693  20.849   0.955  22.170
30829W        W31694  21.366   2.627  23.818
30830W        W31695  20.027   3.111  23.649
30831W        W31696  19.439   3.215  22.560
30832W        W31697  20.721   0.118  21.990
30833W        W31698  18.521   3.378  23.731
30834W        W31699  20.718   1.136  25.366
30835W        W31700  18.701   0.666  25.365
30836W        W31701  18.432   1.266  22.698
30837W        W31702  19.123   1.255  22.423
30838W        W31703  20.886   1.582  25.240
30839W        W31704  19.229   1.863  23.949
30840W        W31705  20.703   0.149  23.069
30841W        W31706  19.834   3.580  23.572
30842W        W31707  21.048   3.042  24.509
30843W        W31708  20.632   3.191  23.620
30844W        W31709  20.651   2.171  23.214
30845W        W31710  20.113   0.396  22.285
30846W        W31711  21.794   0.024  23.007
30847W        W31712  19.482   1.659  22.170
30848W        W31713  21.648   0.996  23.160
30849W        W31714  20.340   2.166  22.037
30850W        W31715  21.276   2.366  24.785
30851W        W31716  20.930   3.067  22.252
30852W        W31717  19.545   0.742  25.158
30853W        W31718  19.365   1.326  24.399
30854W        W31719  21.457   2.821  24.676
30855W        W31720  20.557   0.771  25.053
30856W        W31721  18.401   1.242  24.830
30857W        W31722  20.161   1.719  24.556
30858W        W31723  18.518   2.477  23.213
30859W        W31724  18.665   1.774  24.103
30860W        W31725  20.982   2.060  24.453
30861W        W31726  20.754   3.440  25.264
30862W        W31727  20.650   1.179  24.817
30863W        W31728  20.927   3.233  23.222
30864W        W31729  19.929   2.953  24.545
30865W        W31730  19.414   3.308  23.814
30866W        W31731  21.219   2.479  24.233
30867W        W31732  20.269   2.551  25.370
30868W        W31733  18.874   2.504  23.709
30869W        W31734  21.220   2.263  23.354
30870W        W31735  20.861   3.329  24.105
30871W        W31736  18.839   3.058  23.975
30872W        W31737  19.860   1.110  25.185
30873W        W31738  20.311   3.276  22.696
30874W        W31739  19.619   2.531  25.334
30875W        W31740  19.745   2.769  22.711
30876W        W31741  18.966   1.509  21.970
30877W        W31742  18.305   3.595  28.869
30878W        W31743  18.681   2.488  28.392
30879W        W31744  21.386   2.218  26.162
30880W        W31745  21.516   3.303  28.189
30881W        W31746  19.434   3.294  25.715
30882W        W31747  19.517   1.446  26.698
30883W        W31748  19.032   1.294  26.862
30884W        W31749  20.023   2.109  26.296
30885W        W31750  19.698   3.201  28.651
30886W        W31751  18.347   0.762  28.614
30887W        W31752  19.109   0.042  28.416
30888W        W31753  20.803   0.430  27.303
30889W        W31754  20.452   1.301  25.873
30890W        W31755  21.022   0.735  28.964
30891W        W31756  18.388   0.527  28.089
30892W        W31757  18.487   3.146  29.110
30893W        W31758  20.009   2.536  25.842
30894W        W31759  18.441   1.319  27.535
30895W        W31760  19.334   1.210  28.772
30896W        W31761  21.793   1.069  27.271
30897W        W31762  21.557   2.112  28.130
30898W        W31763  19.865   1.445  27.157
30899W        W31764  20.411   2.784  27.526
30900W        W31765  18.911   2.218  27.758
30901W        W31766  18.270   1.746  27.329
30902W        W31767  19.306   1.718  28.521
30903W        W31768  21.577   1.501  28.775
30904W        W31769  19.193   2.945  27.220
30905W        W31770  20.314   2.634  28.354
30906W        W31771  19.534   1.274  27.579
30907W        W31772  19.826   2.058  27.222
30908W        W31773  20.823   2.831  29.070
30909W        W31774  19.902   2.151  29.080
30910W        W31775  19.883   1.867  28.558
30911W        W31776  18.292   1.258  29.080
30912W        W31777  21.124   2.793  28.679
30913W        W31778  18.705   0.375  26.677
30914W        W31779  19.232   2.633  27.676
30915W        W31780  21.695   2.416  26.966
30916W        W31781  21.108   0.816  27.533
30917W        W31782  21.393   0.769  25.628
30918W        W31783  21.858   1.570  27.934
30919W        W31784  19.825   3.277  27.687
30920W        W31785  21.599   2.743  26.125
30921W        W31786  18.728   3.529  25.879
30922W        W31787  19.121   3.575  26.555
30923W        W31788  18.918   0.329  27.981
30924W        W31789  21.541   1.347  28.256
30925W        W31790  20.946   1.769  26.715
30926W        W31791  20.912   1.457  25.742
30927W        W31792  20.120   2.601  27.882
30928W        W31793  19.926   0.931  27.081
30929W        W31794  20.526   3.018  28.075
30930W        W31795  21.397   1.809  26.497
30931W        W31796  20.299   0.467  26.513
30932W        W31797  18.956   3.161  26.196
30933W        W31798  18.327   0.660  26.795
30934W        W31799  21.113   1.267  27.269
30935W        W31800  18.571   2.884  27.184
30936W        W31801  19.912   3.234  26.054
30937W        W31802  21.304   1.260  25.518
30938W        W31803  18.327   3.018  27.682
30939W        W31804  19.118   2.590  28.162
30940W        W31805  19.491   1.950  26.781
30941W        W31806  19.513   0.355  27.874
30942W        W31807  21.742   0.117  27.171
30943W        W31808  18.961   1.989  25.639
30944W        W31809  18.616   1.022  25.818
30945W        W31810  18.678   2.978  26.612
30946W        W31811  19.809   2.461  26.860
30947W        W31812  21.141   3.320  28.574
30948W        W31813  20.067   0.962  26.258
30949W        W31814  21.450   3.360  27.030
30950W        W31815  21.127   1.213  28.628
30951W        W31816  21.840   2.869  26.762
30952W        W31817  20.467   2.161  28.246
30953W        W31818  18.233   1.712  26.452
30954W        W31819  19.344   2.127  28.025
30955W        W31820  20.548   1.391  26.403
30956W        W31821  20.425   1.881  26.507
30957W        W31822  18.768   1.301  27.981
30958W        W31823  18.753   1.177  28.903
30959W        W31824  18.643   0.094  27.062
30960W        W31825  20.411   0.441  27.623
30961W        W31826  20.059   0.626  28.786
30962W        W31827  20.414   0.775  25.964
30963W        W31828  21.597   3.168  28.718
30964W        W31829  20.564   0.249  28.757
30965W        W31830  21.583   2.550  28.879
30966W        W31831  21.013   0.717  28.475
30967W        W31832  20.813   0.655  26.745
30968W        W31833  21.206   1.789  29.149
30969W        W31834  18.946   3.365  27.135
30970W        W31835  19.604   1.082  26.121
30971W        W31836  19.173   0.366  28.785
30972W        W31837  21.225   0.850  26.466
30973W        W31838  21.592   1.332  26.411
30974W        W31839  19.335   3.549  28.882
30975W        W31840  19.261   0.085  26.117
30976W        W31841  21.582   0.619  27.152
30977W        W31842  21.732   2.868  25.597
30978W        W31843  18.639   2.071  27.299
30979W        W31844  20.556   0.658  25.529
30980W        W31845  21.690   2.990  27.249
30981W        W31846  21.729   0.184  27.999
30982W        W31847  20.174   1.396  28.553
30983W        W31848  20.267   2.735  26.256
30984W        W31849  20.667   2.029  28.996
30985W        W31850  20.341   0.006  27.305
30986W        W31851  18.953   0.909  27.368
30987W        W31852  18.507   2.109  28.142
30988W        W31853  20.366   3.302  26.848
30989W        W31854  21.560   0.899  27.720
30990W        W31855  20.197   3.246  28.487
30991W        W31856  21.540   2.305  25.692
30992W        W31857  19.975   1.788  26.753
30993W        W31858  21.827   0.299  28.494
30994W        W31859  19.976   2.134  28.088
30995W        W31860  20.193   1.020  27.533
30996W        W31861  21.045   1.318  26.371
30997W        W31862  21.332   1.051  26.013
30998W        W31863  21.141   3.091  26.402
30999W        W31864  20.975   2.694  27.198
31000W        W31865  20.871   1.773  26.176
31001W        W31866  20.304   1.983  27.162
31002W        W31867  21.185   1.771  27.229
31003W        W31868  18.560   0.786  27.653
31004W        W31869  21.338   1.838  28.480
31005W        W31870  21.689   3.456  27.626
31006W        W31871  19.619   2.900  27.028
31007W        W31872  20.626   3.433  28.352
31008W        W31873  20.620   0.763  28.116
31009W        W31874  19.827   3.471  28.177
31010W        W31875  21.524   0.425  26.643
31011W        W31876  21.315   1.744  27.944
31012W        W31877  18.298   1.065  27.982
31013W        W31878  21.158   0.860  27.000
31014W        W31879  21.569   1.011  28.777
31015W        W31880  20.454   2.710  26.995
31016W        W31881  19.710   3.301  26.608
31017W        W31882  18.825   0.481  25.866
31018W        W31883  19.929   0.135  27.676
31019W        W31884  18.957   3.255  25.524
31020W        W31885  19.331   1.721  26.275
31021W        W31886  19.985   2.350  28.588
31022W        W31887  19.815   0.708  26.578
31023W        W31888  21.171   0.305  27.006
31024W        W31889  20.891   3.587  27.334
31025W        W31890  20.303   3.235  27.674
31026W        W31891  19.699   2.272  27.635
31027W        W31892  21.469   2.995  27.761
31028W        W31893  19.163   0.498  26.530
31029W        W31894  19.685   2.795  27.490
31030W        W31895  19.168   0.726  25.555
31031W        W31896  19.969   1.335  27.949
31032W        W31897  20.817   0.201  27.819
31033W        W31898  18.237   2.044  27.704
31034W        W31899  19.941   1.862  25.862
31035W        W31900  19.209   0.177  25.632
31036W        W31901  19.947   1.258  26.683
31037W        W31902  20.917   0.234  28.382
31038W        W31903  19.505   2.246  28.491
31039W        W31904  20.309   2.028  28.708
31040W        W31905  20.926   2.058  28.601
31041W        W31906  20.210   0.198  29.106
31042W        W31907  19.432   0.814  27.499
31043W        W31908  18.858   0.770  26.897
31044W        W31909  18.644   3.482  26.573
31045W        W31910  19.976   2.812  28.698
31046W        W31911  19.011   2.297  26.057
31047W        W31912  20.691   1.682  27.278
31048W        W31913  20.971   1.481  27.677
31049W        W31914  20.176   2.155  27.611
31050W        W31915  20.646   2.529  25.743
31051W        W31916  20.318   0.550  27.071
31052W        W31917  21.797   0.828  26.339
31053W        W31918  18.291   3.417  28.370
31054W        W31919  18.708   2.643  27.902
31055W        W31920  18.275   3.489  26.134
31056W        W31921  20.174   0.759  27.940
31057W        W31922  19.537   2.782  25.789
31058W        W31923  21.442   3.164  25.975
31059W        W31924  20.417   1.817  25.989
31060W        W31925  19.260   1.008  26.506
31061W        W31926  20.092   0.918  25.558
31062W        W31927  20.676   2.483  28.736
31063W        W31928  21.029   0.389  26.353
31064W        W31929  18.359   0.237  25.801
31065W        W31930  19.645   2.556  28.091
31066W        W31931  19.444   2.472  27.183
31067W        W31932  19.186   2.424  25.581
31068W        W31933  18.427   2.665  26.349
31069W        W31934  18.931   1.735  28.791
31070W        W31935  19.635   0.295  28.977
31071W        W31936  20.344   0.437  28.333
31072W        W31937  19.539   0.205  26.614
31073W        W31938  20.598   0.282  26.119
31074W        W31939  18.543   0.214  27.696
31075W        W31940  18.591   1.177  27.066
31076W        W31941  21.280   0.285  27.472
31077W        W31942  18.702   0.783  26.286
31078W        W31943  21.273   0.471  27.902
31079W        W31944  21.669   1.674  25.587
31080W        W31945  18.961   0.432  27.406
31081W        W31946  20.075   1.004  28.346
31082W        W31947  18.223   0.694  25.824
31083W        W31948  19.009   2.083  28.385
31084W        W31949  20.367   1.481  27.564
31085W        W31950  20.234   3.560  25.860
31086W        W31951  18.380   2.067  25.557
31087W        W31952  19.115   2.478  28.683
31088W        W31953  18.636   1.645  28.314
31089W        W31954  19.627   1.750  28.108
31090W        W31955  21.395   0.109  28.370
31091W        W31956  21.793   1.719  28.361
31092W        W31957  21.781   1.919  26.047
31093W        W31958  20.644   2.251  26.146
31094W        W31959  21.118   3.551  25.841
31095W        W31960  20.295   1.541  28.983
31096W        W31961  18.625   2.508  29.023
31097W        W31962  21.831   0.430  28.975
31098W        W31963  21.549   1.358  27.596
31099W        W31964  19.857   3.488  29.073
31100W        W31965  19.712   0.117  25.800
31101W        W31966  21.251   2.716  25.743
31102W        W31967  19.020   0.809  28.629
31103W        W31968  19.454   2.803  28.491
31104W        W31969  21.580   0.794  28.289
31105W        W31970  20.791   3.453  26.257
31106W        W31971  21.030   2.072  27.624
31107W        W31972  19.280   0.488  28.291
31108W        W31973  19.749   1.557  29.048
31109W        W31974  19.252   2.736  26.242
31110W        W31975  21.007   2.234  26.506
31111W        W31976  18.775   0.860  28.230
31112W        W31977  20.104   2.922  26.694
31113W        W31978  21.854   1.482  26.875
31114W        W31979  20.076   0.115  28.594
31115W        W31980  20.856   2.820  27.673
31116W        W31981  21.159   3.164  27.381
31117W        W31982  20.378   2.966  25.809
31118W        W31983  18.388   2.858  28.651
31119W        W31984  19.131   0.850  27.889
31120W        W31985  19.101   0.198  26.999
31121W        W31986  20.722   1.040  27.691
31122W        W31987  19.520   2.211  25.891
31123W        W31988  21.518   2.153  27.390
31124W        W31989  18.845   2.911  28.813
31125W        W31990  21.232   3.593  26.610
31126W        W31991  19.331   0.613  27.055
31127W        W31992  19.100   2.106  27.145
31128W        W31993  19.413   3.517  27.895
31129W        W31994  21.480   3.613  28.927
31130W        W31995  20.639   1.801  27.860
31131W        W31996  18.488   1.599  25.775
31132W        W31997  21.622   3.257  26.472
31133W        W31998  21.459   0.581  26.091
31134W        W31999  19.598   0.100  28.494
31135W        W32000  21.304   2.902  26.952
31136W        W32001  21.333   1.458  26.857
31137W        W32002  19.450   1.131  27.073
31138W        W32003  19.695   1.393  28.397
31139W        W32004  20.806   2.546  28.260
31140W        W32005  19.456   1.000  28.372
31141W        W32006  19.435   3.466  26.988
31142W        W32007  18.752   3.425  28.622
31143W        W32008  18.864   2.786  25.752
31144W        W32009  21.381   2.544  26.562
31145W        W32010  18.985   1.336  28.448
31146W        W32011  21.758   1.266  25.929
31147W        W32012  19.503   2.323  26.400
31148W        W32013  20.602   1.705  28.481
31149W        W32014  20.493   1.333  28.025
31150W        W32015  19.053   1.705  28.054
31151W        W32016  21.263   3.593  27.883
31152W        W32017  21.054   0.227  28.877
31153W        W32018  18.718   0.377  28.464
31154W        W32019  19.057   1.400  27.517
31155W        W32020  19.426   1.214  25.639
31156W        W32021  18.229   2.973  28.184
31157W        W32022  19.814   1.682  27.627
31158W        W32023  19.637   0.707  25.732
31159W        W32024  18.772   1.523  26.513
31160W        W32025  18.543   3.375  27.950
31161W        W32026  21.338   1.601  26.058
31162W        W32027  21.433   0.517  28.744
31163W        W32028  20.869   2.726  26.707
31164W        W32029  18.467   1.650  28.884
31165W        W32030  21.433   0.114  26.180
31166W        W32031  20.953   2.589  26.191
31167W        W32032  19.855   1.647  26.276
31168W        W32033  21.042   0.451  25.799
31169W        W32034  21.107   1.058  27.985
31170W        W32035  18.816   1.651  27.192
31171W        W32036  19.110   2.590  26.841
31172W        W32037  20.873   1.210  26.806
31173W        W32038  19.896   0.589  27.502
31174W        W32039  21.858   2.500  28.013
31175W        W32040  21.776   0.487  27.574
31176W        W32041  18.315   3.317  26.950
31177W        W32042  18.824   2.504  26.486
31178W        W32043  18.739   0.121  29.039
31179W        W32044  19.858   2.974  29.141
31180W        W32045  21.613   1.942  26.931
31181W        W32046  20.967   2.119  25.811
31182W        W32047  20.262   3.640  28.023
31183W        W32048  21.119   2.362  29.060
31184W        W32049  19.934   0.072  26.340
31185W        W32050  20.647   0.941  27.199
31186W        W32051  18.333   2.528  27.531
31187W        W32052  19.586   0.490  26.172
31188W        W32053  19.390   1.974  29.021
31189W        W32054  20.384   0.955  26.735
31190W        W32055  20.589   2.365  27.857
31191W        W32056  18.743   2.970  28.292
31192W        W32057  19.334   2.953  29.015
31193W        W32058  19.185   0.750  26.029
31194W        W32059  20.702   0.892  26.354
31195W        W32060  20.660   3.000  28.591
31196W        W32061  19.345   1.592  27.190
31197W        W32062  19.000   3.290  28.055
31198W        W32063  21.745   3.407  25.656
31199W        W32064  18.608   2.079  28.652
31200W        W32065  20.603   2.341  27.340
31201W        W32066  19.039   1.990  26.582
31202W        W32067  19.410   2.997  27.977
31203W        W32068  19.788   0.416  27.018
31204W        W32069  18.399   2.400  25.948
31205W        W32070  19.918   1.351  25.818
31206W        W32071  18.564   1.900  26.837
31207W        W32072  19.854   0.542  28.301
31208W        W32073  21.526   0.251  25.728
31209W        W32074  21.619   1.997  28.827
31210W        W32075  20.273   3.254  28.979
31211W        W32076  21.831   2.348  28.501
31212W        W32077  21.239   3.146  29.112
31213W        W32078  18.978   3.602  27.590
31214W        W32079  21.837   2.224  26.464
31215W        W32080  20.367   1.491  26.977
31216W        W32081  20.134   0.103  26.867
31217W        W32082  19.193   3.087  26.704
31218W        W32083  19.692   0.828  27.929
31219W        W32084  19.392   0.197  27.398
31220W        W32085  18.455   3.019  25.946
31221W        W32086  20.271   2.383  26.664
31222W        W32087  19.146   3.178  28.543
31223W        W32088  18.623   2.001  26.239
31224W        W32089  18.508   0.544  27.238
31225W        W32090  20.056   2.509  27.295
31226W        W32091  18.308   0.363  26.315
31227W        W32092  20.972   1.569  28.242
31228W        W32093  20.849   0.955  25.814
31229W        W32094  21.366   2.627  27.462
31230W        W32095  20.027   3.111  27.293
31231W        W32096  19.439   3.215  26.204
31232W        W32097  20.721   0.118  25.634
31233W        W32098  18.521   3.378  27.375
31234W        W32099  20.718   1.136  29.010
31235W        W32100  18.701   0.666  29.009
31236W        W32101  18.432   1.266  26.342
31237W        W32102  19.123   1.255  26.067
31238W        W32103  20.886   1.582  28.884
31239W        W32104  19.229   1.863  27.593
31240W        W32105  20.703   0.149  26.713
31241W        W32106  19.834   3.580  27.216
31242W        W32107  21.048   3.042  28.153
31243W        W32108  20.632   3.191  27.264
31244W        W32109  20.651   2.171  26.858
31245W        W32110  20.113   0.396  25.929
31246W        W32111  21.794   0.024  26.651
31247W        W32112  19.482   1.659  25.814
31248W        W32113  21.648   0.996  26.804
31249W        W32114  20.340   2.166  25.681
31250W        W32115  21.276   2.366  28.429
31251W        W32116  20.930   3.067  25.896
31252W        W32117  19.545   0.742  28.802
31253W        W32118  19.365   1.326  28.043
31254W        W32119  21.457   2.821  28.320
31255W        W32120  20.557   0.771  28.697
31256W        W32121  18.401   1.242  28.474
31257W        W32122  20.161   1.719  28.200
31258W        W32123  18.518   2.477  26.857
31259W        W32124  18.665   1.774  27.747
31260W        W32125  20.982   2.060  28.097
31261W        W32126  20.754   3.440  28.908
31262W        W32127  20.650   1.179  28.461
31263W        W32128  20.927   3.233  26.866
31264W        W32129  19.929   2.953  28.189
31265W        W32130  19.414   3.308  27.458
31266W        W32131  21.219   2.479  27.877
31267W        W32132  20.269   2.551  29.014
31268W        W32133  18.874   2.504  27.353
31269W        W32134  21.220   2.263  26.998
31270W        W32135  20.861   3.329  27.749
31271W        W32136  18.839   3.058  27.619
31272W        W32137  19.860   1.110  28.829
31273W        W32138  20.311   3.276  26.340
31274W        W32139  19.619   2.531  28.978
31275W        W32140  19.745   2.769  26.355
31276W        W32141  18.966   1.509  25.614
31277W        W32142  18.305   7.239   3.359
31278W        W32143  18.681   6.132   2.882
31279W        W32144  21.386   5.862   0.652
31280W        W32145  21.516   6.947   2.679
31281W        W32146  19.434   6.938   0.205
31282W        W32147  19.517   5.090   1.188
31283W        W32148  19.032   4.938   1.352
31284W        W32149  20.023   5.753   0.786
31285W        W32150  19.698   6.845   3.141
31286W        W32151  18.347   4.406   3.104
31287W        W32152  19.109   3.686   2.906
31288W        W32153  20.803   4.074   1.793
31289W        W32154  20.452   4.945   0.363
31290W        W32155  21.022   4.379   3.454
31291W        W32156  18.388   4.171   2.579
31292W        W32157  18.487   6.790   3.600
31293W        W32158  20.009   6.180   0.332
31294W        W32159  18.441   4.963   2.025
31295W        W32160  19.334   4.854   3.262
31296W        W32161  21.793   4.713   1.761
31297W        W32162  21.557   5.756   2.620
31298W        W32163  19.865   5.089   1.647
31299W        W32164  20.411   6.428   2.016
31300W        W32165  18.911   5.862   2.248
31301W        W32166  18.270   5.390   1.819
31302W        W32167  19.306   5.362   3.011
31303W        W32168  21.577   5.145   3.265
31304W        W32169  19.193   6.589   1.710
31305W        W32170  20.314   6.278   2.844
31306W        W32171  19.534   4.918   2.069
31307W        W32172  19.826   5.702   1.712
31308W        W32173  20.823   6.475   3.560
31309W        W32174  19.902   5.795   3.570
31310W        W32175  19.883   5.511   3.048
31311W        W32176  18.292   4.902   3.570
31312W        W32177  21.124   6.437   3.169
31313W        W32178  18.705   4.019   1.167
31314W        W32179  19.232   6.277   2.166
31315W        W32180  21.695   6.060   1.456
31316W        W32181  21.108   4.460   2.023
31317W        W32182  21.393   4.413   0.118
31318W        W32183  21.858   5.214   2.424
31319W        W32184  19.825   6.921   2.177
31320W        W32185  21.599   6.387   0.615
31321W        W32186  18.728   7.173   0.369
31322W        W32187  19.121   7.219   1.045
31323W        W32188  18.918   3.973   2.471
31324W        W32189  21.541   4.991   2.746
31325W        W32190  20.946   5.413   1.205
31326W        W32191  20.912   5.101   0.232
31327W        W32192  20.120   6.245   2.372
31328W        W32193  19.926   4.575   1.571
31329W        W32194  20.526   6.662   2.565
31330W        W32195  21.397   5.453   0.987
31331W        W32196  20.299   4.111   1.003
31332W        W32197  18.956   6.805   0.686
31333W        W32198  18.327   4.304   1.285
31334W        W32199  21.113   4.911   1.759
31335W        W32200  18.571   6.528   1.674
31336W        W32201  19.912   6.878   0.544
31337W        W32202  21.304   4.904   0.008
31338W        W32203  18.327   6.662   2.172
31339W        W32204  19.118   6.234   2.652
31340W        W32205  19.491   5.594   1.271
31341W        W32206  19.513   3.999   2.364
31342W        W32207  21.742   3.761   1.661
31343W        W32208  18.961   5.633   0.129
31344W        W32209  18.616   4.666   0.308
31345W        W32210  18.678   6.622   1.102
31346W        W32211  19.809   6.105   1.350
31347W        W32212  21.141   6.964   3.064
31348W        W32213  20.067   4.606   0.748
31349W        W32214  21.450   7.004   1.520
31350W        W32215  21.127   4.857   3.118
31351W        W32216  21.840   6.513   1.252
31352W        W32217  20.467   5.805   2.736
31353W        W32218  18.233   5.356   0.942
31354W        W32219  19.344   5.771   2.515
31355W        W32220  20.548   5.035   0.893
31356W        W32221  20.425   5.525   0.997
31357W        W32222  18.768   4.945   2.471
31358W        W32223  18.753   4.821   3.393
31359W        W32224  18.643   3.738   1.552
31360W        W32225  20.411   4.085   2.113
31361W        W32226  20.059   4.270   3.276
31362W        W32227  20.414   4.419   0.454
31363W        W32228  21.597   6.812   3.208
31364W        W32229  20.564   3.893   3.247
31365W        W32230  21.583   6.194   3.369
31366W        W32231  21.013   4.361   2.965
31367W        W32232  20.813   4.299   1.235
31368W        W32233  21.206   5.433   3.639
31369W        W32234  18.946   7.009   1.625
31370W        W32235  19.604   4.726   0.611
31371W        W32236  19.173   4.010   3.275
31372W        W32237  21.225   4.494   0.956
31373W        W32238  21.592   4.976   0.901
31374W        W32239  19.335   7.193   3.372
31375W        W32240  19.261   3.729   0.607
31376W        W32241  21.582   4.263   1.642
31377W        W32242  21.732   6.512   0.087
31378W        W32243  18.639   5.715   1.789
31379W        W32244  20.556   4.302   0.019
31380W        W32245  21.690   6.634   1.739
31381W        W32246  21.729   3.828   2.489
31382W        W32247  20.174   5.040   3.043
31383W        W32248  20.267   6.379   0.746
31384W        W32249  20.667   5.673   3.486
31385W        W32250  20.341   3.650   1.795
31386W        W32251  18.953   4.553   1.858
31387W        W32252  18.507   5.753   2.632
31388W        W32253  20.366   6.946   1.338
31389W        W32254  21.560   4.543   2.210
31390W        W32255  20.197   6.890   2.977
31391W        W32256  21.540   5.949   0.182
31392W        W32257  19.975   5.432   1.243
31393W        W32258  21.827   3.943   2.984
31394W        W32259  19.976   5.778   2.578
31395W        W32260  20.193   4.664   2.023
31396W        W32261  21.045   4.962   0.861
31397W        W32262  21.332   4.695   0.503
31398W        W32263  21.141   6.735   0.892
31399W        W32264  20.975   6.338   1.688
31400W        W32265  20.871   5.417   0.666
31401W        W32266  20.304   5.627   1.652
31402W        W32267  21.185   5.415   1.719
31403W        W32268  18.560   4.430   2.143
31404W        W32269  21.338   5.482   2.970
31405W        W32270  21.689   7.100   2.116
31406W        W32271  19.619   6.544   1.518
31407W        W32272  20.626   7.077   2.842
31408W        W32273  20.620   4.407   2.606
31409W        W32274  19.827   7.115   2.667
31410W        W32275  21.524   4.069   1.133
31411W        W32276  21.315   5.388   2.434
31412W        W32277  18.298   4.709   2.472
31413W        W32278  21.158   4.504   1.490
31414W        W32279  21.569   4.655   3.267
31415W        W32280  20.454   6.354   1.485
31416W        W32281  19.710   6.945   1.098
31417W        W32282  18.825   4.125   0.356
31418W        W32283  19.929   3.779   2.166
31419W        W32284  18.957   6.899   0.014
31420W        W32285  19.331   5.365   0.765
31421W        W32286  19.985   5.994   3.078
31422W        W32287  19.815   4.352   1.068
31423W        W32288  21.171   3.949   1.496
31424W        W32289  20.891   7.231   1.824
31425W        W32290  20.303   6.879   2.164
31426W        W32291  19.699   5.916   2.125
31427W        W32292  21.469   6.639   2.251
31428W        W32293  19.163   4.142   1.020
31429W        W32294  19.685   6.439   1.980
31430W        W32295  19.168   4.370   0.045
31431W        W32296  19.969   4.979   2.439
31432W        W32297  20.817   3.845   2.309
31433W        W32298  18.237   5.688   2.194
31434W        W32299  19.941   5.506   0.352
31435W        W32300  19.209   3.821   0.122
31436W        W32301  19.947   4.902   1.173
31437W        W32302  20.917   3.878   2.872
31438W        W32303  19.505   5.890   2.981
31439W        W32304  20.309   5.672   3.198
31440W        W32305  20.926   5.702   3.091
31441W        W32306  20.210   3.842   3.596
31442W        W32307  19.432   4.458   1.989
31443W        W32308  18.858   4.414   1.387
31444W        W32309  18.644   7.126   1.063
31445W        W32310  19.976   6.456   3.188
31446W        W32311  19.011   5.941   0.547
31447W        W32312  20.691   5.326   1.768
31448W        W32313  20.971   5.125   2.167
31449W        W32314  20.176   5.799   2.101
31450W        W32315  20.646   6.173   0.233
31451W        W32316  20.318   4.194   1.561
31452W        W32317  21.797   4.472   0.829
31453W        W32318  18.291   7.061   2.860
31454W        W32319  18.708   6.287   2.392
31455W        W32320  18.275   7.133   0.624
31456W        W32321  20.174   4.403   2.430
31457W        W32322  19.537   6.426   0.279
31458W        W32323  21.442   6.808   0.465
31459W        W32324  20.417   5.461   0.479
31460W        W32325  19.260   4.652   0.996
31461W        W32326  20.092   4.562   0.048
31462W        W32327  20.676   6.127   3.226
31463W        W32328  21.029   4.033   0.843
31464W        W32329  18.359   3.881   0.291
31465W        W32330  19.645   6.200   2.581
31466W        W32331  19.444   6.116   1.673
31467W        W32332  19.186   6.068   0.071
31468W        W32333  18.427   6.309   0.839
31469W        W32334  18.931   5.379   3.281
31470W        W32335  19.635   3.939   3.467
31471W        W32336  20.344   4.081   2.823
31472W        W32337  19.539   3.849   1.104
31473W        W32338  20.598   3.926   0.609
31474W        W32339  18.543   3.858   2.186
31475W        W32340  18.591   4.821   1.556
31476W        W32341  21.280   3.929   1.962
31477W        W32342  18.702   4.427   0.776
31478W        W32343  21.273   4.115   2.392
31479W        W32344  21.669   5.318   0.077
31480W        W32345  18.961   4.076   1.896
31481W        W32346  20.075   4.648   2.836
31482W        W32347  18.223   4.338   0.314
31483W        W32348  19.009   5.727   2.875
31484W        W32349  20.367   5.125   2.054
31485W        W32350  20.234   7.204   0.350
31486W        W32351  18.380   5.711   0.047
31487W        W32352  19.115   6.122   3.173
31488W        W32353  18.636   5.289   2.804
31489W        W32354  19.627   5.394   2.598
31490W        W32355  21.395   3.753   2.860
31491W        W32356  21.793   5.363   2.851
31492W        W32357  21.781   5.563   0.537
31493W        W32358  20.644   5.895   0.636
31494W        W32359  21.118   7.195   0.331
31495W        W32360  20.295   5.185   3.473
31496W        W32361  18.625   6.152   3.513
31497W        W32362  21.831   4.074   3.465
31498W        W32363  21.549   5.002   2.086
31499W        W32364  19.857   7.132   3.563
31500W        W32365  19.712   3.761   0.290
31501W        W32366  21.251   6.360   0.233
31502W        W32367  19.020   4.453   3.119
31503W        W32368  19.454   6.447   2.981
31504W        W32369  21.580   4.438   2.779
31505W        W32370  20.791   7.097   0.747
31506W        W32371  21.030   5.716   2.114
31507W        W32372  19.280   4.132   2.781
31508W        W32373  19.749   5.201   3.538
31509W        W32374  19.252   6.380   0.732
31510W        W32375  21.007   5.878   0.996
31511W        W32376  18.775   4.504   2.720
31512W        W32377  20.104   6.566   1.184
31513W        W32378  21.854   5.126   1.365
31514W        W32379  20.076   3.759   3.084
31515W        W32380  20.856   6.464   2.163
31516W        W32381  21.159   6.808   1.871
31517W        W32382  20.378   6.610   0.299
31518W        W32383  18.388   6.502   3.141
31519W        W32384  19.131   4.494   2.379
31520W        W32385  19.101   3.842   1.489
31521W        W32386  20.722   4.684   2.181
31522W        W32387  19.520   5.855   0.381
31523W        W32388  21.518   5.797   1.880
31524W        W32389  18.845   6.555   3.303
31525W        W32390  21.232   7.237   1.100
31526W        W32391  19.331   4.257   1.545
31527W        W32392  19.100   5.750   1.635
31528W        W32393  19.413   7.161   2.385
31529W        W32394  21.480   7.257   3.417
31530W        W32395  20.639   5.445   2.350
31531W        W32396  18.488   5.243   0.265
31532W        W32397  21.622   6.901   0.962
31533W        W32398  21.459   4.225   0.581
31534W        W32399  19.598   3.744   2.984
31535W        W32400  21.304   6.546   1.442
31536W        W32401  21.333   5.102   1.347
31537W        W32402  19.450   4.775   1.563
31538W        W32403  19.695   5.037   2.887
31539W        W32404  20.806   6.190   2.750
31540W        W32405  19.456   4.644   2.862
31541W        W32406  19.435   7.110   1.478
31542W        W32407  18.752   7.069   3.112
31543W        W32408  18.864   6.430   0.242
31544W        W32409  21.381   6.188   1.052
31545W        W32410  18.985   4.980   2.938
31546W        W32411  21.758   4.910   0.419
31547W        W32412  19.503   5.967   0.890
31548W        W32413  20.602   5.349   2.971
31549W        W32414  20.493   4.977   2.515
31550W        W32415  19.053   5.349   2.544
31551W        W32416  21.263   7.237   2.373
31552W        W32417  21.054   3.871   3.367
31553W        W32418  18.718   4.021   2.954
31554W        W32419  19.057   5.044   2.007
31555W        W32420  19.426   4.858   0.129
31556W        W32421  18.229   6.617   2.674
31557W        W32422  19.814   5.326   2.117
31558W        W32423  19.637   4.351   0.222
31559W        W32424  18.772   5.167   1.003
31560W        W32425  18.543   7.019   2.440
31561W        W32426  21.338   5.245   0.548
31562W        W32427  21.433   4.161   3.234
31563W        W32428  20.869   6.370   1.197
31564W        W32429  18.467   5.294   3.374
31565W        W32430  21.433   3.758   0.670
31566W        W32431  20.953   6.233   0.681
31567W        W32432  19.855   5.291   0.766
31568W        W32433  21.042   4.095   0.289
31569W        W32434  21.107   4.702   2.475
31570W        W32435  18.816   5.295   1.682
31571W        W32436  19.110   6.234   1.331
31572W        W32437  20.873   4.854   1.296
31573W        W32438  19.896   4.233   1.992
31574W        W32439  21.858   6.144   2.503
31575W        W32440  21.776   4.131   2.064
31576W        W32441  18.315   6.961   1.440
31577W        W32442  18.824   6.148   0.976
31578W        W32443  18.739   3.765   3.529
31579W        W32444  19.858   6.618   3.631
31580W        W32445  21.613   5.586   1.421
31581W        W32446  20.967   5.763   0.301
31582W        W32447  20.262   7.284   2.513
31583W        W32448  21.119   6.006   3.550
31584W        W32449  19.934   3.716   0.830
31585W        W32450  20.647   4.585   1.689
31586W        W32451  18.333   6.172   2.021
31587W        W32452  19.586   4.134   0.662
31588W        W32453  19.390   5.618   3.511
31589W        W32454  20.384   4.599   1.225
31590W        W32455  20.589   6.009   2.347
31591W        W32456  18.743   6.614   2.782
31592W        W32457  19.334   6.597   3.505
31593W        W32458  19.185   4.394   0.519
31594W        W32459  20.702   4.536   0.844
31595W        W32460  20.660   6.644   3.081
31596W        W32461  19.345   5.236   1.680
31597W        W32462  19.000   6.934   2.545
31598W        W32463  21.745   7.051   0.146
31599W        W32464  18.608   5.723   3.142
31600W        W32465  20.603   5.985   1.830
31601W        W32466  19.039   5.634   1.072
31602W        W32467  19.410   6.641   2.467
31603W        W32468  19.788   4.060   1.508
31604W        W32469  18.399   6.044   0.438
31605W        W32470  19.918   4.995   0.308
31606W        W32471  18.564   5.544   1.327
31607W        W32472  19.854   4.186   2.791
31608W        W32473  21.526   3.895   0.218
31609W        W32474  21.619   5.641   3.317
31610W        W32475  20.273   6.898   3.469
31611W        W32476  21.831   5.992   2.991
31612W        W32477  21.239   6.790   3.602
31613W        W32478  18.978   7.246   2.080
31614W        W32479  21.837   5.868   0.954
31615W        W32480  20.367   5.135   1.467
31616W        W32481  20.134   3.747   1.357
31617W        W32482  19.193   6.731   1.194
31618W        W32483  19.692   4.472   2.419
31619W        W32484  19.392   3.841   1.888
31620W        W32485  18.455   6.663   0.436
31621W        W32486  20.271   6.027   1.154
31622W        W32487  19.146   6.822   3.033
31623W        W32488  18.623   5.645   0.729
31624W        W32489  18.508   4.188   1.728
31625W        W32490  20.056   6.153   1.785
31626W        W32491  18.308   4.007   0.805
31627W        W32492  20.972   5.213   2.732
31628W        W32493  20.849   4.599   0.304
31629W        W32494  21.366   6.271   1.952
31630W        W32495  20.027   6.755   1.783
31631W        W32496  19.439   6.859   0.694
31632W        W32497  20.721   3.762   0.124
31633W        W32498  18.521   7.022   1.865
31634W        W32499  20.718   4.780   3.500
31635W        W32500  18.701   4.310   3.499
31636W        W32501  18.432   4.910   0.832
31637W        W32502  19.123   4.899   0.557
31638W        W32503  20.886   5.226   3.374
31639W        W32504  19.229   5.507   2.083
31640W        W32505  20.703   3.793   1.203
31641W        W32506  19.834   7.224   1.706
31642W        W32507  21.048   6.686   2.643
31643W        W32508  20.632   6.835   1.754
31644W        W32509  20.651   5.815   1.348
31645W        W32510  20.113   4.040   0.419
31646W        W32511  21.794   3.668   1.141
31647W        W32512  19.482   5.303   0.304
31648W        W32513  21.648   4.640   1.294
31649W        W32514  20.340   5.810   0.171
31650W        W32515  21.276   6.010   2.919
31651W        W32516  20.930   6.711   0.386
31652W        W32517  19.545   4.386   3.292
31653W        W32518  19.365   4.970   2.533
31654W        W32519  21.457   6.465   2.810
31655W        W32520  20.557   4.415   3.187
31656W        W32521  18.401   4.886   2.964
31657W        W32522  20.161   5.363   2.690
31658W        W32523  18.518   6.121   1.347
31659W        W32524  18.665   5.418   2.237
31660W        W32525  20.982   5.704   2.587
31661W        W32526  20.754   7.084   3.398
31662W        W32527  20.650   4.823   2.951
31663W        W32528  20.927   6.877   1.356
31664W        W32529  19.929   6.597   2.679
31665W        W32530  19.414   6.952   1.948
31666W        W32531  21.219   6.123   2.367
31667W        W32532  20.269   6.195   3.504
31668W        W32533  18.874   6.148   1.843
31669W        W32534  21.220   5.907   1.488
31670W        W32535  20.861   6.973   2.239
31671W        W32536  18.839   6.702   2.109
31672W        W32537  19.860   4.754   3.319
31673W        W32538  20.311   6.920   0.830
31674W        W32539  19.619   6.175   3.468
31675W        W32540  19.745   6.413   0.845
31676W        W32541  18.966   5.153   0.104
31677W        W32542  18.305   7.239   7.003
31678W        W32543  18.681   6.132   6.526
31679W        W32544  21.386   5.862   4.296
31680W        W32545  21.516   6.947   6.323
31681W        W32546  19.434   6.938   3.849
31682W        W32547  19.517   5.090   4.832
31683W        W32548  19.032   4.938   4.996
31684W        W32549  20.023   5.753   4.430
31685W        W32550  19.698   6.845   6.785
31686W        W32551  18.347   4.406   6.748
31687W        W32552  19.109   3.686   6.550
31688W        W32553  20.803   4.074   5.437
31689W        W32554  20.452   4.945   4.007
31690W        W32555  21.022   4.379   7.098
31691W        W32556  18.388   4.171   6.223
31692W        W32557  18.487   6.790   7.244
31693W        W32558  20.009   6.180   3.976
31694W        W32559  18.441   4.963   5.669
31695W        W32560  19.334   4.854   6.906
31696W        W32561  21.793   4.713   5.405
31697W        W32562  21.557   5.756   6.264
31698W        W32563  19.865   5.089   5.291
31699W        W32564  20.411   6.428   5.660
31700W        W32565  18.911   5.862   5.892
31701W        W32566  18.270   5.390   5.463
31702W        W32567  19.306   5.362   6.655
31703W        W32568  21.577   5.145   6.909
31704W        W32569  19.193   6.589   5.354
31705W        W32570  20.314   6.278   6.488
31706W        W32571  19.534   4.918   5.713
31707W        W32572  19.826   5.702   5.356
31708W        W32573  20.823   6.475   7.204
31709W        W32574  19.902   5.795   7.214
31710W        W32575  19.883   5.511   6.692
31711W        W32576  18.292   4.902   7.214
31712W        W32577  21.124   6.437   6.813
31713W        W32578  18.705   4.019   4.811
31714W        W32579  19.232   6.277   5.810
31715W        W32580  21.695   6.060   5.100
31716W        W32581  21.108   4.460   5.667
31717W        W32582  21.393   4.413   3.762
31718W        W32583  21.858   5.214   6.068
31719W        W32584  19.825   6.921   5.821
31720W        W32585  21.599   6.387   4.259
31721W        W32586  18.728   7.173   4.013
31722W        W32587  19.121   7.219   4.689
31723W        W32588  18.918   3.973   6.115
31724W        W32589  21.541   4.991   6.390
31725W        W32590  20.946   5.413   4.849
31726W        W32591  20.912   5.101   3.876
31727W        W32592  20.120   6.245   6.016
31728W        W32593  19.926   4.575   5.215
31729W        W32594  20.526   6.662   6.209
31730W        W32595  21.397   5.453   4.631
31731W        W32596  20.299   4.111   4.647
31732W        W32597  18.956   6.805   4.330
31733W        W32598  18.327   4.304   4.929
31734W        W32599  21.113   4.911   5.403
31735W        W32600  18.571   6.528   5.318
31736W        W32601  19.912   6.878   4.188
31737W        W32602  21.304   4.904   3.652
31738W        W32603  18.327   6.662   5.816
31739W        W32604  19.118   6.234   6.296
31740W        W32605  19.491   5.594   4.915
31741W        W32606  19.513   3.999   6.008
31742W        W32607  21.742   3.761   5.305
31743W        W32608  18.961   5.633   3.773
31744W        W32609  18.616   4.666   3.952
31745W        W32610  18.678   6.622   4.746
31746W        W32611  19.809   6.105   4.994
31747W        W32612  21.141   6.964   6.708
31748W        W32613  20.067   4.606   4.392
31749W        W32614  21.450   7.004   5.164
31750W        W32615  21.127   4.857   6.762
31751W        W32616  21.840   6.513   4.896
31752W        W32617  20.467   5.805   6.380
31753W        W32618  18.233   5.356   4.586
31754W        W32619  19.344   5.771   6.159
31755W        W32620  20.548   5.035   4.537
31756W        W32621  20.425   5.525   4.641
31757W        W32622  18.768   4.945   6.115
31758W        W32623  18.753   4.821   7.037
31759W        W32624  18.643   3.738   5.196
31760W        W32625  20.411   4.085   5.757
31761W        W32626  20.059   4.270   6.920
31762W        W32627  20.414   4.419   4.098
31763W        W32628  21.597   6.812   6.852
31764W        W32629  20.564   3.893   6.891
31765W        W32630  21.583   6.194   7.013
31766W        W32631  21.013   4.361   6.609
31767W        W32632  20.813   4.299   4.879
31768W        W32633  21.206   5.433   7.283
31769W        W32634  18.946   7.009   5.269
31770W        W32635  19.604   4.726   4.255
31771W        W32636  19.173   4.010   6.919
31772W        W32637  21.225   4.494   4.600
31773W        W32638  21.592   4.976   4.545
31774W        W32639  19.335   7.193   7.016
31775W        W32640  19.261   3.729   4.251
31776W        W32641  21.582   4.263   5.286
31777W        W32642  21.732   6.512   3.731
31778W        W32643  18.639   5.715   5.433
31779W        W32644  20.556   4.302   3.663
31780W        W32645  21.690   6.634   5.383
31781W        W32646  21.729   3.828   6.133
31782W        W32647  20.174   5.040   6.687
31783W        W32648  20.267   6.379   4.390
31784W        W32649  20.667   5.673   7.130
31785W        W32650  20.341   3.650   5.439
31786W        W32651  18.953   4.553   5.502
31787W        W32652  18.507   5.753   6.276
31788W        W32653  20.366   6.946   4.982
31789W        W32654  21.560   4.543   5.854
31790W        W32655  20.197   6.890   6.621
31791W        W32656  21.540   5.949   3.826
31792W        W32657  19.975   5.432   4.887
31793W        W32658  21.827   3.943   6.628
31794W        W32659  19.976   5.778   6.222
31795W        W32660  20.193   4.664   5.667
31796W        W32661  21.045   4.962   4.505
31797W        W32662  21.332   4.695   4.147
31798W        W32663  21.141   6.735   4.536
31799W        W32664  20.975   6.338   5.332
31800W        W32665  20.871   5.417   4.310
31801W        W32666  20.304   5.627   5.296
31802W        W32667  21.185   5.415   5.363
31803W        W32668  18.560   4.430   5.787
31804W        W32669  21.338   5.482   6.614
31805W        W32670  21.689   7.100   5.760
31806W        W32671  19.619   6.544   5.162
31807W        W32672  20.626   7.077   6.486
31808W        W32673  20.620   4.407   6.250
31809W        W32674  19.827   7.115   6.311
31810W        W32675  21.524   4.069   4.777
31811W        W32676  21.315   5.388   6.078
31812W        W32677  18.298   4.709   6.116
31813W        W32678  21.158   4.504   5.134
31814W        W32679  21.569   4.655   6.911
31815W        W32680  20.454   6.354   5.129
31816W        W32681  19.710   6.945   4.742
31817W        W32682  18.825   4.125   4.000
31818W        W32683  19.929   3.779   5.810
31819W        W32684  18.957   6.899   3.658
31820W        W32685  19.331   5.365   4.409
31821W        W32686  19.985   5.994   6.722
31822W        W32687  19.815   4.352   4.712
31823W        W32688  21.171   3.949   5.140
31824W        W32689  20.891   7.231   5.468
31825W        W32690  20.303   6.879   5.808
31826W        W32691  19.699   5.916   5.769
31827W        W32692  21.469   6.639   5.895
31828W        W32693  19.163   4.142   4.664
31829W        W32694  19.685   6.439   5.624
31830W        W32695  19.168   4.370   3.689
31831W        W32696  19.969   4.979   6.083
31832W        W32697  20.817   3.845   5.953
31833W        W32698  18.237   5.688   5.838
31834W        W32699  19.941   5.506   3.996
31835W        W32700  19.209   3.821   3.766
31836W        W32701  19.947   4.902   4.817
31837W        W32702  20.917   3.878   6.516
31838W        W32703  19.505   5.890   6.625
31839W        W32704  20.309   5.672   6.842
31840W        W32705  20.926   5.702   6.735
31841W        W32706  20.210   3.842   7.240
31842W        W32707  19.432   4.458   5.633
31843W        W32708  18.858   4.414   5.031
31844W        W32709  18.644   7.126   4.707
31845W        W32710  19.976   6.456   6.832
31846W        W32711  19.011   5.941   4.191
31847W        W32712  20.691   5.326   5.412
31848W        W32713  20.971   5.125   5.811
31849W        W32714  20.176   5.799   5.745
31850W        W32715  20.646   6.173   3.877
31851W        W32716  20.318   4.194   5.205
31852W        W32717  21.797   4.472   4.473
31853W        W32718  18.291   7.061   6.504
31854W        W32719  18.708   6.287   6.036
31855W        W32720  18.275   7.133   4.268
31856W        W32721  20.174   4.403   6.074
31857W        W32722  19.537   6.426   3.923
31858W        W32723  21.442   6.808   4.109
31859W        W32724  20.417   5.461   4.123
31860W        W32725  19.260   4.652   4.640
31861W        W32726  20.092   4.562   3.692
31862W        W32727  20.676   6.127   6.870
31863W        W32728  21.029   4.033   4.487
31864W        W32729  18.359   3.881   3.935
31865W        W32730  19.645   6.200   6.225
31866W        W32731  19.444   6.116   5.317
31867W        W32732  19.186   6.068   3.715
31868W        W32733  18.427   6.309   4.483
31869W        W32734  18.931   5.379   6.925
31870W        W32735  19.635   3.939   7.111
31871W        W32736  20.344   4.081   6.467
31872W        W32737  19.539   3.849   4.748
31873W        W32738  20.598   3.926   4.253
31874W        W32739  18.543   3.858   5.830
31875W        W32740  18.591   4.821   5.200
31876W        W32741  21.280   3.929   5.606
31877W        W32742  18.702   4.427   4.420
31878W        W32743  21.273   4.115   6.036
31879W        W32744  21.669   5.318   3.721
31880W        W32745  18.961   4.076   5.540
31881W        W32746  20.075   4.648   6.480
31882W        W32747  18.223   4.338   3.958
31883W        W32748  19.009   5.727   6.519
31884W        W32749  20.367   5.125   5.698
31885W        W32750  20.234   7.204   3.994
31886W        W32751  18.380   5.711   3.691
31887W        W32752  19.115   6.122   6.817
31888W        W32753  18.636   5.289   6.448
31889W        W32754  19.627   5.394   6.242
31890W        W32755  21.395   3.753   6.504
31891W        W32756  21.793   5.363   6.495
31892W        W32757  21.781   5.563   4.181
31893W        W32758  20.644   5.895   4.280
31894W        W32759  21.118   7.195   3.975
31895W        W32760  20.295   5.185   7.117
31896W        W32761  18.625   6.152   7.157
31897W        W32762  21.831   4.074   7.109
31898W        W32763  21.549   5.002   5.730
31899W        W32764  19.857   7.132   7.207
31900W        W32765  19.712   3.761   3.934
31901W        W32766  21.251   6.360   3.877
31902W        W32767  19.020   4.453   6.763
31903W        W32768  19.454   6.447   6.625
31904W        W32769  21.580   4.438   6.423
31905W        W32770  20.791   7.097   4.391
31906W        W32771  21.030   5.716   5.758
31907W        W32772  19.280   4.132   6.425
31908W        W32773  19.749   5.201   7.182
31909W        W32774  19.252   6.380   4.376
31910W        W32775  21.007   5.878   4.640
31911W        W32776  18.775   4.504   6.364
31912W        W32777  20.104   6.566   4.828
31913W        W32778  21.854   5.126   5.009
31914W        W32779  20.076   3.759   6.728
31915W        W32780  20.856   6.464   5.807
31916W        W32781  21.159   6.808   5.515
31917W        W32782  20.378   6.610   3.943
31918W        W32783  18.388   6.502   6.785
31919W        W32784  19.131   4.494   6.023
31920W        W32785  19.101   3.842   5.133
31921W        W32786  20.722   4.684   5.825
31922W        W32787  19.520   5.855   4.025
31923W        W32788  21.518   5.797   5.524
31924W        W32789  18.845   6.555   6.947
31925W        W32790  21.232   7.237   4.744
31926W        W32791  19.331   4.257   5.189
31927W        W32792  19.100   5.750   5.279
31928W        W32793  19.413   7.161   6.029
31929W        W32794  21.480   7.257   7.061
31930W        W32795  20.639   5.445   5.994
31931W        W32796  18.488   5.243   3.909
31932W        W32797  21.622   6.901   4.606
31933W        W32798  21.459   4.225   4.225
31934W        W32799  19.598   3.744   6.628
31935W        W32800  21.304   6.546   5.086
31936W        W32801  21.333   5.102   4.991
31937W        W32802  19.450   4.775   5.207
31938W        W32803  19.695   5.037   6.531
31939W        W32804  20.806   6.190   6.394
31940W        W32805  19.456   4.644   6.506
31941W        W32806  19.435   7.110   5.122
31942W        W32807  18.752   7.069   6.756
31943W        W32808  18.864   6.430   3.886
31944W        W32809  21.381   6.188   4.696
31945W        W32810  18.985   4.980   6.582
31946W        W32811  21.758   4.910   4.063
31947W        W32812  19.503   5.967   4.534
31948W        W32813  20.602   5.349   6.615
31949W        W32814  20.493   4.977   6.159
31950W        W32815  19.053   5.349   6.188
31951W        W32816  21.263   7.237   6.017
31952W        W32817  21.054   3.871   7.011
31953W        W32818  18.718   4.021   6.598
31954W        W32819  19.057   5.044   5.651
31955W        W32820  19.426   4.858   3.773
31956W        W32821  18.229   6.617   6.318
31957W        W32822  19.814   5.326   5.761
31958W        W32823  19.637   4.351   3.866
31959W        W32824  18.772   5.167   4.647
31960W        W32825  18.543   7.019   6.084
31961W        W32826  21.338   5.245   4.192
31962W        W32827  21.433   4.161   6.878
31963W        W32828  20.869   6.370   4.841
31964W        W32829  18.467   5.294   7.018
31965W        W32830  21.433   3.758   4.314
31966W        W32831  20.953   6.233   4.325
31967W        W32832  19.855   5.291   4.410
31968W        W32833  21.042   4.095   3.933
31969W        W32834  21.107   4.702   6.119
31970W        W32835  18.816   5.295   5.326
31971W        W32836  19.110   6.234   4.975
31972W        W32837  20.873   4.854   4.940
31973W        W32838  19.896   4.233   5.636
31974W        W32839  21.858   6.144   6.147
31975W        W32840  21.776   4.131   5.708
31976W        W32841  18.315   6.961   5.084
31977W        W32842  18.824   6.148   4.620
31978W        W32843  18.739   3.765   7.173
31979W        W32844  19.858   6.618   7.275
31980W        W32845  21.613   5.586   5.065
31981W        W32846  20.967   5.763   3.945
31982W        W32847  20.262   7.284   6.157
31983W        W32848  21.119   6.006   7.194
31984W        W32849  19.934   3.716   4.474
31985W        W32850  20.647   4.585   5.333
31986W        W32851  18.333   6.172   5.665
31987W        W32852  19.586   4.134   4.306
31988W        W32853  19.390   5.618   7.155
31989W        W32854  20.384   4.599   4.869
31990W        W32855  20.589   6.009   5.991
31991W        W32856  18.743   6.614   6.426
31992W        W32857  19.334   6.597   7.149
31993W        W32858  19.185   4.394   4.163
31994W        W32859  20.702   4.536   4.488
31995W        W32860  20.660   6.644   6.725
31996W        W32861  19.345   5.236   5.324
31997W        W32862  19.000   6.934   6.189
31998W        W32863  21.745   7.051   3.790
31999W        W32864  18.608   5.723   6.786
32000W        W32865  20.603   5.985   5.474
32001W        W32866  19.039   5.634   4.716
32002W        W32867  19.410   6.641   6.111
32003W        W32868  19.788   4.060   5.152
32004W        W32869  18.399   6.044   4.082
32005W        W32870  19.918   4.995   3.952
32006W        W32871  18.564   5.544   4.971
32007W        W32872  19.854   4.186   6.435
32008W        W32873  21.526   3.895   3.862
32009W        W32874  21.619   5.641   6.961
32010W        W32875  20.273   6.898   7.113
32011W        W32876  21.831   5.992   6.635
32012W        W32877  21.239   6.790   7.246
32013W        W32878  18.978   7.246   5.724
32014W        W32879  21.837   5.868   4.598
32015W        W32880  20.367   5.135   5.111
32016W        W32881  20.134   3.747   5.001
32017W        W32882  19.193   6.731   4.838
32018W        W32883  19.692   4.472   6.063
32019W        W32884  19.392   3.841   5.532
32020W        W32885  18.455   6.663   4.080
32021W        W32886  20.271   6.027   4.798
32022W        W32887  19.146   6.822   6.677
32023W        W32888  18.623   5.645   4.373
32024W        W32889  18.508   4.188   5.372
32025W        W32890  20.056   6.153   5.429
32026W        W32891  18.308   4.007   4.449
32027W        W32892  20.972   5.213   6.376
32028W        W32893  20.849   4.599   3.948
32029W        W32894  21.366   6.271   5.596
32030W        W32895  20.027   6.755   5.427
32031W        W32896  19.439   6.859   4.338
32032W        W32897  20.721   3.762   3.768
32033W        W32898  18.521   7.022   5.509
32034W        W32899  20.718   4.780   7.144
32035W        W32900  18.701   4.310   7.143
32036W        W32901  18.432   4.910   4.476
32037W        W32902  19.123   4.899   4.201
32038W        W32903  20.886   5.226   7.018
32039W        W32904  19.229   5.507   5.727
32040W        W32905  20.703   3.793   4.847
32041W        W32906  19.834   7.224   5.350
32042W        W32907  21.048   6.686   6.287
32043W        W32908  20.632   6.835   5.398
32044W        W32909  20.651   5.815   4.992
32045W        W32910  20.113   4.040   4.063
32046W        W32911  21.794   3.668   4.785
32047W        W32912  19.482   5.303   3.948
32048W        W32913  21.648   4.640   4.938
32049W        W32914  20.340   5.810   3.815
32050W        W32915  21.276   6.010   6.563
32051W        W32916  20.930   6.711   4.030
32052W        W32917  19.545   4.386   6.936
32053W        W32918  19.365   4.970   6.177
32054W        W32919  21.457   6.465   6.454
32055W        W32920  20.557   4.415   6.831
32056W        W32921  18.401   4.886   6.608
32057W        W32922  20.161   5.363   6.334
32058W        W32923  18.518   6.121   4.991
32059W        W32924  18.665   5.418   5.881
32060W        W32925  20.982   5.704   6.231
32061W        W32926  20.754   7.084   7.042
32062W        W32927  20.650   4.823   6.595
32063W        W32928  20.927   6.877   5.000
32064W        W32929  19.929   6.597   6.323
32065W        W32930  19.414   6.952   5.592
32066W        W32931  21.219   6.123   6.011
32067W        W32932  20.269   6.195   7.148
32068W        W32933  18.874   6.148   5.487
32069W        W32934  21.220   5.907   5.132
32070W        W32935  20.861   6.973   5.883
32071W        W32936  18.839   6.702   5.753
32072W        W32937  19.860   4.754   6.963
32073W        W32938  20.311   6.920   4.474
32074W        W32939  19.619   6.175   7.112
32075W        W32940  19.745   6.413   4.489
32076W        W32941  18.966   5.153   3.748
32077W        W32942  18.305   7.239  10.648
32078W        W32943  18.681   6.132  10.171
32079W        W32944  21.386   5.862   7.941
32080W        W32945  21.516   6.947   9.968
32081W        W32946  19.434   6.938   7.494
32082W        W32947  19.517   5.090   8.477
32083W        W32948  19.032   4.938   8.641
32084W        W32949  20.023   5.753   8.075
32085W        W32950  19.698   6.845  10.430
32086W        W32951  18.347   4.406  10.393
32087W        W32952  19.109   3.686  10.195
32088W        W32953  20.803   4.074   9.082
32089W        W32954  20.452   4.945   7.652
32090W        W32955  21.022   4.379  10.743
32091W        W32956  18.388   4.171   9.868
32092W        W32957  18.487   6.790  10.889
32093W        W32958  20.009   6.180   7.621
32094W        W32959  18.441   4.963   9.314
32095W        W32960  19.334   4.854  10.551
32096W        W32961  21.793   4.713   9.050
32097W        W32962  21.557   5.756   9.909
32098W        W32963  19.865   5.089   8.936
32099W        W32964  20.411   6.428   9.305
32100W        W32965  18.911   5.862   9.537
32101W        W32966  18.270   5.390   9.108
32102W        W32967  19.306   5.362  10.300
32103W        W32968  21.577   5.145  10.554
32104W        W32969  19.193   6.589   8.999
32105W        W32970  20.314   6.278  10.133
32106W        W32971  19.534   4.918   9.358
32107W        W32972  19.826   5.702   9.001
32108W        W32973  20.823   6.475  10.849
32109W        W32974  19.902   5.795  10.859
32110W        W32975  19.883   5.511  10.337
32111W        W32976  18.292   4.902  10.859
32112W        W32977  21.124   6.437  10.458
32113W        W32978  18.705   4.019   8.456
32114W        W32979  19.232   6.277   9.455
32115W        W32980  21.695   6.060   8.745
32116W        W32981  21.108   4.460   9.312
32117W        W32982  21.393   4.413   7.407
32118W        W32983  21.858   5.214   9.713
32119W        W32984  19.825   6.921   9.466
32120W        W32985  21.599   6.387   7.904
32121W        W32986  18.728   7.173   7.658
32122W        W32987  19.121   7.219   8.334
32123W        W32988  18.918   3.973   9.760
32124W        W32989  21.541   4.991  10.035
32125W        W32990  20.946   5.413   8.494
32126W        W32991  20.912   5.101   7.521
32127W        W32992  20.120   6.245   9.661
32128W        W32993  19.926   4.575   8.860
32129W        W32994  20.526   6.662   9.854
32130W        W32995  21.397   5.453   8.276
32131W        W32996  20.299   4.111   8.292
32132W        W32997  18.956   6.805   7.975
32133W        W32998  18.327   4.304   8.574
32134W        W32999  21.113   4.911   9.048
32135W        W33000  18.571   6.528   8.963
32136W        W33001  19.912   6.878   7.833
32137W        W33002  21.304   4.904   7.297
32138W        W33003  18.327   6.662   9.461
32139W        W33004  19.118   6.234   9.941
32140W        W33005  19.491   5.594   8.560
32141W        W33006  19.513   3.999   9.653
32142W        W33007  21.742   3.761   8.950
32143W        W33008  18.961   5.633   7.418
32144W        W33009  18.616   4.666   7.597
32145W        W33010  18.678   6.622   8.391
32146W        W33011  19.809   6.105   8.639
32147W        W33012  21.141   6.964  10.353
32148W        W33013  20.067   4.606   8.037
32149W        W33014  21.450   7.004   8.809
32150W        W33015  21.127   4.857  10.407
32151W        W33016  21.840   6.513   8.541
32152W        W33017  20.467   5.805  10.025
32153W        W33018  18.233   5.356   8.231
32154W        W33019  19.344   5.771   9.804
32155W        W33020  20.548   5.035   8.182
32156W        W33021  20.425   5.525   8.286
32157W        W33022  18.768   4.945   9.760
32158W        W33023  18.753   4.821  10.682
32159W        W33024  18.643   3.738   8.841
32160W        W33025  20.411   4.085   9.402
32161W        W33026  20.059   4.270  10.565
32162W        W33027  20.414   4.419   7.743
32163W        W33028  21.597   6.812  10.497
32164W        W33029  20.564   3.893  10.536
32165W        W33030  21.583   6.194  10.658
32166W        W33031  21.013   4.361  10.254
32167W        W33032  20.813   4.299   8.524
32168W        W33033  21.206   5.433  10.928
32169W        W33034  18.946   7.009   8.914
32170W        W33035  19.604   4.726   7.900
32171W        W33036  19.173   4.010  10.564
32172W        W33037  21.225   4.494   8.245
32173W        W33038  21.592   4.976   8.190
32174W        W33039  19.335   7.193  10.661
32175W        W33040  19.261   3.729   7.896
32176W        W33041  21.582   4.263   8.931
32177W        W33042  21.732   6.512   7.376
32178W        W33043  18.639   5.715   9.078
32179W        W33044  20.556   4.302   7.308
32180W        W33045  21.690   6.634   9.028
32181W        W33046  21.729   3.828   9.778
32182W        W33047  20.174   5.040  10.332
32183W        W33048  20.267   6.379   8.035
32184W        W33049  20.667   5.673  10.775
32185W        W33050  20.341   3.650   9.084
32186W        W33051  18.953   4.553   9.147
32187W        W33052  18.507   5.753   9.921
32188W        W33053  20.366   6.946   8.627
32189W        W33054  21.560   4.543   9.499
32190W        W33055  20.197   6.890  10.266
32191W        W33056  21.540   5.949   7.471
32192W        W33057  19.975   5.432   8.532
32193W        W33058  21.827   3.943  10.273
32194W        W33059  19.976   5.778   9.867
32195W        W33060  20.193   4.664   9.312
32196W        W33061  21.045   4.962   8.150
32197W        W33062  21.332   4.695   7.792
32198W        W33063  21.141   6.735   8.181
32199W        W33064  20.975   6.338   8.977
32200W        W33065  20.871   5.417   7.955
32201W        W33066  20.304   5.627   8.941
32202W        W33067  21.185   5.415   9.008
32203W        W33068  18.560   4.430   9.432
32204W        W33069  21.338   5.482  10.259
32205W        W33070  21.689   7.100   9.405
32206W        W33071  19.619   6.544   8.807
32207W        W33072  20.626   7.077  10.131
32208W        W33073  20.620   4.407   9.895
32209W        W33074  19.827   7.115   9.956
32210W        W33075  21.524   4.069   8.422
32211W        W33076  21.315   5.388   9.723
32212W        W33077  18.298   4.709   9.761
32213W        W33078  21.158   4.504   8.779
32214W        W33079  21.569   4.655  10.556
32215W        W33080  20.454   6.354   8.774
32216W        W33081  19.710   6.945   8.387
32217W        W33082  18.825   4.125   7.645
32218W        W33083  19.929   3.779   9.455
32219W        W33084  18.957   6.899   7.303
32220W        W33085  19.331   5.365   8.054
32221W        W33086  19.985   5.994  10.367
32222W        W33087  19.815   4.352   8.357
32223W        W33088  21.171   3.949   8.785
32224W        W33089  20.891   7.231   9.113
32225W        W33090  20.303   6.879   9.453
32226W        W33091  19.699   5.916   9.414
32227W        W33092  21.469   6.639   9.540
32228W        W33093  19.163   4.142   8.309
32229W        W33094  19.685   6.439   9.269
32230W        W33095  19.168   4.370   7.334
32231W        W33096  19.969   4.979   9.728
32232W        W33097  20.817   3.845   9.598
32233W        W33098  18.237   5.688   9.483
32234W        W33099  19.941   5.506   7.641
32235W        W33100  19.209   3.821   7.411
32236W        W33101  19.947   4.902   8.462
32237W        W33102  20.917   3.878  10.161
32238W        W33103  19.505   5.890  10.270
32239W        W33104  20.309   5.672  10.487
32240W        W33105  20.926   5.702  10.380
32241W        W33106  20.210   3.842  10.885
32242W        W33107  19.432   4.458   9.278
32243W        W33108  18.858   4.414   8.676
32244W        W33109  18.644   7.126   8.352
32245W        W33110  19.976   6.456  10.477
32246W        W33111  19.011   5.941   7.836
32247W        W33112  20.691   5.326   9.057
32248W        W33113  20.971   5.125   9.456
32249W        W33114  20.176   5.799   9.390
32250W        W33115  20.646   6.173   7.522
32251W        W33116  20.318   4.194   8.850
32252W        W33117  21.797   4.472   8.118
32253W        W33118  18.291   7.061  10.149
32254W        W33119  18.708   6.287   9.681
32255W        W33120  18.275   7.133   7.913
32256W        W33121  20.174   4.403   9.719
32257W        W33122  19.537   6.426   7.568
32258W        W33123  21.442   6.808   7.754
32259W        W33124  20.417   5.461   7.768
32260W        W33125  19.260   4.652   8.285
32261W        W33126  20.092   4.562   7.337
32262W        W33127  20.676   6.127  10.515
32263W        W33128  21.029   4.033   8.132
32264W        W33129  18.359   3.881   7.580
32265W        W33130  19.645   6.200   9.870
32266W        W33131  19.444   6.116   8.962
32267W        W33132  19.186   6.068   7.360
32268W        W33133  18.427   6.309   8.128
32269W        W33134  18.931   5.379  10.570
32270W        W33135  19.635   3.939  10.756
32271W        W33136  20.344   4.081  10.112
32272W        W33137  19.539   3.849   8.393
32273W        W33138  20.598   3.926   7.898
32274W        W33139  18.543   3.858   9.475
32275W        W33140  18.591   4.821   8.845
32276W        W33141  21.280   3.929   9.251
32277W        W33142  18.702   4.427   8.065
32278W        W33143  21.273   4.115   9.681
32279W        W33144  21.669   5.318   7.366
32280W        W33145  18.961   4.076   9.185
32281W        W33146  20.075   4.648  10.125
32282W        W33147  18.223   4.338   7.603
32283W        W33148  19.009   5.727  10.164
32284W        W33149  20.367   5.125   9.343
32285W        W33150  20.234   7.204   7.639
32286W        W33151  18.380   5.711   7.336
32287W        W33152  19.115   6.122  10.462
32288W        W33153  18.636   5.289  10.093
32289W        W33154  19.627   5.394   9.887
32290W        W33155  21.395   3.753  10.149
32291W        W33156  21.793   5.363  10.140
32292W        W33157  21.781   5.563   7.826
32293W        W33158  20.644   5.895   7.925
32294W        W33159  21.118   7.195   7.620
32295W        W33160  20.295   5.185  10.762
32296W        W33161  18.625   6.152  10.802
32297W        W33162  21.831   4.074  10.754
32298W        W33163  21.549   5.002   9.375
32299W        W33164  19.857   7.132  10.852
32300W        W33165  19.712   3.761   7.579
32301W        W33166  21.251   6.360   7.522
32302W        W33167  19.020   4.453  10.408
32303W        W33168  19.454   6.447  10.270
32304W        W33169  21.580   4.438  10.068
32305W        W33170  20.791   7.097   8.036
32306W        W33171  21.030   5.716   9.403
32307W        W33172  19.280   4.132  10.070
32308W        W33173  19.749   5.201  10.827
32309W        W33174  19.252   6.380   8.021
32310W        W33175  21.007   5.878   8.285
32311W        W33176  18.775   4.504  10.009
32312W        W33177  20.104   6.566   8.473
32313W        W33178  21.854   5.126   8.654
32314W        W33179  20.076   3.759  10.373
32315W        W33180  20.856   6.464   9.452
32316W        W33181  21.159   6.808   9.160
32317W        W33182  20.378   6.610   7.588
32318W        W33183  18.388   6.502  10.430
32319W        W33184  19.131   4.494   9.668
32320W        W33185  19.101   3.842   8.778
32321W        W33186  20.722   4.684   9.470
32322W        W33187  19.520   5.855   7.670
32323W        W33188  21.518   5.797   9.169
32324W        W33189  18.845   6.555  10.592
32325W        W33190  21.232   7.237   8.389
32326W        W33191  19.331   4.257   8.834
32327W        W33192  19.100   5.750   8.924
32328W        W33193  19.413   7.161   9.674
32329W        W33194  21.480   7.257  10.706
32330W        W33195  20.639   5.445   9.639
32331W        W33196  18.488   5.243   7.554
32332W        W33197  21.622   6.901   8.251
32333W        W33198  21.459   4.225   7.870
32334W        W33199  19.598   3.744  10.273
32335W        W33200  21.304   6.546   8.731
32336W        W33201  21.333   5.102   8.636
32337W        W33202  19.450   4.775   8.852
32338W        W33203  19.695   5.037  10.176
32339W        W33204  20.806   6.190  10.039
32340W        W33205  19.456   4.644  10.151
32341W        W33206  19.435   7.110   8.767
32342W        W33207  18.752   7.069  10.401
32343W        W33208  18.864   6.430   7.531
32344W        W33209  21.381   6.188   8.341
32345W        W33210  18.985   4.980  10.227
32346W        W33211  21.758   4.910   7.708
32347W        W33212  19.503   5.967   8.179
32348W        W33213  20.602   5.349  10.260
32349W        W33214  20.493   4.977   9.804
32350W        W33215  19.053   5.349   9.833
32351W        W33216  21.263   7.237   9.662
32352W        W33217  21.054   3.871  10.656
32353W        W33218  18.718   4.021  10.243
32354W        W33219  19.057   5.044   9.296
32355W        W33220  19.426   4.858   7.418
32356W        W33221  18.229   6.617   9.963
32357W        W33222  19.814   5.326   9.406
32358W        W33223  19.637   4.351   7.511
32359W        W33224  18.772   5.167   8.292
32360W        W33225  18.543   7.019   9.729
32361W        W33226  21.338   5.245   7.837
32362W        W33227  21.433   4.161  10.523
32363W        W33228  20.869   6.370   8.486
32364W        W33229  18.467   5.294  10.663
32365W        W33230  21.433   3.758   7.959
32366W        W33231  20.953   6.233   7.970
32367W        W33232  19.855   5.291   8.055
32368W        W33233  21.042   4.095   7.578
32369W        W33234  21.107   4.702   9.764
32370W        W33235  18.816   5.295   8.971
32371W        W33236  19.110   6.234   8.620
32372W        W33237  20.873   4.854   8.585
32373W        W33238  19.896   4.233   9.281
32374W        W33239  21.858   6.144   9.792
32375W        W33240  21.776   4.131   9.353
32376W        W33241  18.315   6.961   8.729
32377W        W33242  18.824   6.148   8.265
32378W        W33243  18.739   3.765  10.818
32379W        W33244  19.858   6.618  10.920
32380W        W33245  21.613   5.586   8.710
32381W        W33246  20.967   5.763   7.590
32382W        W33247  20.262   7.284   9.802
32383W        W33248  21.119   6.006  10.839
32384W        W33249  19.934   3.716   8.119
32385W        W33250  20.647   4.585   8.978
32386W        W33251  18.333   6.172   9.310
32387W        W33252  19.586   4.134   7.951
32388W        W33253  19.390   5.618  10.800
32389W        W33254  20.384   4.599   8.514
32390W        W33255  20.589   6.009   9.636
32391W        W33256  18.743   6.614  10.071
32392W        W33257  19.334   6.597  10.794
32393W        W33258  19.185   4.394   7.808
32394W        W33259  20.702   4.536   8.133
32395W        W33260  20.660   6.644  10.370
32396W        W33261  19.345   5.236   8.969
32397W        W33262  19.000   6.934   9.834
32398W        W33263  21.745   7.051   7.435
32399W        W33264  18.608   5.723  10.431
32400W        W33265  20.603   5.985   9.119
32401W        W33266  19.039   5.634   8.361
32402W        W33267  19.410   6.641   9.756
32403W        W33268  19.788   4.060   8.797
32404W        W33269  18.399   6.044   7.727
32405W        W33270  19.918   4.995   7.597
32406W        W33271  18.564   5.544   8.616
32407W        W33272  19.854   4.186  10.080
32408W        W33273  21.526   3.895   7.507
32409W        W33274  21.619   5.641  10.606
32410W        W33275  20.273   6.898  10.758
32411W        W33276  21.831   5.992  10.280
32412W        W33277  21.239   6.790  10.891
32413W        W33278  18.978   7.246   9.369
32414W        W33279  21.837   5.868   8.243
32415W        W33280  20.367   5.135   8.756
32416W        W33281  20.134   3.747   8.646
32417W        W33282  19.193   6.731   8.483
32418W        W33283  19.692   4.472   9.708
32419W        W33284  19.392   3.841   9.177
32420W        W33285  18.455   6.663   7.725
32421W        W33286  20.271   6.027   8.443
32422W        W33287  19.146   6.822  10.322
32423W        W33288  18.623   5.645   8.018
32424W        W33289  18.508   4.188   9.017
32425W        W33290  20.056   6.153   9.074
32426W        W33291  18.308   4.007   8.094
32427W        W33292  20.972   5.213  10.021
32428W        W33293  20.849   4.599   7.593
32429W        W33294  21.366   6.271   9.241
32430W        W33295  20.027   6.755   9.072
32431W        W33296  19.439   6.859   7.983
32432W        W33297  20.721   3.762   7.413
32433W        W33298  18.521   7.022   9.154
32434W        W33299  20.718   4.780  10.789
32435W        W33300  18.701   4.310  10.788
32436W        W33301  18.432   4.910   8.121
32437W        W33302  19.123   4.899   7.846
32438W        W33303  20.886   5.226  10.663
32439W        W33304  19.229   5.507   9.372
32440W        W33305  20.703   3.793   8.492
32441W        W33306  19.834   7.224   8.995
32442W        W33307  21.048   6.686   9.932
32443W        W33308  20.632   6.835   9.043
32444W        W33309  20.651   5.815   8.637
32445W        W33310  20.113   4.040   7.708
32446W        W33311  21.794   3.668   8.430
32447W        W33312  19.482   5.303   7.593
32448W        W33313  21.648   4.640   8.583
32449W        W33314  20.340   5.810   7.460
32450W        W33315  21.276   6.010  10.208
32451W        W33316  20.930   6.711   7.675
32452W        W33317  19.545   4.386  10.581
32453W        W33318  19.365   4.970   9.822
32454W        W33319  21.457   6.465  10.099
32455W        W33320  20.557   4.415  10.476
32456W        W33321  18.401   4.886  10.253
32457W        W33322  20.161   5.363   9.979
32458W        W33323  18.518   6.121   8.636
32459W        W33324  18.665   5.418   9.526
32460W        W33325  20.982   5.704   9.876
32461W        W33326  20.754   7.084  10.687
32462W        W33327  20.650   4.823  10.240
32463W        W33328  20.927   6.877   8.645
32464W        W33329  19.929   6.597   9.968
32465W        W33330  19.414   6.952   9.237
32466W        W33331  21.219   6.123   9.656
32467W        W33332  20.269   6.195  10.793
32468W        W33333  18.874   6.148   9.132
32469W        W33334  21.220   5.907   8.777
32470W        W33335  20.861   6.973   9.528
32471W        W33336  18.839   6.702   9.398
32472W        W33337  19.860   4.754  10.608
32473W        W33338  20.311   6.920   8.119
32474W        W33339  19.619   6.175  10.757
32475W        W33340  19.745   6.413   8.134
32476W        W33341  18.966   5.153   7.393
32477W        W33342  18.305   7.239  14.292
32478W        W33343  18.681   6.132  13.815
32479W        W33344  21.386   5.862  11.585
32480W        W33345  21.516   6.947  13.612
32481W        W33346  19.434   6.938  11.138
32482W        W33347  19.517   5.090  12.121
32483W        W33348  19.032   4.938  12.285
32484W        W33349  20.023   5.753  11.719
32485W        W33350  19.698   6.845  14.074
32486W        W33351  18.347   4.406  14.037
32487W        W33352  19.109   3.686  13.839
32488W        W33353  20.803   4.074  12.726
32489W        W33354  20.452   4.945  11.296
32490W        W33355  21.022   4.379  14.387
32491W        W33356  18.388   4.171  13.512
32492W        W33357  18.487   6.790  14.533
32493W        W33358  20.009   6.180  11.265
32494W        W33359  18.441   4.963  12.958
32495W        W33360  19.334   4.854  14.195
32496W        W33361  21.793   4.713  12.694
32497W        W33362  21.557   5.756  13.553
32498W        W33363  19.865   5.089  12.580
32499W        W33364  20.411   6.428  12.949
32500W        W33365  18.911   5.862  13.181
32501W        W33366  18.270   5.390  12.752
32502W        W33367  19.306   5.362  13.944
32503W        W33368  21.577   5.145  14.198
32504W        W33369  19.193   6.589  12.643
32505W        W33370  20.314   6.278  13.777
32506W        W33371  19.534   4.918  13.002
32507W        W33372  19.826   5.702  12.645
32508W        W33373  20.823   6.475  14.493
32509W        W33374  19.902   5.795  14.503
32510W        W33375  19.883   5.511  13.981
32511W        W33376  18.292   4.902  14.503
32512W        W33377  21.124   6.437  14.102
32513W        W33378  18.705   4.019  12.100
32514W        W33379  19.232   6.277  13.099
32515W        W33380  21.695   6.060  12.389
32516W        W33381  21.108   4.460  12.956
32517W        W33382  21.393   4.413  11.051
32518W        W33383  21.858   5.214  13.357
32519W        W33384  19.825   6.921  13.110
32520W        W33385  21.599   6.387  11.548
32521W        W33386  18.728   7.173  11.302
32522W        W33387  19.121   7.219  11.978
32523W        W33388  18.918   3.973  13.404
32524W        W33389  21.541   4.991  13.679
32525W        W33390  20.946   5.413  12.138
32526W        W33391  20.912   5.101  11.165
32527W        W33392  20.120   6.245  13.305
32528W        W33393  19.926   4.575  12.504
32529W        W33394  20.526   6.662  13.498
32530W        W33395  21.397   5.453  11.920
32531W        W33396  20.299   4.111  11.936
32532W        W33397  18.956   6.805  11.619
32533W        W33398  18.327   4.304  12.218
32534W        W33399  21.113   4.911  12.692
32535W        W33400  18.571   6.528  12.607
32536W        W33401  19.912   6.878  11.477
32537W        W33402  21.304   4.904  10.941
32538W        W33403  18.327   6.662  13.105
32539W        W33404  19.118   6.234  13.585
32540W        W33405  19.491   5.594  12.204
32541W        W33406  19.513   3.999  13.297
32542W        W33407  21.742   3.761  12.594
32543W        W33408  18.961   5.633  11.062
32544W        W33409  18.616   4.666  11.241
32545W        W33410  18.678   6.622  12.035
32546W        W33411  19.809   6.105  12.283
32547W        W33412  21.141   6.964  13.997
32548W        W33413  20.067   4.606  11.681
32549W        W33414  21.450   7.004  12.453
32550W        W33415  21.127   4.857  14.051
32551W        W33416  21.840   6.513  12.185
32552W        W33417  20.467   5.805  13.669
32553W        W33418  18.233   5.356  11.875
32554W        W33419  19.344   5.771  13.448
32555W        W33420  20.548   5.035  11.826
32556W        W33421  20.425   5.525  11.930
32557W        W33422  18.768   4.945  13.404
32558W        W33423  18.753   4.821  14.326
32559W        W33424  18.643   3.738  12.485
32560W        W33425  20.411   4.085  13.046
32561W        W33426  20.059   4.270  14.209
32562W        W33427  20.414   4.419  11.387
32563W        W33428  21.597   6.812  14.141
32564W        W33429  20.564   3.893  14.180
32565W        W33430  21.583   6.194  14.302
32566W        W33431  21.013   4.361  13.898
32567W        W33432  20.813   4.299  12.168
32568W        W33433  21.206   5.433  14.572
32569W        W33434  18.946   7.009  12.558
32570W        W33435  19.604   4.726  11.544
32571W        W33436  19.173   4.010  14.208
32572W        W33437  21.225   4.494  11.889
32573W        W33438  21.592   4.976  11.834
32574W        W33439  19.335   7.193  14.305
32575W        W33440  19.261   3.729  11.540
32576W        W33441  21.582   4.263  12.575
32577W        W33442  21.732   6.512  11.020
32578W        W33443  18.639   5.715  12.722
32579W        W33444  20.556   4.302  10.952
32580W        W33445  21.690   6.634  12.672
32581W        W33446  21.729   3.828  13.422
32582W        W33447  20.174   5.040  13.976
32583W        W33448  20.267   6.379  11.679
32584W        W33449  20.667   5.673  14.419
32585W        W33450  20.341   3.650  12.728
32586W        W33451  18.953   4.553  12.791
32587W        W33452  18.507   5.753  13.565
32588W        W33453  20.366   6.946  12.271
32589W        W33454  21.560   4.543  13.143
32590W        W33455  20.197   6.890  13.910
32591W        W33456  21.540   5.949  11.115
32592W        W33457  19.975   5.432  12.176
32593W        W33458  21.827   3.943  13.917
32594W        W33459  19.976   5.778  13.511
32595W        W33460  20.193   4.664  12.956
32596W        W33461  21.045   4.962  11.794
32597W        W33462  21.332   4.695  11.436
32598W        W33463  21.141   6.735  11.825
32599W        W33464  20.975   6.338  12.621
32600W        W33465  20.871   5.417  11.599
32601W        W33466  20.304   5.627  12.585
32602W        W33467  21.185   5.415  12.652
32603W        W33468  18.560   4.430  13.076
32604W        W33469  21.338   5.482  13.903
32605W        W33470  21.689   7.100  13.049
32606W        W33471  19.619   6.544  12.451
32607W        W33472  20.626   7.077  13.775
32608W        W33473  20.620   4.407  13.539
32609W        W33474  19.827   7.115  13.600
32610W        W33475  21.524   4.069  12.066
32611W        W33476  21.315   5.388  13.367
32612W        W33477  18.298   4.709  13.405
32613W        W33478  21.158   4.504  12.423
32614W        W33479  21.569   4.655  14.200
32615W        W33480  20.454   6.354  12.418
32616W        W33481  19.710   6.945  12.031
32617W        W33482  18.825   4.125  11.289
32618W        W33483  19.929   3.779  13.099
32619W        W33484  18.957   6.899  10.947
32620W        W33485  19.331   5.365  11.698
32621W        W33486  19.985   5.994  14.011
32622W        W33487  19.815   4.352  12.001
32623W        W33488  21.171   3.949  12.429
32624W        W33489  20.891   7.231  12.757
32625W        W33490  20.303   6.879  13.097
32626W        W33491  19.699   5.916  13.058
32627W        W33492  21.469   6.639  13.184
32628W        W33493  19.163   4.142  11.953
32629W        W33494  19.685   6.439  12.913
32630W        W33495  19.168   4.370  10.978
32631W        W33496  19.969   4.979  13.372
32632W        W33497  20.817   3.845  13.242
32633W        W33498  18.237   5.688  13.127
32634W        W33499  19.941   5.506  11.285
32635W        W33500  19.209   3.821  11.055
32636W        W33501  19.947   4.902  12.106
32637W        W33502  20.917   3.878  13.805
32638W        W33503  19.505   5.890  13.914
32639W        W33504  20.309   5.672  14.131
32640W        W33505  20.926   5.702  14.024
32641W        W33506  20.210   3.842  14.529
32642W        W33507  19.432   4.458  12.922
32643W        W33508  18.858   4.414  12.320
32644W        W33509  18.644   7.126  11.996
32645W        W33510  19.976   6.456  14.121
32646W        W33511  19.011   5.941  11.480
32647W        W33512  20.691   5.326  12.701
32648W        W33513  20.971   5.125  13.100
32649W        W33514  20.176   5.799  13.034
32650W        W33515  20.646   6.173  11.166
32651W        W33516  20.318   4.194  12.494
32652W        W33517  21.797   4.472  11.762
32653W        W33518  18.291   7.061  13.793
32654W        W33519  18.708   6.287  13.325
32655W        W33520  18.275   7.133  11.557
32656W        W33521  20.174   4.403  13.363
32657W        W33522  19.537   6.426  11.212
32658W        W33523  21.442   6.808  11.398
32659W        W33524  20.417   5.461  11.412
32660W        W33525  19.260   4.652  11.929
32661W        W33526  20.092   4.562  10.981
32662W        W33527  20.676   6.127  14.159
32663W        W33528  21.029   4.033  11.776
32664W        W33529  18.359   3.881  11.224
32665W        W33530  19.645   6.200  13.514
32666W        W33531  19.444   6.116  12.606
32667W        W33532  19.186   6.068  11.004
32668W        W33533  18.427   6.309  11.772
32669W        W33534  18.931   5.379  14.214
32670W        W33535  19.635   3.939  14.400
32671W        W33536  20.344   4.081  13.756
32672W        W33537  19.539   3.849  12.037
32673W        W33538  20.598   3.926  11.542
32674W        W33539  18.543   3.858  13.119
32675W        W33540  18.591   4.821  12.489
32676W        W33541  21.280   3.929  12.895
32677W        W33542  18.702   4.427  11.709
32678W        W33543  21.273   4.115  13.325
32679W        W33544  21.669   5.318  11.010
32680W        W33545  18.961   4.076  12.829
32681W        W33546  20.075   4.648  13.769
32682W        W33547  18.223   4.338  11.247
32683W        W33548  19.009   5.727  13.808
32684W        W33549  20.367   5.125  12.987
32685W        W33550  20.234   7.204  11.283
32686W        W33551  18.380   5.711  10.980
32687W        W33552  19.115   6.122  14.106
32688W        W33553  18.636   5.289  13.737
32689W        W33554  21.395   3.753  13.793
32690W        W33555  21.793   5.363  13.784
32691W        W33556  21.781   5.563  11.470
32692W        W33557  20.644   5.895  11.569
32693W        W33558  21.118   7.195  11.264
32694W        W33559  20.295   5.185  14.406
32695W        W33560  18.625   6.152  14.446
32696W        W33561  21.831   4.074  14.398
32697W        W33562  21.549   5.002  13.019
32698W        W33563  19.857   7.132  14.496
32699W        W33564  19.712   3.761  11.223
32700W        W33565  21.251   6.360  11.166
32701W        W33566  19.020   4.453  14.052
32702W        W33567  19.454   6.447  13.914
32703W        W33568  21.580   4.438  13.712
32704W        W33569  20.791   7.097  11.680
32705W        W33570  21.030   5.716  13.047
32706W        W33571  19.280   4.132  13.714
32707W        W33572  19.749   5.201  14.471
32708W        W33573  19.252   6.380  11.665
32709W        W33574  21.007   5.878  11.929
32710W        W33575  18.775   4.504  13.653
32711W        W33576  20.104   6.566  12.117
32712W        W33577  21.854   5.126  12.298
32713W        W33578  20.076   3.759  14.017
32714W        W33579  20.856   6.464  13.096
32715W        W33580  21.159   6.808  12.804
32716W        W33581  20.378   6.610  11.232
32717W        W33582  18.388   6.502  14.074
32718W        W33583  19.131   4.494  13.312
32719W        W33584  19.101   3.842  12.422
32720W        W33585  20.722   4.684  13.114
32721W        W33586  19.520   5.855  11.314
32722W        W33587  21.518   5.797  12.813
32723W        W33588  18.845   6.555  14.236
32724W        W33589  21.232   7.237  12.033
32725W        W33590  19.331   4.257  12.478
32726W        W33591  19.100   5.750  12.568
32727W        W33592  19.413   7.161  13.318
32728W        W33593  21.480   7.257  14.350
32729W        W33594  20.639   5.445  13.283
32730W        W33595  18.488   5.243  11.198
32731W        W33596  21.622   6.901  11.895
32732W        W33597  21.459   4.225  11.514
32733W        W33598  19.598   3.744  13.917
32734W        W33599  21.304   6.546  12.375
32735W        W33600  21.333   5.102  12.280
32736W        W33601  19.450   4.775  12.496
32737W        W33602  19.695   5.037  13.820
32738W        W33603  20.806   6.190  13.683
32739W        W33604  19.456   4.644  13.795
32740W        W33605  19.435   7.110  12.411
32741W        W33606  18.752   7.069  14.045
32742W        W33607  18.864   6.430  11.175
32743W        W33608  21.381   6.188  11.985
32744W        W33609  18.985   4.980  13.871
32745W        W33610  21.758   4.910  11.352
32746W        W33611  19.503   5.967  11.823
32747W        W33612  20.602   5.349  13.904
32748W        W33613  20.493   4.977  13.448
32749W        W33614  19.053   5.349  13.477
32750W        W33615  21.263   7.237  13.306
32751W        W33616  21.054   3.871  14.300
32752W        W33617  18.718   4.021  13.887
32753W        W33618  19.057   5.044  12.940
32754W        W33619  19.426   4.858  11.062
32755W        W33620  18.229   6.617  13.607
32756W        W33621  19.814   5.326  13.050
32757W        W33622  19.637   4.351  11.155
32758W        W33623  18.772   5.167  11.936
32759W        W33624  18.543   7.019  13.373
32760W        W33625  21.338   5.245  11.481
32761W        W33626  21.433   4.161  14.167
32762W        W33627  20.869   6.370  12.130
32763W        W33628  18.467   5.294  14.307
32764W        W33629  21.433   3.758  11.603
32765W        W33630  20.953   6.233  11.614
32766W        W33631  19.855   5.291  11.699
32767W        W33632  21.042   4.095  11.222
32768W        W33633  21.107   4.702  13.408
32769W        W33634  18.816   5.295  12.615
32770W        W33635  19.110   6.234  12.264
32771W        W33636  20.873   4.854  12.229
32772W        W33637  19.896   4.233  12.925
32773W        W33638  21.858   6.144  13.436
32774W        W33639  21.776   4.131  12.997
32775W        W33640  18.315   6.961  12.373
32776W        W33641  18.824   6.148  11.909
32777W        W33642  18.739   3.765  14.462
32778W        W33643  19.858   6.618  14.564
32779W        W33644  21.613   5.586  12.354
32780W        W33645  20.967   5.763  11.234
32781W        W33646  20.262   7.284  13.446
32782W        W33647  21.119   6.006  14.483
32783W        W33648  19.934   3.716  11.763
32784W        W33649  20.647   4.585  12.622
32785W        W33650  18.333   6.172  12.954
32786W        W33651  19.586   4.134  11.595
32787W        W33652  19.390   5.618  14.444
32788W        W33653  20.384   4.599  12.158
32789W        W33654  20.589   6.009  13.280
32790W        W33655  18.743   6.614  13.715
32791W        W33656  19.334   6.597  14.438
32792W        W33657  19.185   4.394  11.452
32793W        W33658  20.702   4.536  11.777
32794W        W33659  20.660   6.644  14.014
32795W        W33660  19.345   5.236  12.613
32796W        W33661  19.000   6.934  13.478
32797W        W33662  21.745   7.051  11.079
32798W        W33663  18.608   5.723  14.075
32799W        W33664  20.603   5.985  12.763
32800W        W33665  19.039   5.634  12.005
32801W        W33666  19.410   6.641  13.400
32802W        W33667  19.788   4.060  12.441
32803W        W33668  18.399   6.044  11.371
32804W        W33669  19.918   4.995  11.241
32805W        W33670  18.564   5.544  12.260
32806W        W33671  19.854   4.186  13.724
32807W        W33672  21.526   3.895  11.151
32808W        W33673  21.619   5.641  14.250
32809W        W33674  20.273   6.898  14.402
32810W        W33675  21.831   5.992  13.924
32811W        W33676  21.239   6.790  14.535
32812W        W33677  18.978   7.246  13.013
32813W        W33678  21.837   5.868  11.887
32814W        W33679  20.367   5.135  12.400
32815W        W33680  20.134   3.747  12.290
32816W        W33681  19.193   6.731  12.127
32817W        W33682  19.692   4.472  13.352
32818W        W33683  19.392   3.841  12.821
32819W        W33684  18.455   6.663  11.369
32820W        W33685  20.271   6.027  12.087
32821W        W33686  19.146   6.822  13.966
32822W        W33687  18.623   5.645  11.662
32823W        W33688  18.508   4.188  12.661
32824W        W33689  20.056   6.153  12.718
32825W        W33690  18.308   4.007  11.738
32826W        W33691  20.972   5.213  13.665
32827W        W33692  20.849   4.599  11.237
32828W        W33693  21.366   6.271  12.885
32829W        W33694  20.027   6.755  12.716
32830W        W33695  19.439   6.859  11.627
32831W        W33696  20.721   3.762  11.057
32832W        W33697  18.521   7.022  12.798
32833W        W33698  20.718   4.780  14.433
32834W        W33699  18.701   4.310  14.432
32835W        W33700  18.432   4.910  11.765
32836W        W33701  19.123   4.899  11.490
32837W        W33702  20.886   5.226  14.307
32838W        W33703  19.229   5.507  13.016
32839W        W33704  20.703   3.793  12.136
32840W        W33705  19.834   7.224  12.639
32841W        W33706  21.048   6.686  13.576
32842W        W33707  20.632   6.835  12.687
32843W        W33708  20.651   5.815  12.281
32844W        W33709  20.113   4.040  11.352
32845W        W33710  21.794   3.668  12.074
32846W        W33711  19.482   5.303  11.237
32847W        W33712  21.648   4.640  12.227
32848W        W33713  20.340   5.810  11.104
32849W        W33714  21.276   6.010  13.852
32850W        W33715  20.930   6.711  11.319
32851W        W33716  19.545   4.386  14.225
32852W        W33717  19.365   4.970  13.466
32853W        W33718  21.457   6.465  13.743
32854W        W33719  20.557   4.415  14.120
32855W        W33720  18.401   4.886  13.897
32856W        W33721  20.161   5.363  13.623
32857W        W33722  18.518   6.121  12.280
32858W        W33723  18.665   5.418  13.170
32859W        W33724  20.982   5.704  13.520
32860W        W33725  20.754   7.084  14.331
32861W        W33726  20.650   4.823  13.884
32862W        W33727  20.927   6.877  12.289
32863W        W33728  19.929   6.597  13.612
32864W        W33729  19.414   6.952  12.881
32865W        W33730  21.219   6.123  13.300
32866W        W33731  20.269   6.195  14.437
32867W        W33732  18.874   6.148  12.776
32868W        W33733  21.220   5.907  12.421
32869W        W33734  20.861   6.973  13.172
32870W        W33735  18.839   6.702  13.042
32871W        W33736  19.860   4.754  14.252
32872W        W33737  20.311   6.920  11.763
32873W        W33738  19.619   6.175  14.401
32874W        W33739  19.745   6.413  11.778
32875W        W33740  18.966   5.153  11.037
32876W        W33741  18.305   7.239  17.936
32877W        W33742  18.681   6.132  17.459
32878W        W33743  21.386   5.862  15.229
32879W        W33744  21.516   6.947  17.256
32880W        W33745  19.434   6.938  14.782
32881W        W33746  19.517   5.090  15.765
32882W        W33747  19.032   4.938  15.929
32883W        W33748  20.023   5.753  15.363
32884W        W33749  19.698   6.845  17.718
32885W        W33750  18.347   4.406  17.681
32886W        W33751  19.109   3.686  17.483
32887W        W33752  20.803   4.074  16.370
32888W        W33753  20.452   4.945  14.940
32889W        W33754  21.022   4.379  18.031
32890W        W33755  18.388   4.171  17.156
32891W        W33756  18.487   6.790  18.177
32892W        W33757  20.009   6.180  14.909
32893W        W33758  18.441   4.963  16.602
32894W        W33759  19.334   4.854  17.839
32895W        W33760  21.793   4.713  16.338
32896W        W33761  21.557   5.756  17.197
32897W        W33762  19.865   5.089  16.224
32898W        W33763  20.411   6.428  16.593
32899W        W33764  18.911   5.862  16.825
32900W        W33765  18.270   5.390  16.396
32901W        W33766  19.306   5.362  17.588
32902W        W33767  21.577   5.145  17.842
32903W        W33768  19.193   6.589  16.287
32904W        W33769  20.314   6.278  17.421
32905W        W33770  19.534   4.918  16.646
32906W        W33771  19.826   5.702  16.289
32907W        W33772  20.823   6.475  18.137
32908W        W33773  19.902   5.795  18.147
32909W        W33774  19.883   5.511  17.625
32910W        W33775  18.292   4.902  18.147
32911W        W33776  21.124   6.437  17.746
32912W        W33777  18.705   4.019  15.744
32913W        W33778  19.232   6.277  16.743
32914W        W33779  21.695   6.060  16.033
32915W        W33780  21.108   4.460  16.600
32916W        W33781  21.393   4.413  14.695
32917W        W33782  21.858   5.214  17.001
32918W        W33783  19.825   6.921  16.754
32919W        W33784  21.599   6.387  15.192
32920W        W33785  18.728   7.173  14.946
32921W        W33786  19.121   7.219  15.622
32922W        W33787  18.918   3.973  17.048
32923W        W33788  21.541   4.991  17.323
32924W        W33789  20.946   5.413  15.782
32925W        W33790  20.912   5.101  14.809
32926W        W33791  20.120   6.245  16.949
32927W        W33792  19.926   4.575  16.148
32928W        W33793  20.526   6.662  17.142
32929W        W33794  21.397   5.453  15.564
32930W        W33795  20.299   4.111  15.580
32931W        W33796  18.956   6.805  15.263
32932W        W33797  18.327   4.304  15.862
32933W        W33798  21.113   4.911  16.336
32934W        W33799  18.571   6.528  16.251
32935W        W33800  19.912   6.878  15.121
32936W        W33801  21.304   4.904  14.585
32937W        W33802  18.327   6.662  16.749
32938W        W33803  19.118   6.234  17.229
32939W        W33804  19.491   5.594  15.848
32940W        W33805  19.513   3.999  16.941
32941W        W33806  21.742   3.761  16.238
32942W        W33807  18.961   5.633  14.706
32943W        W33808  18.616   4.666  14.885
32944W        W33809  18.678   6.622  15.679
32945W        W33810  19.809   6.105  15.927
32946W        W33811  21.141   6.964  17.641
32947W        W33812  20.067   4.606  15.325
32948W        W33813  21.450   7.004  16.097
32949W        W33814  21.127   4.857  17.695
32950W        W33815  21.840   6.513  15.829
32951W        W33816  20.467   5.805  17.313
32952W        W33817  18.233   5.356  15.519
32953W        W33818  19.344   5.771  17.092
32954W        W33819  20.548   5.035  15.470
32955W        W33820  20.425   5.525  15.574
32956W        W33821  18.768   4.945  17.048
32957W        W33822  18.753   4.821  17.970
32958W        W33823  18.643   3.738  16.129
32959W        W33824  20.411   4.085  16.690
32960W        W33825  20.059   4.270  17.853
32961W        W33826  20.414   4.419  15.031
32962W        W33827  21.597   6.812  17.785
32963W        W33828  20.564   3.893  17.824
32964W        W33829  21.583   6.194  17.946
32965W        W33830  21.013   4.361  17.542
32966W        W33831  20.813   4.299  15.812
32967W        W33832  21.206   5.433  18.216
32968W        W33833  18.946   7.009  16.202
32969W        W33834  19.604   4.726  15.188
32970W        W33835  19.173   4.010  17.852
32971W        W33836  21.225   4.494  15.533
32972W        W33837  21.592   4.976  15.478
32973W        W33838  19.335   7.193  17.949
32974W        W33839  19.261   3.729  15.184
32975W        W33840  21.582   4.263  16.219
32976W        W33841  21.732   6.512  14.664
32977W        W33842  18.639   5.715  16.366
32978W        W33843  20.556   4.302  14.596
32979W        W33844  21.690   6.634  16.316
32980W        W33845  21.729   3.828  17.066
32981W        W33846  20.174   5.040  17.620
32982W        W33847  20.267   6.379  15.323
32983W        W33848  20.667   5.673  18.063
32984W        W33849  20.341   3.650  16.372
32985W        W33850  18.953   4.553  16.435
32986W        W33851  18.507   5.753  17.209
32987W        W33852  20.366   6.946  15.915
32988W        W33853  21.560   4.543  16.787
32989W        W33854  20.197   6.890  17.554
32990W        W33855  21.540   5.949  14.759
32991W        W33856  19.975   5.432  15.820
32992W        W33857  21.827   3.943  17.561
32993W        W33858  19.976   5.778  17.155
32994W        W33859  20.193   4.664  16.600
32995W        W33860  21.045   4.962  15.438
32996W        W33861  21.332   4.695  15.080
32997W        W33862  21.141   6.735  15.469
32998W        W33863  20.975   6.338  16.265
32999W        W33864  20.871   5.417  15.243
33000W        W33865  20.304   5.627  16.229
33001W        W33866  21.185   5.415  16.296
33002W        W33867  18.560   4.430  16.720
33003W        W33868  21.338   5.482  17.547
33004W        W33869  21.689   7.100  16.693
33005W        W33870  19.619   6.544  16.095
33006W        W33871  20.626   7.077  17.419
33007W        W33872  20.620   4.407  17.183
33008W        W33873  19.827   7.115  17.244
33009W        W33874  21.524   4.069  15.710
33010W        W33875  21.315   5.388  17.011
33011W        W33876  18.298   4.709  17.049
33012W        W33877  21.158   4.504  16.067
33013W        W33878  21.569   4.655  17.844
33014W        W33879  20.454   6.354  16.062
33015W        W33880  19.710   6.945  15.675
33016W        W33881  18.825   4.125  14.933
33017W        W33882  19.929   3.779  16.743
33018W        W33883  18.957   6.899  14.591
33019W        W33884  19.331   5.365  15.342
33020W        W33885  19.985   5.994  17.655
33021W        W33886  19.815   4.352  15.645
33022W        W33887  21.171   3.949  16.073
33023W        W33888  20.891   7.231  16.401
33024W        W33889  20.303   6.879  16.741
33025W        W33890  19.699   5.916  16.702
33026W        W33891  21.469   6.639  16.828
33027W        W33892  19.163   4.142  15.597
33028W        W33893  19.685   6.439  16.557
33029W        W33894  19.168   4.370  14.622
33030W        W33895  19.969   4.979  17.016
33031W        W33896  20.817   3.845  16.886
33032W        W33897  18.237   5.688  16.771
33033W        W33898  19.941   5.506  14.929
33034W        W33899  19.209   3.821  14.699
33035W        W33900  19.947   4.902  15.750
33036W        W33901  20.917   3.878  17.449
33037W        W33902  19.505   5.890  17.558
33038W        W33903  20.309   5.672  17.775
33039W        W33904  20.926   5.702  17.668
33040W        W33905  20.210   3.842  18.173
33041W        W33906  19.432   4.458  16.566
33042W        W33907  18.858   4.414  15.964
33043W        W33908  18.644   7.126  15.640
33044W        W33909  19.976   6.456  17.765
33045W        W33910  19.011   5.941  15.124
33046W        W33911  20.691   5.326  16.345
33047W        W33912  20.971   5.125  16.744
33048W        W33913  20.176   5.799  16.678
33049W        W33914  20.646   6.173  14.810
33050W        W33915  20.318   4.194  16.138
33051W        W33916  21.797   4.472  15.406
33052W        W33917  18.291   7.061  17.437
33053W        W33918  18.708   6.287  16.969
33054W        W33919  18.275   7.133  15.201
33055W        W33920  20.174   4.403  17.007
33056W        W33921  19.537   6.426  14.856
33057W        W33922  21.442   6.808  15.042
33058W        W33923  20.417   5.461  15.056
33059W        W33924  19.260   4.652  15.573
33060W        W33925  20.092   4.562  14.625
33061W        W33926  20.676   6.127  17.803
33062W        W33927  21.029   4.033  15.420
33063W        W33928  18.359   3.881  14.868
33064W        W33929  19.645   6.200  17.158
33065W        W33930  19.444   6.116  16.250
33066W        W33931  19.186   6.068  14.648
33067W        W33932  18.427   6.309  15.416
33068W        W33933  18.931   5.379  17.858
33069W        W33934  19.635   3.939  18.044
33070W        W33935  20.344   4.081  17.400
33071W        W33936  19.539   3.849  15.681
33072W        W33937  20.598   3.926  15.186
33073W        W33938  18.543   3.858  16.763
33074W        W33939  18.591   4.821  16.133
33075W        W33940  21.280   3.929  16.539
33076W        W33941  18.702   4.427  15.353
33077W        W33942  21.273   4.115  16.969
33078W        W33943  21.669   5.318  14.654
33079W        W33944  18.961   4.076  16.473
33080W        W33945  20.075   4.648  17.413
33081W        W33946  18.223   4.338  14.891
33082W        W33947  19.009   5.727  17.452
33083W        W33948  20.367   5.125  16.631
33084W        W33949  20.234   7.204  14.927
33085W        W33950  18.380   5.711  14.624
33086W        W33951  19.115   6.122  17.750
33087W        W33952  18.636   5.289  17.381
33088W        W33953  19.627   5.394  17.175
33089W        W33954  21.395   3.753  17.437
33090W        W33955  21.793   5.363  17.428
33091W        W33956  21.781   5.563  15.114
33092W        W33957  20.644   5.895  15.213
33093W        W33958  21.118   7.195  14.908
33094W        W33959  20.295   5.185  18.050
33095W        W33960  18.625   6.152  18.090
33096W        W33961  21.831   4.074  18.042
33097W        W33962  21.549   5.002  16.663
33098W        W33963  19.857   7.132  18.140
33099W        W33964  19.712   3.761  14.867
33100W        W33965  21.251   6.360  14.810
33101W        W33966  19.020   4.453  17.696
33102W        W33967  19.454   6.447  17.558
33103W        W33968  21.580   4.438  17.356
33104W        W33969  20.791   7.097  15.324
33105W        W33970  21.030   5.716  16.691
33106W        W33971  19.280   4.132  17.358
33107W        W33972  19.749   5.201  18.115
33108W        W33973  19.252   6.380  15.309
33109W        W33974  21.007   5.878  15.573
33110W        W33975  18.775   4.504  17.297
33111W        W33976  20.104   6.566  15.761
33112W        W33977  21.854   5.126  15.942
33113W        W33978  20.076   3.759  17.661
33114W        W33979  20.856   6.464  16.740
33115W        W33980  21.159   6.808  16.448
33116W        W33981  20.378   6.610  14.876
33117W        W33982  18.388   6.502  17.718
33118W        W33983  19.131   4.494  16.956
33119W        W33984  19.101   3.842  16.066
33120W        W33985  20.722   4.684  16.758
33121W        W33986  19.520   5.855  14.958
33122W        W33987  21.518   5.797  16.457
33123W        W33988  18.845   6.555  17.880
33124W        W33989  21.232   7.237  15.677
33125W        W33990  19.331   4.257  16.122
33126W        W33991  19.100   5.750  16.212
33127W        W33992  19.413   7.161  16.962
33128W        W33993  21.480   7.257  17.994
33129W        W33994  20.639   5.445  16.927
33130W        W33995  18.488   5.243  14.842
33131W        W33996  21.622   6.901  15.539
33132W        W33997  21.459   4.225  15.158
33133W        W33998  19.598   3.744  17.561
33134W        W33999  21.304   6.546  16.019
33135W        W34000  21.333   5.102  15.924
33136W        W34001  19.450   4.775  16.140
33137W        W34002  19.695   5.037  17.464
33138W        W34003  20.806   6.190  17.327
33139W        W34004  19.456   4.644  17.439
33140W        W34005  19.435   7.110  16.055
33141W        W34006  18.752   7.069  17.689
33142W        W34007  18.864   6.430  14.819
33143W        W34008  21.381   6.188  15.629
33144W        W34009  18.985   4.980  17.515
33145W        W34010  21.758   4.910  14.996
33146W        W34011  19.503   5.967  15.467
33147W        W34012  20.602   5.349  17.548
33148W        W34013  20.493   4.977  17.092
33149W        W34014  19.053   5.349  17.121
33150W        W34015  21.263   7.237  16.950
33151W        W34016  21.054   3.871  17.944
33152W        W34017  18.718   4.021  17.531
33153W        W34018  19.057   5.044  16.584
33154W        W34019  19.426   4.858  14.706
33155W        W34020  18.229   6.617  17.251
33156W        W34021  19.814   5.326  16.694
33157W        W34022  19.637   4.351  14.799
33158W        W34023  18.772   5.167  15.580
33159W        W34024  18.543   7.019  17.017
33160W        W34025  21.338   5.245  15.125
33161W        W34026  21.433   4.161  17.811
33162W        W34027  20.869   6.370  15.774
33163W        W34028  18.467   5.294  17.951
33164W        W34029  21.433   3.758  15.247
33165W        W34030  20.953   6.233  15.258
33166W        W34031  19.855   5.291  15.343
33167W        W34032  21.042   4.095  14.866
33168W        W34033  21.107   4.702  17.052
33169W        W34034  18.816   5.295  16.259
33170W        W34035  19.110   6.234  15.908
33171W        W34036  20.873   4.854  15.873
33172W        W34037  19.896   4.233  16.569
33173W        W34038  21.858   6.144  17.080
33174W        W34039  21.776   4.131  16.641
33175W        W34040  18.315   6.961  16.017
33176W        W34041  18.824   6.148  15.553
33177W        W34042  18.739   3.765  18.106
33178W        W34043  19.858   6.618  18.208
33179W        W34044  21.613   5.586  15.998
33180W        W34045  20.967   5.763  14.878
33181W        W34046  20.262   7.284  17.090
33182W        W34047  21.119   6.006  18.127
33183W        W34048  19.934   3.716  15.407
33184W        W34049  20.647   4.585  16.266
33185W        W34050  18.333   6.172  16.598
33186W        W34051  19.586   4.134  15.239
33187W        W34052  19.390   5.618  18.088
33188W        W34053  20.384   4.599  15.802
33189W        W34054  20.589   6.009  16.924
33190W        W34055  18.743   6.614  17.359
33191W        W34056  19.334   6.597  18.082
33192W        W34057  19.185   4.394  15.096
33193W        W34058  20.702   4.536  15.421
33194W        W34059  20.660   6.644  17.658
33195W        W34060  19.345   5.236  16.257
33196W        W34061  19.000   6.934  17.122
33197W        W34062  21.745   7.051  14.723
33198W        W34063  18.608   5.723  17.719
33199W        W34064  20.603   5.985  16.407
33200W        W34065  19.039   5.634  15.649
33201W        W34066  19.410   6.641  17.044
33202W        W34067  19.788   4.060  16.085
33203W        W34068  18.399   6.044  15.015
33204W        W34069  19.918   4.995  14.885
33205W        W34070  18.564   5.544  15.904
33206W        W34071  19.854   4.186  17.368
33207W        W34072  21.526   3.895  14.795
33208W        W34073  21.619   5.641  17.894
33209W        W34074  20.273   6.898  18.046
33210W        W34075  21.831   5.992  17.568
33211W        W34076  21.239   6.790  18.179
33212W        W34077  18.978   7.246  16.657
33213W        W34078  21.837   5.868  15.531
33214W        W34079  20.367   5.135  16.044
33215W        W34080  20.134   3.747  15.934
33216W        W34081  19.193   6.731  15.771
33217W        W34082  19.692   4.472  16.996
33218W        W34083  19.392   3.841  16.465
33219W        W34084  18.455   6.663  15.013
33220W        W34085  20.271   6.027  15.731
33221W        W34086  19.146   6.822  17.610
33222W        W34087  18.623   5.645  15.306
33223W        W34088  18.508   4.188  16.305
33224W        W34089  20.056   6.153  16.362
33225W        W34090  18.308   4.007  15.382
33226W        W34091  20.972   5.213  17.309
33227W        W34092  20.849   4.599  14.881
33228W        W34093  21.366   6.271  16.529
33229W        W34094  20.027   6.755  16.360
33230W        W34095  19.439   6.859  15.271
33231W        W34096  20.721   3.762  14.701
33232W        W34097  18.521   7.022  16.442
33233W        W34098  20.718   4.780  18.077
33234W        W34099  18.701   4.310  18.076
33235W        W34100  18.432   4.910  15.409
33236W        W34101  19.123   4.899  15.134
33237W        W34102  20.886   5.226  17.951
33238W        W34103  19.229   5.507  16.660
33239W        W34104  20.703   3.793  15.780
33240W        W34105  19.834   7.224  16.283
33241W        W34106  21.048   6.686  17.220
33242W        W34107  20.632   6.835  16.331
33243W        W34108  20.651   5.815  15.925
33244W        W34109  20.113   4.040  14.996
33245W        W34110  21.794   3.668  15.718
33246W        W34111  19.482   5.303  14.881
33247W        W34112  21.648   4.640  15.871
33248W        W34113  20.340   5.810  14.748
33249W        W34114  21.276   6.010  17.496
33250W        W34115  20.930   6.711  14.963
33251W        W34116  19.545   4.386  17.869
33252W        W34117  19.365   4.970  17.110
33253W        W34118  21.457   6.465  17.387
33254W        W34119  20.557   4.415  17.764
33255W        W34120  18.401   4.886  17.541
33256W        W34121  20.161   5.363  17.267
33257W        W34122  18.518   6.121  15.924
33258W        W34123  18.665   5.418  16.814
33259W        W34124  20.982   5.704  17.164
33260W        W34125  20.754   7.084  17.975
33261W        W34126  20.650   4.823  17.528
33262W        W34127  20.927   6.877  15.933
33263W        W34128  19.929   6.597  17.256
33264W        W34129  19.414   6.952  16.525
33265W        W34130  21.219   6.123  16.944
33266W        W34131  20.269   6.195  18.081
33267W        W34132  18.874   6.148  16.420
33268W        W34133  21.220   5.907  16.065
33269W        W34134  20.861   6.973  16.816
33270W        W34135  18.839   6.702  16.686
33271W        W34136  19.860   4.754  17.896
33272W        W34137  20.311   6.920  15.407
33273W        W34138  19.619   6.175  18.045
33274W        W34139  19.745   6.413  15.422
33275W        W34140  18.966   5.153  14.681
33276W        W34141  18.305   7.239  21.580
33277W        W34142  18.681   6.132  21.103
33278W        W34143  21.386   5.862  18.873
33279W        W34144  21.516   6.947  20.900
33280W        W34145  19.434   6.938  18.426
33281W        W34146  19.517   5.090  19.409
33282W        W34147  19.032   4.938  19.573
33283W        W34148  20.023   5.753  19.007
33284W        W34149  19.698   6.845  21.362
33285W        W34150  18.347   4.406  21.325
33286W        W34151  19.109   3.686  21.127
33287W        W34152  20.803   4.074  20.014
33288W        W34153  20.452   4.945  18.584
33289W        W34154  21.022   4.379  21.675
33290W        W34155  18.388   4.171  20.800
33291W        W34156  18.487   6.790  21.821
33292W        W34157  20.009   6.180  18.553
33293W        W34158  18.441   4.963  20.246
33294W        W34159  19.334   4.854  21.483
33295W        W34160  21.793   4.713  19.982
33296W        W34161  21.557   5.756  20.841
33297W        W34162  19.865   5.089  19.868
33298W        W34163  20.411   6.428  20.237
33299W        W34164  18.911   5.862  20.469
33300W        W34165  18.270   5.390  20.040
33301W        W34166  19.306   5.362  21.232
33302W        W34167  21.577   5.145  21.486
33303W        W34168  19.193   6.589  19.931
33304W        W34169  20.314   6.278  21.065
33305W        W34170  19.534   4.918  20.290
33306W        W34171  19.826   5.702  19.933
33307W        W34172  20.823   6.475  21.781
33308W        W34173  19.902   5.795  21.791
33309W        W34174  19.883   5.511  21.269
33310W        W34175  18.292   4.902  21.791
33311W        W34176  21.124   6.437  21.390
33312W        W34177  18.705   4.019  19.388
33313W        W34178  19.232   6.277  20.387
33314W        W34179  21.695   6.060  19.677
33315W        W34180  21.108   4.460  20.244
33316W        W34181  21.393   4.413  18.339
33317W        W34182  21.858   5.214  20.645
33318W        W34183  19.825   6.921  20.398
33319W        W34184  21.599   6.387  18.836
33320W        W34185  18.728   7.173  18.590
33321W        W34186  19.121   7.219  19.266
33322W        W34187  18.918   3.973  20.692
33323W        W34188  21.541   4.991  20.967
33324W        W34189  20.946   5.413  19.426
33325W        W34190  20.912   5.101  18.453
33326W        W34191  20.120   6.245  20.593
33327W        W34192  19.926   4.575  19.792
33328W        W34193  20.526   6.662  20.786
33329W        W34194  21.397   5.453  19.208
33330W        W34195  20.299   4.111  19.224
33331W        W34196  18.956   6.805  18.907
33332W        W34197  18.327   4.304  19.506
33333W        W34198  21.113   4.911  19.980
33334W        W34199  18.571   6.528  19.895
33335W        W34200  19.912   6.878  18.765
33336W        W34201  21.304   4.904  18.229
33337W        W34202  18.327   6.662  20.393
33338W        W34203  19.118   6.234  20.873
33339W        W34204  19.491   5.594  19.492
33340W        W34205  19.513   3.999  20.585
33341W        W34206  21.742   3.761  19.882
33342W        W34207  18.961   5.633  18.350
33343W        W34208  18.616   4.666  18.529
33344W        W34209  18.678   6.622  19.323
33345W        W34210  19.809   6.105  19.571
33346W        W34211  21.141   6.964  21.285
33347W        W34212  20.067   4.606  18.969
33348W        W34213  21.450   7.004  19.741
33349W        W34214  21.127   4.857  21.339
33350W        W34215  21.840   6.513  19.473
33351W        W34216  20.467   5.805  20.957
33352W        W34217  18.233   5.356  19.163
33353W        W34218  19.344   5.771  20.736
33354W        W34219  20.548   5.035  19.114
33355W        W34220  20.425   5.525  19.218
33356W        W34221  18.768   4.945  20.692
33357W        W34222  18.753   4.821  21.614
33358W        W34223  18.643   3.738  19.773
33359W        W34224  20.411   4.085  20.334
33360W        W34225  20.059   4.270  21.497
33361W        W34226  20.414   4.419  18.675
33362W        W34227  21.597   6.812  21.429
33363W        W34228  20.564   3.893  21.468
33364W        W34229  21.583   6.194  21.590
33365W        W34230  21.013   4.361  21.186
33366W        W34231  20.813   4.299  19.456
33367W        W34232  21.206   5.433  21.860
33368W        W34233  18.946   7.009  19.846
33369W        W34234  19.604   4.726  18.832
33370W        W34235  19.173   4.010  21.496
33371W        W34236  21.225   4.494  19.177
33372W        W34237  21.592   4.976  19.122
33373W        W34238  19.335   7.193  21.593
33374W        W34239  19.261   3.729  18.828
33375W        W34240  21.582   4.263  19.863
33376W        W34241  21.732   6.512  18.308
33377W        W34242  18.639   5.715  20.010
33378W        W34243  20.556   4.302  18.240
33379W        W34244  21.690   6.634  19.960
33380W        W34245  21.729   3.828  20.710
33381W        W34246  20.174   5.040  21.264
33382W        W34247  20.267   6.379  18.967
33383W        W34248  20.667   5.673  21.707
33384W        W34249  20.341   3.650  20.016
33385W        W34250  18.953   4.553  20.079
33386W        W34251  18.507   5.753  20.853
33387W        W34252  20.366   6.946  19.559
33388W        W34253  21.560   4.543  20.431
33389W        W34254  20.197   6.890  21.198
33390W        W34255  21.540   5.949  18.403
33391W        W34256  19.975   5.432  19.464
33392W        W34257  21.827   3.943  21.205
33393W        W34258  19.976   5.778  20.799
33394W        W34259  20.193   4.664  20.244
33395W        W34260  21.045   4.962  19.082
33396W        W34261  21.332   4.695  18.724
33397W        W34262  21.141   6.735  19.113
33398W        W34263  20.975   6.338  19.909
33399W        W34264  20.871   5.417  18.887
33400W        W34265  20.304   5.627  19.873
33401W        W34266  21.185   5.415  19.940
33402W        W34267  18.560   4.430  20.364
33403W        W34268  21.338   5.482  21.191
33404W        W34269  21.689   7.100  20.337
33405W        W34270  19.619   6.544  19.739
33406W        W34271  20.626   7.077  21.063
33407W        W34272  20.620   4.407  20.827
33408W        W34273  19.827   7.115  20.888
33409W        W34274  21.524   4.069  19.354
33410W        W34275  21.315   5.388  20.655
33411W        W34276  18.298   4.709  20.693
33412W        W34277  21.158   4.504  19.711
33413W        W34278  21.569   4.655  21.488
33414W        W34279  20.454   6.354  19.706
33415W        W34280  19.710   6.945  19.319
33416W        W34281  18.825   4.125  18.577
33417W        W34282  19.929   3.779  20.387
33418W        W34283  18.957   6.899  18.235
33419W        W34284  19.331   5.365  18.986
33420W        W34285  19.985   5.994  21.299
33421W        W34286  19.815   4.352  19.289
33422W        W34287  21.171   3.949  19.717
33423W        W34288  20.891   7.231  20.045
33424W        W34289  20.303   6.879  20.385
33425W        W34290  19.699   5.916  20.346
33426W        W34291  21.469   6.639  20.472
33427W        W34292  19.163   4.142  19.241
33428W        W34293  19.685   6.439  20.201
33429W        W34294  19.168   4.370  18.266
33430W        W34295  19.969   4.979  20.660
33431W        W34296  20.817   3.845  20.530
33432W        W34297  18.237   5.688  20.415
33433W        W34298  19.941   5.506  18.573
33434W        W34299  19.209   3.821  18.343
33435W        W34300  19.947   4.902  19.394
33436W        W34301  20.917   3.878  21.093
33437W        W34302  19.505   5.890  21.202
33438W        W34303  20.309   5.672  21.419
33439W        W34304  20.926   5.702  21.312
33440W        W34305  20.210   3.842  21.817
33441W        W34306  19.432   4.458  20.210
33442W        W34307  18.858   4.414  19.608
33443W        W34308  18.644   7.126  19.284
33444W        W34309  19.976   6.456  21.409
33445W        W34310  19.011   5.941  18.768
33446W        W34311  20.691   5.326  19.989
33447W        W34312  20.971   5.125  20.388
33448W        W34313  20.176   5.799  20.322
33449W        W34314  20.646   6.173  18.454
33450W        W34315  20.318   4.194  19.782
33451W        W34316  21.797   4.472  19.050
33452W        W34317  18.291   7.061  21.081
33453W        W34318  18.708   6.287  20.613
33454W        W34319  18.275   7.133  18.845
33455W        W34320  20.174   4.403  20.651
33456W        W34321  19.537   6.426  18.500
33457W        W34322  21.442   6.808  18.686
33458W        W34323  20.417   5.461  18.700
33459W        W34324  19.260   4.652  19.217
33460W        W34325  20.092   4.562  18.269
33461W        W34326  20.676   6.127  21.447
33462W        W34327  21.029   4.033  19.064
33463W        W34328  18.359   3.881  18.512
33464W        W34329  19.645   6.200  20.802
33465W        W34330  19.444   6.116  19.894
33466W        W34331  19.186   6.068  18.292
33467W        W34332  18.427   6.309  19.060
33468W        W34333  18.931   5.379  21.502
33469W        W34334  19.635   3.939  21.688
33470W        W34335  20.344   4.081  21.044
33471W        W34336  19.539   3.849  19.325
33472W        W34337  20.598   3.926  18.830
33473W        W34338  18.543   3.858  20.407
33474W        W34339  18.591   4.821  19.777
33475W        W34340  21.280   3.929  20.183
33476W        W34341  18.702   4.427  18.997
33477W        W34342  21.273   4.115  20.613
33478W        W34343  21.669   5.318  18.298
33479W        W34344  18.961   4.076  20.117
33480W        W34345  20.075   4.648  21.057
33481W        W34346  18.223   4.338  18.535
33482W        W34347  19.009   5.727  21.096
33483W        W34348  20.367   5.125  20.275
33484W        W34349  20.234   7.204  18.571
33485W        W34350  18.380   5.711  18.268
33486W        W34351  19.115   6.122  21.394
33487W        W34352  18.636   5.289  21.025
33488W        W34353  19.627   5.394  20.819
33489W        W34354  21.395   3.753  21.081
33490W        W34355  21.793   5.363  21.072
33491W        W34356  21.781   5.563  18.758
33492W        W34357  20.644   5.895  18.857
33493W        W34358  21.118   7.195  18.552
33494W        W34359  20.295   5.185  21.694
33495W        W34360  18.625   6.152  21.734
33496W        W34361  21.831   4.074  21.686
33497W        W34362  21.549   5.002  20.307
33498W        W34363  19.857   7.132  21.784
33499W        W34364  19.712   3.761  18.511
33500W        W34365  21.251   6.360  18.454
33501W        W34366  19.020   4.453  21.340
33502W        W34367  19.454   6.447  21.202
33503W        W34368  21.580   4.438  21.000
33504W        W34369  20.791   7.097  18.968
33505W        W34370  21.030   5.716  20.335
33506W        W34371  19.280   4.132  21.002
33507W        W34372  19.749   5.201  21.759
33508W        W34373  19.252   6.380  18.953
33509W        W34374  21.007   5.878  19.217
33510W        W34375  18.775   4.504  20.941
33511W        W34376  20.104   6.566  19.405
33512W        W34377  21.854   5.126  19.586
33513W        W34378  20.076   3.759  21.305
33514W        W34379  20.856   6.464  20.384
33515W        W34380  21.159   6.808  20.092
33516W        W34381  20.378   6.610  18.520
33517W        W34382  18.388   6.502  21.362
33518W        W34383  19.131   4.494  20.600
33519W        W34384  19.101   3.842  19.710
33520W        W34385  20.722   4.684  20.402
33521W        W34386  19.520   5.855  18.602
33522W        W34387  21.518   5.797  20.101
33523W        W34388  18.845   6.555  21.524
33524W        W34389  21.232   7.237  19.321
33525W        W34390  19.331   4.257  19.766
33526W        W34391  19.100   5.750  19.856
33527W        W34392  19.413   7.161  20.606
33528W        W34393  21.480   7.257  21.638
33529W        W34394  20.639   5.445  20.571
33530W        W34395  18.488   5.243  18.486
33531W        W34396  21.622   6.901  19.183
33532W        W34397  21.459   4.225  18.802
33533W        W34398  19.598   3.744  21.205
33534W        W34399  21.304   6.546  19.663
33535W        W34400  21.333   5.102  19.568
33536W        W34401  19.450   4.775  19.784
33537W        W34402  19.695   5.037  21.108
33538W        W34403  20.806   6.190  20.971
33539W        W34404  19.456   4.644  21.083
33540W        W34405  19.435   7.110  19.699
33541W        W34406  18.752   7.069  21.333
33542W        W34407  18.864   6.430  18.463
33543W        W34408  21.381   6.188  19.273
33544W        W34409  18.985   4.980  21.159
33545W        W34410  21.758   4.910  18.640
33546W        W34411  19.503   5.967  19.111
33547W        W34412  20.602   5.349  21.192
33548W        W34413  20.493   4.977  20.736
33549W        W34414  19.053   5.349  20.765
33550W        W34415  21.263   7.237  20.594
33551W        W34416  21.054   3.871  21.588
33552W        W34417  18.718   4.021  21.175
33553W        W34418  19.057   5.044  20.228
33554W        W34419  19.426   4.858  18.350
33555W        W34420  18.229   6.617  20.895
33556W        W34421  19.814   5.326  20.338
33557W        W34422  19.637   4.351  18.443
33558W        W34423  18.772   5.167  19.224
33559W        W34424  18.543   7.019  20.661
33560W        W34425  21.338   5.245  18.769
33561W        W34426  21.433   4.161  21.455
33562W        W34427  20.869   6.370  19.418
33563W        W34428  18.467   5.294  21.595
33564W        W34429  21.433   3.758  18.891
33565W        W34430  20.953   6.233  18.902
33566W        W34431  19.855   5.291  18.987
33567W        W34432  21.042   4.095  18.510
33568W        W34433  21.107   4.702  20.696
33569W        W34434  18.816   5.295  19.903
33570W        W34435  19.110   6.234  19.552
33571W        W34436  20.873   4.854  19.517
33572W        W34437  19.896   4.233  20.213
33573W        W34438  21.858   6.144  20.724
33574W        W34439  21.776   4.131  20.285
33575W        W34440  18.315   6.961  19.661
33576W        W34441  18.824   6.148  19.197
33577W        W34442  18.739   3.765  21.750
33578W        W34443  19.858   6.618  21.852
33579W        W34444  21.613   5.586  19.642
33580W        W34445  20.967   5.763  18.522
33581W        W34446  20.262   7.284  20.734
33582W        W34447  21.119   6.006  21.771
33583W        W34448  19.934   3.716  19.051
33584W        W34449  20.647   4.585  19.910
33585W        W34450  18.333   6.172  20.242
33586W        W34451  19.586   4.134  18.883
33587W        W34452  19.390   5.618  21.732
33588W        W34453  20.384   4.599  19.446
33589W        W34454  20.589   6.009  20.568
33590W        W34455  18.743   6.614  21.003
33591W        W34456  19.334   6.597  21.726
33592W        W34457  19.185   4.394  18.740
33593W        W34458  20.702   4.536  19.065
33594W        W34459  20.660   6.644  21.302
33595W        W34460  19.345   5.236  19.901
33596W        W34461  19.000   6.934  20.766
33597W        W34462  21.745   7.051  18.367
33598W        W34463  18.608   5.723  21.363
33599W        W34464  20.603   5.985  20.051
33600W        W34465  19.039   5.634  19.293
33601W        W34466  19.410   6.641  20.688
33602W        W34467  19.788   4.060  19.729
33603W        W34468  18.399   6.044  18.659
33604W        W34469  19.918   4.995  18.529
33605W        W34470  18.564   5.544  19.548
33606W        W34471  19.854   4.186  21.012
33607W        W34472  21.526   3.895  18.439
33608W        W34473  21.619   5.641  21.538
33609W        W34474  20.273   6.898  21.690
33610W        W34475  21.831   5.992  21.212
33611W        W34476  21.239   6.790  21.823
33612W        W34477  18.978   7.246  20.301
33613W        W34478  21.837   5.868  19.175
33614W        W34479  20.367   5.135  19.688
33615W        W34480  20.134   3.747  19.578
33616W        W34481  19.193   6.731  19.415
33617W        W34482  19.692   4.472  20.640
33618W        W34483  19.392   3.841  20.109
33619W        W34484  18.455   6.663  18.657
33620W        W34485  20.271   6.027  19.375
33621W        W34486  19.146   6.822  21.254
33622W        W34487  18.623   5.645  18.950
33623W        W34488  18.508   4.188  19.949
33624W        W34489  20.056   6.153  20.006
33625W        W34490  18.308   4.007  19.026
33626W        W34491  20.972   5.213  20.953
33627W        W34492  20.849   4.599  18.525
33628W        W34493  21.366   6.271  20.173
33629W        W34494  20.027   6.755  20.004
33630W        W34495  19.439   6.859  18.915
33631W        W34496  20.721   3.762  18.345
33632W        W34497  18.521   7.022  20.086
33633W        W34498  20.718   4.780  21.721
33634W        W34499  18.701   4.310  21.720
33635W        W34500  18.432   4.910  19.053
33636W        W34501  19.123   4.899  18.778
33637W        W34502  20.886   5.226  21.595
33638W        W34503  19.229   5.507  20.304
33639W        W34504  20.703   3.793  19.424
33640W        W34505  19.834   7.224  19.927
33641W        W34506  21.048   6.686  20.864
33642W        W34507  20.632   6.835  19.975
33643W        W34508  20.651   5.815  19.569
33644W        W34509  20.113   4.040  18.640
33645W        W34510  21.794   3.668  19.362
33646W        W34511  19.482   5.303  18.525
33647W        W34512  21.648   4.640  19.515
33648W        W34513  20.340   5.810  18.392
33649W        W34514  21.276   6.010  21.140
33650W        W34515  20.930   6.711  18.607
33651W        W34516  19.545   4.386  21.513
33652W        W34517  19.365   4.970  20.754
33653W        W34518  21.457   6.465  21.031
33654W        W34519  20.557   4.415  21.408
33655W        W34520  18.401   4.886  21.185
33656W        W34521  20.161   5.363  20.911
33657W        W34522  18.518   6.121  19.568
33658W        W34523  18.665   5.418  20.458
33659W        W34524  20.982   5.704  20.808
33660W        W34525  20.754   7.084  21.619
33661W        W34526  20.650   4.823  21.172
33662W        W34527  20.927   6.877  19.577
33663W        W34528  19.929   6.597  20.900
33664W        W34529  19.414   6.952  20.169
33665W        W34530  21.219   6.123  20.588
33666W        W34531  20.269   6.195  21.725
33667W        W34532  18.874   6.148  20.064
33668W        W34533  21.220   5.907  19.709
33669W        W34534  20.861   6.973  20.460
33670W        W34535  18.839   6.702  20.330
33671W        W34536  19.860   4.754  21.540
33672W        W34537  20.311   6.920  19.051
33673W        W34538  19.619   6.175  21.689
33674W        W34539  19.745   6.413  19.066
33675W        W34540  18.966   5.153  18.325
33676W        W34541  18.305   7.239  25.225
33677W        W34542  18.681   6.132  24.748
33678W        W34543  21.386   5.862  22.518
33679W        W34544  21.516   6.947  24.545
33680W        W34545  19.434   6.938  22.071
33681W        W34546  19.517   5.090  23.054
33682W        W34547  19.032   4.938  23.218
33683W        W34548  20.023   5.753  22.652
33684W        W34549  19.698   6.845  25.007
33685W        W34550  18.347   4.406  24.970
33686W        W34551  19.109   3.686  24.772
33687W        W34552  20.803   4.074  23.659
33688W        W34553  20.452   4.945  22.229
33689W        W34554  21.022   4.379  25.320
33690W        W34555  18.388   4.171  24.445
33691W        W34556  18.487   6.790  25.466
33692W        W34557  20.009   6.180  22.198
33693W        W34558  18.441   4.963  23.891
33694W        W34559  19.334   4.854  25.128
33695W        W34560  21.793   4.713  23.627
33696W        W34561  21.557   5.756  24.486
33697W        W34562  19.865   5.089  23.513
33698W        W34563  20.411   6.428  23.882
33699W        W34564  18.911   5.862  24.114
33700W        W34565  18.270   5.390  23.685
33701W        W34566  19.306   5.362  24.877
33702W        W34567  21.577   5.145  25.131
33703W        W34568  19.193   6.589  23.576
33704W        W34569  20.314   6.278  24.710
33705W        W34570  19.534   4.918  23.935
33706W        W34571  19.826   5.702  23.578
33707W        W34572  20.823   6.475  25.426
33708W        W34573  19.902   5.795  25.436
33709W        W34574  19.883   5.511  24.914
33710W        W34575  18.292   4.902  25.436
33711W        W34576  21.124   6.437  25.035
33712W        W34577  18.705   4.019  23.033
33713W        W34578  19.232   6.277  24.032
33714W        W34579  21.695   6.060  23.322
33715W        W34580  21.108   4.460  23.889
33716W        W34581  21.393   4.413  21.984
33717W        W34582  21.858   5.214  24.290
33718W        W34583  19.825   6.921  24.043
33719W        W34584  21.599   6.387  22.481
33720W        W34585  18.728   7.173  22.235
33721W        W34586  19.121   7.219  22.911
33722W        W34587  18.918   3.973  24.337
33723W        W34588  21.541   4.991  24.612
33724W        W34589  20.946   5.413  23.071
33725W        W34590  20.912   5.101  22.098
33726W        W34591  20.120   6.245  24.238
33727W        W34592  19.926   4.575  23.437
33728W        W34593  20.526   6.662  24.431
33729W        W34594  21.397   5.453  22.853
33730W        W34595  20.299   4.111  22.869
33731W        W34596  18.956   6.805  22.552
33732W        W34597  18.327   4.304  23.151
33733W        W34598  21.113   4.911  23.625
33734W        W34599  18.571   6.528  23.540
33735W        W34600  19.912   6.878  22.410
33736W        W34601  21.304   4.904  21.874
33737W        W34602  18.327   6.662  24.038
33738W        W34603  19.118   6.234  24.518
33739W        W34604  19.491   5.594  23.137
33740W        W34605  19.513   3.999  24.230
33741W        W34606  21.742   3.761  23.527
33742W        W34607  18.961   5.633  21.995
33743W        W34608  18.616   4.666  22.174
33744W        W34609  18.678   6.622  22.968
33745W        W34610  19.809   6.105  23.216
33746W        W34611  21.141   6.964  24.930
33747W        W34612  20.067   4.606  22.614
33748W        W34613  21.450   7.004  23.386
33749W        W34614  21.127   4.857  24.984
33750W        W34615  21.840   6.513  23.118
33751W        W34616  20.467   5.805  24.602
33752W        W34617  18.233   5.356  22.808
33753W        W34618  19.344   5.771  24.381
33754W        W34619  20.548   5.035  22.759
33755W        W34620  20.425   5.525  22.863
33756W        W34621  18.768   4.945  24.337
33757W        W34622  18.753   4.821  25.259
33758W        W34623  18.643   3.738  23.418
33759W        W34624  20.411   4.085  23.979
33760W        W34625  20.059   4.270  25.142
33761W        W34626  20.414   4.419  22.320
33762W        W34627  21.597   6.812  25.074
33763W        W34628  20.564   3.893  25.113
33764W        W34629  21.583   6.194  25.235
33765W        W34630  21.013   4.361  24.831
33766W        W34631  20.813   4.299  23.101
33767W        W34632  21.206   5.433  25.505
33768W        W34633  18.946   7.009  23.491
33769W        W34634  19.604   4.726  22.477
33770W        W34635  19.173   4.010  25.141
33771W        W34636  21.225   4.494  22.822
33772W        W34637  21.592   4.976  22.767
33773W        W34638  19.335   7.193  25.238
33774W        W34639  19.261   3.729  22.473
33775W        W34640  21.582   4.263  23.508
33776W        W34641  21.732   6.512  21.953
33777W        W34642  18.639   5.715  23.655
33778W        W34643  20.556   4.302  21.885
33779W        W34644  21.690   6.634  23.605
33780W        W34645  21.729   3.828  24.355
33781W        W34646  20.174   5.040  24.909
33782W        W34647  20.267   6.379  22.612
33783W        W34648  20.667   5.673  25.352
33784W        W34649  20.341   3.650  23.661
33785W        W34650  18.953   4.553  23.724
33786W        W34651  18.507   5.753  24.498
33787W        W34652  20.366   6.946  23.204
33788W        W34653  21.560   4.543  24.076
33789W        W34654  20.197   6.890  24.843
33790W        W34655  21.540   5.949  22.048
33791W        W34656  19.975   5.432  23.109
33792W        W34657  21.827   3.943  24.850
33793W        W34658  19.976   5.778  24.444
33794W        W34659  20.193   4.664  23.889
33795W        W34660  21.045   4.962  22.727
33796W        W34661  21.332   4.695  22.369
33797W        W34662  21.141   6.735  22.758
33798W        W34663  20.975   6.338  23.554
33799W        W34664  20.871   5.417  22.532
33800W        W34665  20.304   5.627  23.518
33801W        W34666  21.185   5.415  23.585
33802W        W34667  18.560   4.430  24.009
33803W        W34668  21.338   5.482  24.836
33804W        W34669  21.689   7.100  23.982
33805W        W34670  19.619   6.544  23.384
33806W        W34671  20.626   7.077  24.708
33807W        W34672  20.620   4.407  24.472
33808W        W34673  19.827   7.115  24.533
33809W        W34674  21.524   4.069  22.999
33810W        W34675  21.315   5.388  24.300
33811W        W34676  18.298   4.709  24.338
33812W        W34677  21.158   4.504  23.356
33813W        W34678  21.569   4.655  25.133
33814W        W34679  20.454   6.354  23.351
33815W        W34680  19.710   6.945  22.964
33816W        W34681  18.825   4.125  22.222
33817W        W34682  19.929   3.779  24.032
33818W        W34683  18.957   6.899  21.880
33819W        W34684  19.331   5.365  22.631
33820W        W34685  19.985   5.994  24.944
33821W        W34686  19.815   4.352  22.934
33822W        W34687  21.171   3.949  23.362
33823W        W34688  20.891   7.231  23.690
33824W        W34689  20.303   6.879  24.030
33825W        W34690  19.699   5.916  23.991
33826W        W34691  21.469   6.639  24.117
33827W        W34692  19.163   4.142  22.886
33828W        W34693  19.685   6.439  23.846
33829W        W34694  19.168   4.370  21.911
33830W        W34695  19.969   4.979  24.305
33831W        W34696  20.817   3.845  24.175
33832W        W34697  18.237   5.688  24.060
33833W        W34698  19.941   5.506  22.218
33834W        W34699  19.209   3.821  21.988
33835W        W34700  19.947   4.902  23.039
33836W        W34701  20.917   3.878  24.738
33837W        W34702  19.505   5.890  24.847
33838W        W34703  20.309   5.672  25.064
33839W        W34704  20.926   5.702  24.957
33840W        W34705  20.210   3.842  25.462
33841W        W34706  19.432   4.458  23.855
33842W        W34707  18.858   4.414  23.253
33843W        W34708  18.644   7.126  22.929
33844W        W34709  19.976   6.456  25.054
33845W        W34710  19.011   5.941  22.413
33846W        W34711  20.691   5.326  23.634
33847W        W34712  20.971   5.125  24.033
33848W        W34713  20.176   5.799  23.967
33849W        W34714  20.646   6.173  22.099
33850W        W34715  20.318   4.194  23.427
33851W        W34716  21.797   4.472  22.695
33852W        W34717  18.291   7.061  24.726
33853W        W34718  18.708   6.287  24.258
33854W        W34719  18.275   7.133  22.490
33855W        W34720  20.174   4.403  24.296
33856W        W34721  19.537   6.426  22.145
33857W        W34722  21.442   6.808  22.331
33858W        W34723  20.417   5.461  22.345
33859W        W34724  19.260   4.652  22.862
33860W        W34725  20.092   4.562  21.914
33861W        W34726  20.676   6.127  25.092
33862W        W34727  21.029   4.033  22.709
33863W        W34728  18.359   3.881  22.157
33864W        W34729  19.645   6.200  24.447
33865W        W34730  19.444   6.116  23.539
33866W        W34731  19.186   6.068  21.937
33867W        W34732  18.427   6.309  22.705
33868W        W34733  18.931   5.379  25.147
33869W        W34734  19.635   3.939  25.333
33870W        W34735  20.344   4.081  24.689
33871W        W34736  19.539   3.849  22.970
33872W        W34737  20.598   3.926  22.475
33873W        W34738  18.543   3.858  24.052
33874W        W34739  18.591   4.821  23.422
33875W        W34740  21.280   3.929  23.828
33876W        W34741  18.702   4.427  22.642
33877W        W34742  21.273   4.115  24.258
33878W        W34743  21.669   5.318  21.943
33879W        W34744  18.961   4.076  23.762
33880W        W34745  20.075   4.648  24.702
33881W        W34746  18.223   4.338  22.180
33882W        W34747  19.009   5.727  24.741
33883W        W34748  20.367   5.125  23.920
33884W        W34749  20.234   7.204  22.216
33885W        W34750  18.380   5.711  21.913
33886W        W34751  19.115   6.122  25.039
33887W        W34752  18.636   5.289  24.670
33888W        W34753  19.627   5.394  24.464
33889W        W34754  21.395   3.753  24.726
33890W        W34755  21.793   5.363  24.717
33891W        W34756  21.781   5.563  22.403
33892W        W34757  20.644   5.895  22.502
33893W        W34758  21.118   7.195  22.197
33894W        W34759  20.295   5.185  25.339
33895W        W34760  18.625   6.152  25.379
33896W        W34761  21.831   4.074  25.331
33897W        W34762  21.549   5.002  23.952
33898W        W34763  19.857   7.132  25.429
33899W        W34764  19.712   3.761  22.156
33900W        W34765  21.251   6.360  22.099
33901W        W34766  19.020   4.453  24.985
33902W        W34767  19.454   6.447  24.847
33903W        W34768  21.580   4.438  24.645
33904W        W34769  20.791   7.097  22.613
33905W        W34770  21.030   5.716  23.980
33906W        W34771  19.280   4.132  24.647
33907W        W34772  19.749   5.201  25.404
33908W        W34773  19.252   6.380  22.598
33909W        W34774  21.007   5.878  22.862
33910W        W34775  18.775   4.504  24.586
33911W        W34776  20.104   6.566  23.050
33912W        W34777  21.854   5.126  23.231
33913W        W34778  20.076   3.759  24.950
33914W        W34779  20.856   6.464  24.029
33915W        W34780  21.159   6.808  23.737
33916W        W34781  20.378   6.610  22.165
33917W        W34782  18.388   6.502  25.007
33918W        W34783  19.131   4.494  24.245
33919W        W34784  19.101   3.842  23.355
33920W        W34785  20.722   4.684  24.047
33921W        W34786  19.520   5.855  22.247
33922W        W34787  21.518   5.797  23.746
33923W        W34788  18.845   6.555  25.169
33924W        W34789  21.232   7.237  22.966
33925W        W34790  19.331   4.257  23.411
33926W        W34791  19.100   5.750  23.501
33927W        W34792  19.413   7.161  24.251
33928W        W34793  21.480   7.257  25.283
33929W        W34794  20.639   5.445  24.216
33930W        W34795  18.488   5.243  22.131
33931W        W34796  21.622   6.901  22.828
33932W        W34797  21.459   4.225  22.447
33933W        W34798  19.598   3.744  24.850
33934W        W34799  21.304   6.546  23.308
33935W        W34800  21.333   5.102  23.213
33936W        W34801  19.450   4.775  23.429
33937W        W34802  19.695   5.037  24.753
33938W        W34803  20.806   6.190  24.616
33939W        W34804  19.456   4.644  24.728
33940W        W34805  19.435   7.110  23.344
33941W        W34806  18.752   7.069  24.978
33942W        W34807  18.864   6.430  22.108
33943W        W34808  21.381   6.188  22.918
33944W        W34809  18.985   4.980  24.804
33945W        W34810  21.758   4.910  22.285
33946W        W34811  19.503   5.967  22.756
33947W        W34812  20.602   5.349  24.837
33948W        W34813  20.493   4.977  24.381
33949W        W34814  19.053   5.349  24.410
33950W        W34815  21.263   7.237  24.239
33951W        W34816  21.054   3.871  25.233
33952W        W34817  18.718   4.021  24.820
33953W        W34818  19.057   5.044  23.873
33954W        W34819  19.426   4.858  21.995
33955W        W34820  18.229   6.617  24.540
33956W        W34821  19.814   5.326  23.983
33957W        W34822  19.637   4.351  22.088
33958W        W34823  18.772   5.167  22.869
33959W        W34824  18.543   7.019  24.306
33960W        W34825  21.338   5.245  22.414
33961W        W34826  21.433   4.161  25.100
33962W        W34827  20.869   6.370  23.063
33963W        W34828  18.467   5.294  25.240
33964W        W34829  21.433   3.758  22.536
33965W        W34830  20.953   6.233  22.547
33966W        W34831  19.855   5.291  22.632
33967W        W34832  21.042   4.095  22.155
33968W        W34833  21.107   4.702  24.341
33969W        W34834  18.816   5.295  23.548
33970W        W34835  19.110   6.234  23.197
33971W        W34836  20.873   4.854  23.162
33972W        W34837  19.896   4.233  23.858
33973W        W34838  21.858   6.144  24.369
33974W        W34839  21.776   4.131  23.930
33975W        W34840  18.315   6.961  23.306
33976W        W34841  18.824   6.148  22.842
33977W        W34842  18.739   3.765  25.395
33978W        W34843  19.858   6.618  25.497
33979W        W34844  21.613   5.586  23.287
33980W        W34845  20.967   5.763  22.167
33981W        W34846  20.262   7.284  24.379
33982W        W34847  21.119   6.006  25.416
33983W        W34848  19.934   3.716  22.696
33984W        W34849  20.647   4.585  23.555
33985W        W34850  18.333   6.172  23.887
33986W        W34851  19.586   4.134  22.528
33987W        W34852  19.390   5.618  25.377
33988W        W34853  20.384   4.599  23.091
33989W        W34854  20.589   6.009  24.213
33990W        W34855  18.743   6.614  24.648
33991W        W34856  19.334   6.597  25.371
33992W        W34857  19.185   4.394  22.385
33993W        W34858  20.702   4.536  22.710
33994W        W34859  20.660   6.644  24.947
33995W        W34860  19.345   5.236  23.546
33996W        W34861  19.000   6.934  24.411
33997W        W34862  21.745   7.051  22.012
33998W        W34863  18.608   5.723  25.008
33999W        W34864  20.603   5.985  23.696
34000W        W34865  19.039   5.634  22.938
34001W        W34866  19.410   6.641  24.333
34002W        W34867  19.788   4.060  23.374
34003W        W34868  18.399   6.044  22.304
34004W        W34869  19.918   4.995  22.174
34005W        W34870  18.564   5.544  23.193
34006W        W34871  19.854   4.186  24.657
34007W        W34872  21.526   3.895  22.084
34008W        W34873  21.619   5.641  25.183
34009W        W34874  20.273   6.898  25.335
34010W        W34875  21.831   5.992  24.857
34011W        W34876  21.239   6.790  25.468
34012W        W34877  18.978   7.246  23.946
34013W        W34878  21.837   5.868  22.820
34014W        W34879  20.367   5.135  23.333
34015W        W34880  20.134   3.747  23.223
34016W        W34881  19.193   6.731  23.060
34017W        W34882  19.692   4.472  24.285
34018W        W34883  19.392   3.841  23.754
34019W        W34884  18.455   6.663  22.302
34020W        W34885  20.271   6.027  23.020
34021W        W34886  19.146   6.822  24.899
34022W        W34887  18.623   5.645  22.595
34023W        W34888  18.508   4.188  23.594
34024W        W34889  20.056   6.153  23.651
34025W        W34890  18.308   4.007  22.671
34026W        W34891  20.972   5.213  24.598
34027W        W34892  20.849   4.599  22.170
34028W        W34893  21.366   6.271  23.818
34029W        W34894  20.027   6.755  23.649
34030W        W34895  19.439   6.859  22.560
34031W        W34896  20.721   3.762  21.990
34032W        W34897  18.521   7.022  23.731
34033W        W34898  20.718   4.780  25.366
34034W        W34899  18.701   4.310  25.365
34035W        W34900  18.432   4.910  22.698
34036W        W34901  19.123   4.899  22.423
34037W        W34902  20.886   5.226  25.240
34038W        W34903  19.229   5.507  23.949
34039W        W34904  20.703   3.793  23.069
34040W        W34905  19.834   7.224  23.572
34041W        W34906  21.048   6.686  24.509
34042W        W34907  20.632   6.835  23.620
34043W        W34908  20.651   5.815  23.214
34044W        W34909  20.113   4.040  22.285
34045W        W34910  21.794   3.668  23.007
34046W        W34911  19.482   5.303  22.170
34047W        W34912  21.648   4.640  23.160
34048W        W34913  20.340   5.810  22.037
34049W        W34914  21.276   6.010  24.785
34050W        W34915  20.930   6.711  22.252
34051W        W34916  19.545   4.386  25.158
34052W        W34917  19.365   4.970  24.399
34053W        W34918  21.457   6.465  24.676
34054W        W34919  20.557   4.415  25.053
34055W        W34920  18.401   4.886  24.830
34056W        W34921  20.161   5.363  24.556
34057W        W34922  18.518   6.121  23.213
34058W        W34923  18.665   5.418  24.103
34059W        W34924  20.982   5.704  24.453
34060W        W34925  20.754   7.084  25.264
34061W        W34926  20.650   4.823  24.817
34062W        W34927  20.927   6.877  23.222
34063W        W34928  19.929   6.597  24.545
34064W        W34929  19.414   6.952  23.814
34065W        W34930  21.219   6.123  24.233
34066W        W34931  20.269   6.195  25.370
34067W        W34932  18.874   6.148  23.709
34068W        W34933  21.220   5.907  23.354
34069W        W34934  20.861   6.973  24.105
34070W        W34935  18.839   6.702  23.975
34071W        W34936  19.860   4.754  25.185
34072W        W34937  20.311   6.920  22.696
34073W        W34938  19.619   6.175  25.334
34074W        W34939  19.745   6.413  22.711
34075W        W34940  18.966   5.153  21.970
34076W        W34941  18.305   7.239  28.869
34077W        W34942  18.681   6.132  28.392
34078W        W34943  21.386   5.862  26.162
34079W        W34944  21.516   6.947  28.189
34080W        W34945  19.434   6.938  25.715
34081W        W34946  19.517   5.090  26.698
34082W        W34947  19.032   4.938  26.862
34083W        W34948  20.023   5.753  26.296
34084W        W34949  19.698   6.845  28.651
34085W        W34950  18.347   4.406  28.614
34086W        W34951  19.109   3.686  28.416
34087W        W34952  20.803   4.074  27.303
34088W        W34953  20.452   4.945  25.873
34089W        W34954  21.022   4.379  28.964
34090W        W34955  18.388   4.171  28.089
34091W        W34956  18.487   6.790  29.110
34092W        W34957  20.009   6.180  25.842
34093W        W34958  18.441   4.963  27.535
34094W        W34959  19.334   4.854  28.772
34095W        W34960  21.793   4.713  27.271
34096W        W34961  21.557   5.756  28.130
34097W        W34962  19.865   5.089  27.157
34098W        W34963  20.411   6.428  27.526
34099W        W34964  18.911   5.862  27.758
34100W        W34965  18.270   5.390  27.329
34101W        W34966  19.306   5.362  28.521
34102W        W34967  21.577   5.145  28.775
34103W        W34968  19.193   6.589  27.220
34104W        W34969  20.314   6.278  28.354
34105W        W34970  19.534   4.918  27.579
34106W        W34971  19.826   5.702  27.222
34107W        W34972  20.823   6.475  29.070
34108W        W34973  19.902   5.795  29.080
34109W        W34974  19.883   5.511  28.558
34110W        W34975  18.292   4.902  29.080
34111W        W34976  21.124   6.437  28.679
34112W        W34977  18.705   4.019  26.677
34113W        W34978  19.232   6.277  27.676
34114W        W34979  21.695   6.060  26.966
34115W        W34980  21.108   4.460  27.533
34116W        W34981  21.393   4.413  25.628
34117W        W34982  21.858   5.214  27.934
34118W        W34983  19.825   6.921  27.687
34119W        W34984  21.599   6.387  26.125
34120W        W34985  18.728   7.173  25.879
34121W        W34986  19.121   7.219  26.555
34122W        W34987  18.918   3.973  27.981
34123W        W34988  21.541   4.991  28.256
34124W        W34989  20.946   5.413  26.715
34125W        W34990  20.912   5.101  25.742
34126W        W34991  20.120   6.245  27.882
34127W        W34992  19.926   4.575  27.081
34128W        W34993  20.526   6.662  28.075
34129W        W34994  21.397   5.453  26.497
34130W        W34995  20.299   4.111  26.513
34131W        W34996  18.956   6.805  26.196
34132W        W34997  18.327   4.304  26.795
34133W        W34998  21.113   4.911  27.269
34134W        W34999  18.571   6.528  27.184
34135W        W35000  19.912   6.878  26.054
34136W        W35001  21.304   4.904  25.518
34137W        W35002  18.327   6.662  27.682
34138W        W35003  19.118   6.234  28.162
34139W        W35004  19.491   5.594  26.781
34140W        W35005  19.513   3.999  27.874
34141W        W35006  21.742   3.761  27.171
34142W        W35007  18.961   5.633  25.639
34143W        W35008  18.616   4.666  25.818
34144W        W35009  18.678   6.622  26.612
34145W        W35010  19.809   6.105  26.860
34146W        W35011  21.141   6.964  28.574
34147W        W35012  20.067   4.606  26.258
34148W        W35013  21.450   7.004  27.030
34149W        W35014  21.127   4.857  28.628
34150W        W35015  21.840   6.513  26.762
34151W        W35016  20.467   5.805  28.246
34152W        W35017  18.233   5.356  26.452
34153W        W35018  19.344   5.771  28.025
34154W        W35019  20.548   5.035  26.403
34155W        W35020  20.425   5.525  26.507
34156W        W35021  18.768   4.945  27.981
34157W        W35022  18.753   4.821  28.903
34158W        W35023  18.643   3.738  27.062
34159W        W35024  20.411   4.085  27.623
34160W        W35025  20.059   4.270  28.786
34161W        W35026  20.414   4.419  25.964
34162W        W35027  21.597   6.812  28.718
34163W        W35028  20.564   3.893  28.757
34164W        W35029  21.583   6.194  28.879
34165W        W35030  21.013   4.361  28.475
34166W        W35031  20.813   4.299  26.745
34167W        W35032  21.206   5.433  29.149
34168W        W35033  18.946   7.009  27.135
34169W        W35034  19.604   4.726  26.121
34170W        W35035  19.173   4.010  28.785
34171W        W35036  21.225   4.494  26.466
34172W        W35037  21.592   4.976  26.411
34173W        W35038  19.335   7.193  28.882
34174W        W35039  19.261   3.729  26.117
34175W        W35040  21.582   4.263  27.152
34176W        W35041  21.732   6.512  25.597
34177W        W35042  18.639   5.715  27.299
34178W        W35043  20.556   4.302  25.529
34179W        W35044  21.690   6.634  27.249
34180W        W35045  21.729   3.828  27.999
34181W        W35046  20.174   5.040  28.553
34182W        W35047  20.267   6.379  26.256
34183W        W35048  20.667   5.673  28.996
34184W        W35049  20.341   3.650  27.305
34185W        W35050  18.953   4.553  27.368
34186W        W35051  18.507   5.753  28.142
34187W        W35052  20.366   6.946  26.848
34188W        W35053  21.560   4.543  27.720
34189W        W35054  20.197   6.890  28.487
34190W        W35055  21.540   5.949  25.692
34191W        W35056  19.975   5.432  26.753
34192W        W35057  21.827   3.943  28.494
34193W        W35058  19.976   5.778  28.088
34194W        W35059  20.193   4.664  27.533
34195W        W35060  21.045   4.962  26.371
34196W        W35061  21.332   4.695  26.013
34197W        W35062  21.141   6.735  26.402
34198W        W35063  20.975   6.338  27.198
34199W        W35064  20.871   5.417  26.176
34200W        W35065  20.304   5.627  27.162
34201W        W35066  21.185   5.415  27.229
34202W        W35067  18.560   4.430  27.653
34203W        W35068  21.338   5.482  28.480
34204W        W35069  21.689   7.100  27.626
34205W        W35070  19.619   6.544  27.028
34206W        W35071  20.626   7.077  28.352
34207W        W35072  20.620   4.407  28.116
34208W        W35073  19.827   7.115  28.177
34209W        W35074  21.524   4.069  26.643
34210W        W35075  21.315   5.388  27.944
34211W        W35076  18.298   4.709  27.982
34212W        W35077  21.158   4.504  27.000
34213W        W35078  21.569   4.655  28.777
34214W        W35079  20.454   6.354  26.995
34215W        W35080  19.710   6.945  26.608
34216W        W35081  18.825   4.125  25.866
34217W        W35082  19.929   3.779  27.676
34218W        W35083  18.957   6.899  25.524
34219W        W35084  19.331   5.365  26.275
34220W        W35085  19.985   5.994  28.588
34221W        W35086  19.815   4.352  26.578
34222W        W35087  21.171   3.949  27.006
34223W        W35088  20.891   7.231  27.334
34224W        W35089  20.303   6.879  27.674
34225W        W35090  19.699   5.916  27.635
34226W        W35091  21.469   6.639  27.761
34227W        W35092  19.163   4.142  26.530
34228W        W35093  19.685   6.439  27.490
34229W        W35094  19.168   4.370  25.555
34230W        W35095  19.969   4.979  27.949
34231W        W35096  20.817   3.845  27.819
34232W        W35097  18.237   5.688  27.704
34233W        W35098  19.941   5.506  25.862
34234W        W35099  19.209   3.821  25.632
34235W        W35100  19.947   4.902  26.683
34236W        W35101  20.917   3.878  28.382
34237W        W35102  19.505   5.890  28.491
34238W        W35103  20.309   5.672  28.708
34239W        W35104  20.926   5.702  28.601
34240W        W35105  20.210   3.842  29.106
34241W        W35106  19.432   4.458  27.499
34242W        W35107  18.858   4.414  26.897
34243W        W35108  18.644   7.126  26.573
34244W        W35109  19.976   6.456  28.698
34245W        W35110  19.011   5.941  26.057
34246W        W35111  20.691   5.326  27.278
34247W        W35112  20.971   5.125  27.677
34248W        W35113  20.176   5.799  27.611
34249W        W35114  20.646   6.173  25.743
34250W        W35115  20.318   4.194  27.071
34251W        W35116  21.797   4.472  26.339
34252W        W35117  18.291   7.061  28.370
34253W        W35118  18.708   6.287  27.902
34254W        W35119  18.275   7.133  26.134
34255W        W35120  20.174   4.403  27.940
34256W        W35121  19.537   6.426  25.789
34257W        W35122  21.442   6.808  25.975
34258W        W35123  20.417   5.461  25.989
34259W        W35124  19.260   4.652  26.506
34260W        W35125  20.092   4.562  25.558
34261W        W35126  20.676   6.127  28.736
34262W        W35127  21.029   4.033  26.353
34263W        W35128  18.359   3.881  25.801
34264W        W35129  19.645   6.200  28.091
34265W        W35130  19.444   6.116  27.183
34266W        W35131  19.186   6.068  25.581
34267W        W35132  18.427   6.309  26.349
34268W        W35133  18.931   5.379  28.791
34269W        W35134  19.635   3.939  28.977
34270W        W35135  20.344   4.081  28.333
34271W        W35136  19.539   3.849  26.614
34272W        W35137  20.598   3.926  26.119
34273W        W35138  18.543   3.858  27.696
34274W        W35139  18.591   4.821  27.066
34275W        W35140  21.280   3.929  27.472
34276W        W35141  18.702   4.427  26.286
34277W        W35142  21.273   4.115  27.902
34278W        W35143  21.669   5.318  25.587
34279W        W35144  18.961   4.076  27.406
34280W        W35145  20.075   4.648  28.346
34281W        W35146  18.223   4.338  25.824
34282W        W35147  19.009   5.727  28.385
34283W        W35148  20.367   5.125  27.564
34284W        W35149  20.234   7.204  25.860
34285W        W35150  18.380   5.711  25.557
34286W        W35151  19.115   6.122  28.683
34287W        W35152  18.636   5.289  28.314
34288W        W35153  19.627   5.394  28.108
34289W        W35154  21.395   3.753  28.370
34290W        W35155  21.793   5.363  28.361
34291W        W35156  21.781   5.563  26.047
34292W        W35157  20.644   5.895  26.146
34293W        W35158  21.118   7.195  25.841
34294W        W35159  20.295   5.185  28.983
34295W        W35160  18.625   6.152  29.023
34296W        W35161  21.831   4.074  28.975
34297W        W35162  21.549   5.002  27.596
34298W        W35163  19.857   7.132  29.073
34299W        W35164  19.712   3.761  25.800
34300W        W35165  21.251   6.360  25.743
34301W        W35166  19.020   4.453  28.629
34302W        W35167  19.454   6.447  28.491
34303W        W35168  21.580   4.438  28.289
34304W        W35169  20.791   7.097  26.257
34305W        W35170  21.030   5.716  27.624
34306W        W35171  19.280   4.132  28.291
34307W        W35172  19.749   5.201  29.048
34308W        W35173  19.252   6.380  26.242
34309W        W35174  21.007   5.878  26.506
34310W        W35175  18.775   4.504  28.230
34311W        W35176  20.104   6.566  26.694
34312W        W35177  21.854   5.126  26.875
34313W        W35178  20.076   3.759  28.594
34314W        W35179  20.856   6.464  27.673
34315W        W35180  21.159   6.808  27.381
34316W        W35181  20.378   6.610  25.809
34317W        W35182  18.388   6.502  28.651
34318W        W35183  19.131   4.494  27.889
34319W        W35184  19.101   3.842  26.999
34320W        W35185  20.722   4.684  27.691
34321W        W35186  19.520   5.855  25.891
34322W        W35187  21.518   5.797  27.390
34323W        W35188  18.845   6.555  28.813
34324W        W35189  21.232   7.237  26.610
34325W        W35190  19.331   4.257  27.055
34326W        W35191  19.100   5.750  27.145
34327W        W35192  19.413   7.161  27.895
34328W        W35193  21.480   7.257  28.927
34329W        W35194  20.639   5.445  27.860
34330W        W35195  18.488   5.243  25.775
34331W        W35196  21.622   6.901  26.472
34332W        W35197  21.459   4.225  26.091
34333W        W35198  19.598   3.744  28.494
34334W        W35199  21.304   6.546  26.952
34335W        W35200  21.333   5.102  26.857
34336W        W35201  19.450   4.775  27.073
34337W        W35202  19.695   5.037  28.397
34338W        W35203  20.806   6.190  28.260
34339W        W35204  19.456   4.644  28.372
34340W        W35205  19.435   7.110  26.988
34341W        W35206  18.752   7.069  28.622
34342W        W35207  18.864   6.430  25.752
34343W        W35208  21.381   6.188  26.562
34344W        W35209  18.985   4.980  28.448
34345W        W35210  21.758   4.910  25.929
34346W        W35211  19.503   5.967  26.400
34347W        W35212  20.602   5.349  28.481
34348W        W35213  20.493   4.977  28.025
34349W        W35214  19.053   5.349  28.054
34350W        W35215  21.263   7.237  27.883
34351W        W35216  21.054   3.871  28.877
34352W        W35217  18.718   4.021  28.464
34353W        W35218  19.057   5.044  27.517
34354W        W35219  19.426   4.858  25.639
34355W        W35220  18.229   6.617  28.184
34356W        W35221  19.814   5.326  27.627
34357W        W35222  19.637   4.351  25.732
34358W        W35223  18.772   5.167  26.513
34359W        W35224  18.543   7.019  27.950
34360W        W35225  21.338   5.245  26.058
34361W        W35226  21.433   4.161  28.744
34362W        W35227  20.869   6.370  26.707
34363W        W35228  18.467   5.294  28.884
34364W        W35229  21.433   3.758  26.180
34365W        W35230  20.953   6.233  26.191
34366W        W35231  19.855   5.291  26.276
34367W        W35232  21.042   4.095  25.799
34368W        W35233  21.107   4.702  27.985
34369W        W35234  18.816   5.295  27.192
34370W        W35235  19.110   6.234  26.841
34371W        W35236  20.873   4.854  26.806
34372W        W35237  19.896   4.233  27.502
34373W        W35238  21.858   6.144  28.013
34374W        W35239  21.776   4.131  27.574
34375W        W35240  18.315   6.961  26.950
34376W        W35241  18.824   6.148  26.486
34377W        W35242  18.739   3.765  29.039
34378W        W35243  19.858   6.618  29.141
34379W        W35244  21.613   5.586  26.931
34380W        W35245  20.967   5.763  25.811
34381W        W35246  20.262   7.284  28.023
34382W        W35247  21.119   6.006  29.060
34383W        W35248  19.934   3.716  26.340
34384W        W35249  20.647   4.585  27.199
34385W        W35250  18.333   6.172  27.531
34386W        W35251  19.586   4.134  26.172
34387W        W35252  19.390   5.618  29.021
34388W        W35253  20.384   4.599  26.735
34389W        W35254  20.589   6.009  27.857
34390W        W35255  18.743   6.614  28.292
34391W        W35256  19.334   6.597  29.015
34392W        W35257  19.185   4.394  26.029
34393W        W35258  20.702   4.536  26.354
34394W        W35259  20.660   6.644  28.591
34395W        W35260  19.345   5.236  27.190
34396W        W35261  19.000   6.934  28.055
34397W        W35262  21.745   7.051  25.656
34398W        W35263  18.608   5.723  28.652
34399W        W35264  20.603   5.985  27.340
34400W        W35265  19.039   5.634  26.582
34401W        W35266  19.410   6.641  27.977
34402W        W35267  19.788   4.060  27.018
34403W        W35268  18.399   6.044  25.948
34404W        W35269  19.918   4.995  25.818
34405W        W35270  18.564   5.544  26.837
34406W        W35271  19.854   4.186  28.301
34407W        W35272  21.526   3.895  25.728
34408W        W35273  21.619   5.641  28.827
34409W        W35274  20.273   6.898  28.979
34410W        W35275  21.831   5.992  28.501
34411W        W35276  21.239   6.790  29.112
34412W        W35277  18.978   7.246  27.590
34413W        W35278  21.837   5.868  26.464
34414W        W35279  20.367   5.135  26.977
34415W        W35280  20.134   3.747  26.867
34416W        W35281  19.193   6.731  26.704
34417W        W35282  19.692   4.472  27.929
34418W        W35283  19.392   3.841  27.398
34419W        W35284  18.455   6.663  25.946
34420W        W35285  20.271   6.027  26.664
34421W        W35286  19.146   6.822  28.543
34422W        W35287  18.623   5.645  26.239
34423W        W35288  18.508   4.188  27.238
34424W        W35289  20.056   6.153  27.295
34425W        W35290  18.308   4.007  26.315
34426W        W35291  20.972   5.213  28.242
34427W        W35292  20.849   4.599  25.814
34428W        W35293  21.366   6.271  27.462
34429W        W35294  20.027   6.755  27.293
34430W        W35295  19.439   6.859  26.204
34431W        W35296  20.721   3.762  25.634
34432W        W35297  18.521   7.022  27.375
34433W        W35298  20.718   4.780  29.010
34434W        W35299  18.701   4.310  29.009
34435W        W35300  18.432   4.910  26.342
34436W        W35301  19.123   4.899  26.067
34437W        W35302  20.886   5.226  28.884
34438W        W35303  19.229   5.507  27.593
34439W        W35304  20.703   3.793  26.713
34440W        W35305  19.834   7.224  27.216
34441W        W35306  21.048   6.686  28.153
34442W        W35307  20.632   6.835  27.264
34443W        W35308  20.651   5.815  26.858
34444W        W35309  20.113   4.040  25.929
34445W        W35310  21.794   3.668  26.651
34446W        W35311  19.482   5.303  25.814
34447W        W35312  21.648   4.640  26.804
34448W        W35313  20.340   5.810  25.681
34449W        W35314  21.276   6.010  28.429
34450W        W35315  20.930   6.711  25.896
34451W        W35316  19.545   4.386  28.802
34452W        W35317  19.365   4.970  28.043
34453W        W35318  21.457   6.465  28.320
34454W        W35319  20.557   4.415  28.697
34455W        W35320  18.401   4.886  28.474
34456W        W35321  20.161   5.363  28.200
34457W        W35322  18.518   6.121  26.857
34458W        W35323  18.665   5.418  27.747
34459W        W35324  20.982   5.704  28.097
34460W        W35325  20.754   7.084  28.908
34461W        W35326  20.650   4.823  28.461
34462W        W35327  20.927   6.877  26.866
34463W        W35328  19.929   6.597  28.189
34464W        W35329  19.414   6.952  27.458
34465W        W35330  21.219   6.123  27.877
34466W        W35331  20.269   6.195  29.014
34467W        W35332  18.874   6.148  27.353
34468W        W35333  21.220   5.907  26.998
34469W        W35334  20.861   6.973  27.749
34470W        W35335  18.839   6.702  27.619
34471W        W35336  19.860   4.754  28.829
34472W        W35337  20.311   6.920  26.340
34473W        W35338  19.619   6.175  28.978
34474W        W35339  19.745   6.413  26.355
34475W        W35340  18.966   5.153  25.614
34476W        W35341  18.305  10.884   3.359
34477W        W35342  18.681   9.777   2.882
34478W        W35343  21.386   9.507   0.652
34479W        W35344  21.516  10.592   2.679
34480W        W35345  19.434  10.583   0.205
34481W        W35346  19.517   8.735   1.188
34482W        W35347  19.032   8.583   1.352
34483W        W35348  20.023   9.398   0.786
34484W        W35349  19.698  10.490   3.141
34485W        W35350  18.347   8.051   3.104
34486W        W35351  19.109   7.331   2.906
34487W        W35352  20.803   7.719   1.793
34488W        W35353  20.452   8.590   0.363
34489W        W35354  21.022   8.024   3.454
34490W        W35355  18.388   7.816   2.579
34491W        W35356  18.487  10.435   3.600
34492W        W35357  20.009   9.825   0.332
34493W        W35358  18.441   8.608   2.025
34494W        W35359  19.334   8.499   3.262
34495W        W35360  21.793   8.358   1.761
34496W        W35361  21.557   9.401   2.620
34497W        W35362  19.865   8.734   1.647
34498W        W35363  20.411  10.073   2.016
34499W        W35364  18.911   9.507   2.248
34500W        W35365  18.270   9.035   1.819
34501W        W35366  19.306   9.007   3.011
34502W        W35367  21.577   8.790   3.265
34503W        W35368  19.193  10.234   1.710
34504W        W35369  20.314   9.923   2.844
34505W        W35370  19.534   8.563   2.069
34506W        W35371  19.826   9.347   1.712
34507W        W35372  20.823  10.120   3.560
34508W        W35373  19.902   9.440   3.570
34509W        W35374  19.883   9.156   3.048
34510W        W35375  18.292   8.547   3.570
34511W        W35376  21.124  10.082   3.169
34512W        W35377  18.705   7.664   1.167
34513W        W35378  19.232   9.922   2.166
34514W        W35379  21.695   9.705   1.456
34515W        W35380  21.108   8.105   2.023
34516W        W35381  21.393   8.058   0.118
34517W        W35382  21.858   8.859   2.424
34518W        W35383  19.825  10.566   2.177
34519W        W35384  21.599  10.032   0.615
34520W        W35385  18.728  10.818   0.369
34521W        W35386  19.121  10.864   1.045
34522W        W35387  18.918   7.618   2.471
34523W        W35388  21.541   8.636   2.746
34524W        W35389  20.946   9.058   1.205
34525W        W35390  20.912   8.746   0.232
34526W        W35391  20.120   9.890   2.372
34527W        W35392  19.926   8.220   1.571
34528W        W35393  20.526  10.307   2.565
34529W        W35394  21.397   9.098   0.987
34530W        W35395  20.299   7.756   1.003
34531W        W35396  18.956  10.450   0.686
34532W        W35397  18.327   7.949   1.285
34533W        W35398  21.113   8.556   1.759
34534W        W35399  18.571  10.173   1.674
34535W        W35400  19.912  10.523   0.544
34536W        W35401  21.304   8.549   0.008
34537W        W35402  18.327  10.307   2.172
34538W        W35403  19.118   9.879   2.652
34539W        W35404  19.491   9.239   1.271
34540W        W35405  19.513   7.644   2.364
34541W        W35406  21.742   7.406   1.661
34542W        W35407  18.961   9.278   0.129
34543W        W35408  18.616   8.311   0.308
34544W        W35409  18.678  10.267   1.102
34545W        W35410  19.809   9.750   1.350
34546W        W35411  21.141  10.609   3.064
34547W        W35412  20.067   8.251   0.748
34548W        W35413  21.450  10.649   1.520
34549W        W35414  21.127   8.502   3.118
34550W        W35415  21.840  10.158   1.252
34551W        W35416  20.467   9.450   2.736
34552W        W35417  18.233   9.001   0.942
34553W        W35418  19.344   9.416   2.515
34554W        W35419  20.548   8.680   0.893
34555W        W35420  20.425   9.170   0.997
34556W        W35421  18.768   8.590   2.471
34557W        W35422  18.753   8.466   3.393
34558W        W35423  18.643   7.383   1.552
34559W        W35424  20.411   7.730   2.113
34560W        W35425  20.059   7.915   3.276
34561W        W35426  20.414   8.064   0.454
34562W        W35427  21.597  10.457   3.208
34563W        W35428  20.564   7.538   3.247
34564W        W35429  21.583   9.839   3.369
34565W        W35430  21.013   8.006   2.965
34566W        W35431  20.813   7.944   1.235
34567W        W35432  21.206   9.078   3.639
34568W        W35433  18.946  10.654   1.625
34569W        W35434  19.604   8.371   0.611
34570W        W35435  19.173   7.655   3.275
34571W        W35436  21.225   8.139   0.956
34572W        W35437  21.592   8.621   0.901
34573W        W35438  19.335  10.838   3.372
34574W        W35439  19.261   7.374   0.607
34575W        W35440  21.582   7.908   1.642
34576W        W35441  21.732  10.157   0.087
34577W        W35442  18.639   9.360   1.789
34578W        W35443  20.556   7.947   0.019
34579W        W35444  21.690  10.279   1.739
34580W        W35445  21.729   7.473   2.489
34581W        W35446  20.174   8.685   3.043
34582W        W35447  20.267  10.024   0.746
34583W        W35448  20.667   9.318   3.486
34584W        W35449  20.341   7.295   1.795
34585W        W35450  18.953   8.198   1.858
34586W        W35451  18.507   9.398   2.632
34587W        W35452  20.366  10.591   1.338
34588W        W35453  21.560   8.188   2.210
34589W        W35454  20.197  10.535   2.977
34590W        W35455  21.540   9.594   0.182
34591W        W35456  19.975   9.077   1.243
34592W        W35457  21.827   7.588   2.984
34593W        W35458  19.976   9.423   2.578
34594W        W35459  20.193   8.309   2.023
34595W        W35460  21.045   8.607   0.861
34596W        W35461  21.332   8.340   0.503
34597W        W35462  21.141  10.380   0.892
34598W        W35463  20.975   9.983   1.688
34599W        W35464  20.871   9.062   0.666
34600W        W35465  20.304   9.272   1.652
34601W        W35466  21.185   9.060   1.719
34602W        W35467  18.560   8.075   2.143
34603W        W35468  21.338   9.127   2.970
34604W        W35469  21.689  10.745   2.116
34605W        W35470  19.619  10.189   1.518
34606W        W35471  20.626  10.722   2.842
34607W        W35472  20.620   8.052   2.606
34608W        W35473  19.827  10.760   2.667
34609W        W35474  21.524   7.714   1.133
34610W        W35475  21.315   9.033   2.434
34611W        W35476  18.298   8.354   2.472
34612W        W35477  21.158   8.149   1.490
34613W        W35478  21.569   8.300   3.267
34614W        W35479  20.454   9.999   1.485
34615W        W35480  19.710  10.590   1.098
34616W        W35481  18.825   7.770   0.356
34617W        W35482  19.929   7.424   2.166
34618W        W35483  18.957  10.544   0.014
34619W        W35484  19.331   9.010   0.765
34620W        W35485  19.985   9.639   3.078
34621W        W35486  19.815   7.997   1.068
34622W        W35487  21.171   7.594   1.496
34623W        W35488  20.891  10.876   1.824
34624W        W35489  20.303  10.524   2.164
34625W        W35490  19.699   9.561   2.125
34626W        W35491  21.469  10.284   2.251
34627W        W35492  19.163   7.787   1.020
34628W        W35493  19.685  10.084   1.980
34629W        W35494  19.168   8.015   0.045
34630W        W35495  19.969   8.624   2.439
34631W        W35496  20.817   7.490   2.309
34632W        W35497  18.237   9.333   2.194
34633W        W35498  19.941   9.151   0.352
34634W        W35499  19.209   7.466   0.122
34635W        W35500  19.947   8.547   1.173
34636W        W35501  20.917   7.523   2.872
34637W        W35502  19.505   9.535   2.981
34638W        W35503  20.309   9.317   3.198
34639W        W35504  20.926   9.347   3.091
34640W        W35505  20.210   7.487   3.596
34641W        W35506  19.432   8.103   1.989
34642W        W35507  18.858   8.059   1.387
34643W        W35508  18.644  10.771   1.063
34644W        W35509  19.976  10.101   3.188
34645W        W35510  19.011   9.586   0.547
34646W        W35511  20.691   8.971   1.768
34647W        W35512  20.971   8.770   2.167
34648W        W35513  20.176   9.444   2.101
34649W        W35514  20.646   9.818   0.233
34650W        W35515  20.318   7.839   1.561
34651W        W35516  21.797   8.117   0.829
34652W        W35517  18.291  10.706   2.860
34653W        W35518  18.708   9.932   2.392
34654W        W35519  18.275  10.778   0.624
34655W        W35520  20.174   8.048   2.430
34656W        W35521  19.537  10.071   0.279
34657W        W35522  21.442  10.453   0.465
34658W        W35523  20.417   9.106   0.479
34659W        W35524  19.260   8.297   0.996
34660W        W35525  20.092   8.207   0.048
34661W        W35526  20.676   9.772   3.226
34662W        W35527  21.029   7.678   0.843
34663W        W35528  18.359   7.526   0.291
34664W        W35529  19.645   9.845   2.581
34665W        W35530  19.444   9.761   1.673
34666W        W35531  19.186   9.713   0.071
34667W        W35532  18.427   9.954   0.839
34668W        W35533  18.931   9.024   3.281
34669W        W35534  19.635   7.584   3.467
34670W        W35535  20.344   7.726   2.823
34671W        W35536  19.539   7.494   1.104
34672W        W35537  20.598   7.571   0.609
34673W        W35538  18.543   7.503   2.186
34674W        W35539  18.591   8.466   1.556
34675W        W35540  21.280   7.574   1.962
34676W        W35541  18.702   8.072   0.776
34677W        W35542  21.273   7.760   2.392
34678W        W35543  21.669   8.963   0.077
34679W        W35544  18.961   7.721   1.896
34680W        W35545  20.075   8.293   2.836
34681W        W35546  18.223   7.983   0.314
34682W        W35547  19.009   9.372   2.875
34683W        W35548  20.367   8.770   2.054
34684W        W35549  20.234  10.849   0.350
34685W        W35550  18.380   9.356   0.047
34686W        W35551  19.115   9.767   3.173
34687W        W35552  18.636   8.934   2.804
34688W        W35553  19.627   9.039   2.598
34689W        W35554  21.395   7.398   2.860
34690W        W35555  21.793   9.008   2.851
34691W        W35556  21.781   9.208   0.537
34692W        W35557  20.644   9.540   0.636
34693W        W35558  21.118  10.840   0.331
34694W        W35559  20.295   8.830   3.473
34695W        W35560  18.625   9.797   3.513
34696W        W35561  21.831   7.719   3.465
34697W        W35562  21.549   8.647   2.086
34698W        W35563  19.857  10.777   3.563
34699W        W35564  19.712   7.406   0.290
34700W        W35565  21.251  10.005   0.233
34701W        W35566  19.020   8.098   3.119
34702W        W35567  19.454  10.092   2.981
34703W        W35568  21.580   8.083   2.779
34704W        W35569  20.791  10.742   0.747
34705W        W35570  21.030   9.361   2.114
34706W        W35571  19.280   7.777   2.781
34707W        W35572  19.749   8.846   3.538
34708W        W35573  19.252  10.025   0.732
34709W        W35574  21.007   9.523   0.996
34710W        W35575  18.775   8.149   2.720
34711W        W35576  20.104  10.211   1.184
34712W        W35577  21.854   8.771   1.365
34713W        W35578  20.076   7.404   3.084
34714W        W35579  20.856  10.109   2.163
34715W        W35580  21.159  10.453   1.871
34716W        W35581  20.378  10.255   0.299
34717W        W35582  18.388  10.147   3.141
34718W        W35583  19.131   8.139   2.379
34719W        W35584  19.101   7.487   1.489
34720W        W35585  20.722   8.329   2.181
34721W        W35586  19.520   9.500   0.381
34722W        W35587  21.518   9.442   1.880
34723W        W35588  18.845  10.200   3.303
34724W        W35589  21.232  10.882   1.100
34725W        W35590  19.331   7.902   1.545
34726W        W35591  19.100   9.395   1.635
34727W        W35592  19.413  10.806   2.385
34728W        W35593  21.480  10.902   3.417
34729W        W35594  20.639   9.090   2.350
34730W        W35595  18.488   8.888   0.265
34731W        W35596  21.622  10.546   0.962
34732W        W35597  21.459   7.870   0.581
34733W        W35598  19.598   7.389   2.984
34734W        W35599  21.304  10.191   1.442
34735W        W35600  21.333   8.747   1.347
34736W        W35601  19.450   8.420   1.563
34737W        W35602  19.695   8.682   2.887
34738W        W35603  20.806   9.835   2.750
34739W        W35604  19.456   8.289   2.862
34740W        W35605  19.435  10.755   1.478
34741W        W35606  18.752  10.714   3.112
34742W        W35607  18.864  10.075   0.242
34743W        W35608  21.381   9.833   1.052
34744W        W35609  18.985   8.625   2.938
34745W        W35610  21.758   8.555   0.419
34746W        W35611  19.503   9.612   0.890
34747W        W35612  20.602   8.994   2.971
34748W        W35613  20.493   8.622   2.515
34749W        W35614  19.053   8.994   2.544
34750W        W35615  21.263  10.882   2.373
34751W        W35616  21.054   7.516   3.367
34752W        W35617  18.718   7.666   2.954
34753W        W35618  19.057   8.689   2.007
34754W        W35619  19.426   8.503   0.129
34755W        W35620  18.229  10.262   2.674
34756W        W35621  19.814   8.971   2.117
34757W        W35622  19.637   7.996   0.222
34758W        W35623  18.772   8.812   1.003
34759W        W35624  18.543  10.664   2.440
34760W        W35625  21.338   8.890   0.548
34761W        W35626  21.433   7.806   3.234
34762W        W35627  20.869  10.015   1.197
34763W        W35628  18.467   8.939   3.374
34764W        W35629  21.433   7.403   0.670
34765W        W35630  20.953   9.878   0.681
34766W        W35631  19.855   8.936   0.766
34767W        W35632  21.042   7.740   0.289
34768W        W35633  21.107   8.347   2.475
34769W        W35634  18.816   8.940   1.682
34770W        W35635  19.110   9.879   1.331
34771W        W35636  20.873   8.499   1.296
34772W        W35637  19.896   7.878   1.992
34773W        W35638  21.858   9.789   2.503
34774W        W35639  21.776   7.776   2.064
34775W        W35640  18.315  10.606   1.440
34776W        W35641  18.824   9.793   0.976
34777W        W35642  18.739   7.410   3.529
34778W        W35643  19.858  10.263   3.631
34779W        W35644  21.613   9.231   1.421
34780W        W35645  20.967   9.408   0.301
34781W        W35646  20.262  10.929   2.513
34782W        W35647  21.119   9.651   3.550
34783W        W35648  19.934   7.361   0.830
34784W        W35649  20.647   8.230   1.689
34785W        W35650  18.333   9.817   2.021
34786W        W35651  19.586   7.779   0.662
34787W        W35652  19.390   9.263   3.511
34788W        W35653  20.384   8.244   1.225
34789W        W35654  20.589   9.654   2.347
34790W        W35655  18.743  10.259   2.782
34791W        W35656  19.334  10.242   3.505
34792W        W35657  19.185   8.039   0.519
34793W        W35658  20.702   8.181   0.844
34794W        W35659  20.660  10.289   3.081
34795W        W35660  19.345   8.881   1.680
34796W        W35661  19.000  10.579   2.545
34797W        W35662  21.745  10.696   0.146
34798W        W35663  18.608   9.368   3.142
34799W        W35664  20.603   9.630   1.830
34800W        W35665  19.039   9.279   1.072
34801W        W35666  19.410  10.286   2.467
34802W        W35667  19.788   7.705   1.508
34803W        W35668  18.399   9.689   0.438
34804W        W35669  19.918   8.640   0.308
34805W        W35670  18.564   9.189   1.327
34806W        W35671  19.854   7.831   2.791
34807W        W35672  21.526   7.540   0.218
34808W        W35673  21.619   9.286   3.317
34809W        W35674  20.273  10.543   3.469
34810W        W35675  21.831   9.637   2.991
34811W        W35676  21.239  10.435   3.602
34812W        W35677  18.978  10.891   2.080
34813W        W35678  21.837   9.513   0.954
34814W        W35679  20.367   8.780   1.467
34815W        W35680  20.134   7.392   1.357
34816W        W35681  19.193  10.376   1.194
34817W        W35682  19.692   8.117   2.419
34818W        W35683  19.392   7.486   1.888
34819W        W35684  18.455  10.308   0.436
34820W        W35685  20.271   9.672   1.154
34821W        W35686  19.146  10.467   3.033
34822W        W35687  18.623   9.290   0.729
34823W        W35688  18.508   7.833   1.728
34824W        W35689  20.056   9.798   1.785
34825W        W35690  18.308   7.652   0.805
34826W        W35691  20.972   8.858   2.732
34827W        W35692  20.849   8.244   0.304
34828W        W35693  21.366   9.916   1.952
34829W        W35694  20.027  10.400   1.783
34830W        W35695  19.439  10.504   0.694
34831W        W35696  20.721   7.407   0.124
34832W        W35697  18.521  10.667   1.865
34833W        W35698  20.718   8.425   3.500
34834W        W35699  18.701   7.955   3.499
34835W        W35700  18.432   8.555   0.832
34836W        W35701  19.123   8.544   0.557
34837W        W35702  20.886   8.871   3.374
34838W        W35703  19.229   9.152   2.083
34839W        W35704  20.703   7.438   1.203
34840W        W35705  19.834  10.869   1.706
34841W        W35706  21.048  10.331   2.643
34842W        W35707  20.632  10.480   1.754
34843W        W35708  20.651   9.460   1.348
34844W        W35709  20.113   7.685   0.419
34845W        W35710  21.794   7.313   1.141
34846W        W35711  19.482   8.948   0.304
34847W        W35712  21.648   8.285   1.294
34848W        W35713  20.340   9.455   0.171
34849W        W35714  21.276   9.655   2.919
34850W        W35715  20.930  10.356   0.386
34851W        W35716  19.545   8.031   3.292
34852W        W35717  19.365   8.615   2.533
34853W        W35718  21.457  10.110   2.810
34854W        W35719  20.557   8.060   3.187
34855W        W35720  18.401   8.531   2.964
34856W        W35721  20.161   9.008   2.690
34857W        W35722  18.518   9.766   1.347
34858W        W35723  20.982   9.349   2.587
34859W        W35724  20.754  10.729   3.398
34860W        W35725  20.650   8.468   2.951
34861W        W35726  20.927  10.522   1.356
34862W        W35727  19.929  10.242   2.679
34863W        W35728  19.414  10.597   1.948
34864W        W35729  21.219   9.768   2.367
34865W        W35730  20.269   9.840   3.504
34866W        W35731  18.874   9.793   1.843
34867W        W35732  21.220   9.552   1.488
34868W        W35733  20.861  10.618   2.239
34869W        W35734  18.839  10.347   2.109
34870W        W35735  19.860   8.399   3.319
34871W        W35736  20.311  10.565   0.830
34872W        W35737  19.619   9.820   3.468
34873W        W35738  19.745  10.058   0.845
34874W        W35739  18.966   8.798   0.104
34875W        W35740  18.305  10.884   7.003
34876W        W35741  18.681   9.777   6.526
34877W        W35742  21.386   9.507   4.296
34878W        W35743  21.516  10.592   6.323
34879W        W35744  19.434  10.583   3.849
34880W        W35745  19.517   8.735   4.832
34881W        W35746  19.032   8.583   4.996
34882W        W35747  20.023   9.398   4.430
34883W        W35748  19.698  10.490   6.785
34884W        W35749  18.347   8.051   6.748
34885W        W35750  19.109   7.331   6.550
34886W        W35751  20.803   7.719   5.437
34887W        W35752  20.452   8.590   4.007
34888W        W35753  21.022   8.024   7.098
34889W        W35754  18.388   7.816   6.223
34890W        W35755  18.487  10.435   7.244
34891W        W35756  20.009   9.825   3.976
34892W        W35757  18.441   8.608   5.669
34893W        W35758  19.334   8.499   6.906
34894W        W35759  21.793   8.358   5.405
34895W        W35760  21.557   9.401   6.264
34896W        W35761  19.865   8.734   5.291
34897W        W35762  20.411  10.073   5.660
34898W        W35763  18.911   9.507   5.892
34899W        W35764  18.270   9.035   5.463
34900W        W35765  19.306   9.007   6.655
34901W        W35766  21.577   8.790   6.909
34902W        W35767  19.193  10.234   5.354
34903W        W35768  20.314   9.923   6.488
34904W        W35769  19.534   8.563   5.713
34905W        W35770  19.826   9.347   5.356
34906W        W35771  20.823  10.120   7.204
34907W        W35772  19.902   9.440   7.214
34908W        W35773  19.883   9.156   6.692
34909W        W35774  18.292   8.547   7.214
34910W        W35775  21.124  10.082   6.813
34911W        W35776  18.705   7.664   4.811
34912W        W35777  19.232   9.922   5.810
34913W        W35778  21.695   9.705   5.100
34914W        W35779  21.108   8.105   5.667
34915W        W35780  21.393   8.058   3.762
34916W        W35781  21.858   8.859   6.068
34917W        W35782  19.825  10.566   5.821
34918W        W35783  21.599  10.032   4.259
34919W        W35784  18.728  10.818   4.013
34920W        W35785  19.121  10.864   4.689
34921W        W35786  18.918   7.618   6.115
34922W        W35787  21.541   8.636   6.390
34923W        W35788  20.946   9.058   4.849
34924W        W35789  20.912   8.746   3.876
34925W        W35790  20.120   9.890   6.016
34926W        W35791  19.926   8.220   5.215
34927W        W35792  20.526  10.307   6.209
34928W        W35793  21.397   9.098   4.631
34929W        W35794  20.299   7.756   4.647
34930W        W35795  18.956  10.450   4.330
34931W        W35796  18.327   7.949   4.929
34932W        W35797  21.113   8.556   5.403
34933W        W35798  18.571  10.173   5.318
34934W        W35799  19.912  10.523   4.188
34935W        W35800  21.304   8.549   3.652
34936W        W35801  18.327  10.307   5.816
34937W        W35802  19.118   9.879   6.296
34938W        W35803  19.491   9.239   4.915
34939W        W35804  19.513   7.644   6.008
34940W        W35805  21.742   7.406   5.305
34941W        W35806  18.961   9.278   3.773
34942W        W35807  18.616   8.311   3.952
34943W        W35808  18.678  10.267   4.746
34944W        W35809  19.809   9.750   4.994
34945W        W35810  21.141  10.609   6.708
34946W        W35811  20.067   8.251   4.392
34947W        W35812  21.450  10.649   5.164
34948W        W35813  21.127   8.502   6.762
34949W        W35814  21.840  10.158   4.896
34950W        W35815  20.467   9.450   6.380
34951W        W35816  18.233   9.001   4.586
34952W        W35817  19.344   9.416   6.159
34953W        W35818  20.548   8.680   4.537
34954W        W35819  20.425   9.170   4.641
34955W        W35820  18.768   8.590   6.115
34956W        W35821  18.753   8.466   7.037
34957W        W35822  18.643   7.383   5.196
34958W        W35823  20.411   7.730   5.757
34959W        W35824  20.059   7.915   6.920
34960W        W35825  20.414   8.064   4.098
34961W        W35826  21.597  10.457   6.852
34962W        W35827  20.564   7.538   6.891
34963W        W35828  21.583   9.839   7.013
34964W        W35829  21.013   8.006   6.609
34965W        W35830  20.813   7.944   4.879
34966W        W35831  21.206   9.078   7.283
34967W        W35832  18.946  10.654   5.269
34968W        W35833  19.604   8.371   4.255
34969W        W35834  19.173   7.655   6.919
34970W        W35835  21.225   8.139   4.600
34971W        W35836  21.592   8.621   4.545
34972W        W35837  19.335  10.838   7.016
34973W        W35838  19.261   7.374   4.251
34974W        W35839  21.582   7.908   5.286
34975W        W35840  21.732  10.157   3.731
34976W        W35841  18.639   9.360   5.433
34977W        W35842  20.556   7.947   3.663
34978W        W35843  21.690  10.279   5.383
34979W        W35844  21.729   7.473   6.133
34980W        W35845  20.174   8.685   6.687
34981W        W35846  20.267  10.024   4.390
34982W        W35847  20.667   9.318   7.130
34983W        W35848  20.341   7.295   5.439
34984W        W35849  18.953   8.198   5.502
34985W        W35850  18.507   9.398   6.276
34986W        W35851  20.366  10.591   4.982
34987W        W35852  21.560   8.188   5.854
34988W        W35853  20.197  10.535   6.621
34989W        W35854  21.540   9.594   3.826
34990W        W35855  19.975   9.077   4.887
34991W        W35856  21.827   7.588   6.628
34992W        W35857  19.976   9.423   6.222
34993W        W35858  20.193   8.309   5.667
34994W        W35859  21.045   8.607   4.505
34995W        W35860  21.332   8.340   4.147
34996W        W35861  21.141  10.380   4.536
34997W        W35862  20.975   9.983   5.332
34998W        W35863  20.871   9.062   4.310
34999W        W35864  20.304   9.272   5.296
35000W        W35865  21.185   9.060   5.363
35001W        W35866  18.560   8.075   5.787
35002W        W35867  21.338   9.127   6.614
35003W        W35868  21.689  10.745   5.760
35004W        W35869  19.619  10.189   5.162
35005W        W35870  20.626  10.722   6.486
35006W        W35871  20.620   8.052   6.250
35007W        W35872  19.827  10.760   6.311
35008W        W35873  21.524   7.714   4.777
35009W        W35874  21.315   9.033   6.078
35010W        W35875  18.298   8.354   6.116
35011W        W35876  21.158   8.149   5.134
35012W        W35877  21.569   8.300   6.911
35013W        W35878  20.454   9.999   5.129
35014W        W35879  19.710  10.590   4.742
35015W        W35880  18.825   7.770   4.000
35016W        W35881  19.929   7.424   5.810
35017W        W35882  18.957  10.544   3.658
35018W        W35883  19.331   9.010   4.409
35019W        W35884  19.985   9.639   6.722
35020W        W35885  19.815   7.997   4.712
35021W        W35886  21.171   7.594   5.140
35022W        W35887  20.891  10.876   5.468
35023W        W35888  20.303  10.524   5.808
35024W        W35889  19.699   9.561   5.769
35025W        W35890  21.469  10.284   5.895
35026W        W35891  19.163   7.787   4.664
35027W        W35892  19.685  10.084   5.624
35028W        W35893  19.168   8.015   3.689
35029W        W35894  19.969   8.624   6.083
35030W        W35895  20.817   7.490   5.953
35031W        W35896  18.237   9.333   5.838
35032W        W35897  19.941   9.151   3.996
35033W        W35898  19.209   7.466   3.766
35034W        W35899  19.947   8.547   4.817
35035W        W35900  20.917   7.523   6.516
35036W        W35901  19.505   9.535   6.625
35037W        W35902  20.309   9.317   6.842
35038W        W35903  20.926   9.347   6.735
35039W        W35904  20.210   7.487   7.240
35040W        W35905  19.432   8.103   5.633
35041W        W35906  18.858   8.059   5.031
35042W        W35907  18.644  10.771   4.707
35043W        W35908  19.976  10.101   6.832
35044W        W35909  19.011   9.586   4.191
35045W        W35910  20.691   8.971   5.412
35046W        W35911  20.971   8.770   5.811
35047W        W35912  20.176   9.444   5.745
35048W        W35913  20.646   9.818   3.877
35049W        W35914  20.318   7.839   5.205
35050W        W35915  21.797   8.117   4.473
35051W        W35916  18.291  10.706   6.504
35052W        W35917  18.708   9.932   6.036
35053W        W35918  18.275  10.778   4.268
35054W        W35919  20.174   8.048   6.074
35055W        W35920  19.537  10.071   3.923
35056W        W35921  21.442  10.453   4.109
35057W        W35922  20.417   9.106   4.123
35058W        W35923  19.260   8.297   4.640
35059W        W35924  20.092   8.207   3.692
35060W        W35925  20.676   9.772   6.870
35061W        W35926  21.029   7.678   4.487
35062W        W35927  18.359   7.526   3.935
35063W        W35928  19.645   9.845   6.225
35064W        W35929  19.444   9.761   5.317
35065W        W35930  19.186   9.713   3.715
35066W        W35931  18.427   9.954   4.483
35067W        W35932  18.931   9.024   6.925
35068W        W35933  19.635   7.584   7.111
35069W        W35934  20.344   7.726   6.467
35070W        W35935  19.539   7.494   4.748
35071W        W35936  20.598   7.571   4.253
35072W        W35937  18.543   7.503   5.830
35073W        W35938  18.591   8.466   5.200
35074W        W35939  21.280   7.574   5.606
35075W        W35940  18.702   8.072   4.420
35076W        W35941  21.273   7.760   6.036
35077W        W35942  21.669   8.963   3.721
35078W        W35943  18.961   7.721   5.540
35079W        W35944  20.075   8.293   6.480
35080W        W35945  18.223   7.983   3.958
35081W        W35946  19.009   9.372   6.519
35082W        W35947  20.367   8.770   5.698
35083W        W35948  20.234  10.849   3.994
35084W        W35949  18.380   9.356   3.691
35085W        W35950  19.115   9.767   6.817
35086W        W35951  18.636   8.934   6.448
35087W        W35952  19.627   9.039   6.242
35088W        W35953  21.395   7.398   6.504
35089W        W35954  21.793   9.008   6.495
35090W        W35955  21.781   9.208   4.181
35091W        W35956  20.644   9.540   4.280
35092W        W35957  21.118  10.840   3.975
35093W        W35958  20.295   8.830   7.117
35094W        W35959  18.625   9.797   7.157
35095W        W35960  21.831   7.719   7.109
35096W        W35961  21.549   8.647   5.730
35097W        W35962  19.857  10.777   7.207
35098W        W35963  19.712   7.406   3.934
35099W        W35964  21.251  10.005   3.877
35100W        W35965  19.020   8.098   6.763
35101W        W35966  19.454  10.092   6.625
35102W        W35967  21.580   8.083   6.423
35103W        W35968  20.791  10.742   4.391
35104W        W35969  21.030   9.361   5.758
35105W        W35970  19.280   7.777   6.425
35106W        W35971  19.749   8.846   7.182
35107W        W35972  19.252  10.025   4.376
35108W        W35973  21.007   9.523   4.640
35109W        W35974  18.775   8.149   6.364
35110W        W35975  20.104  10.211   4.828
35111W        W35976  21.854   8.771   5.009
35112W        W35977  20.076   7.404   6.728
35113W        W35978  20.856  10.109   5.807
35114W        W35979  21.159  10.453   5.515
35115W        W35980  20.378  10.255   3.943
35116W        W35981  18.388  10.147   6.785
35117W        W35982  19.131   8.139   6.023
35118W        W35983  19.101   7.487   5.133
35119W        W35984  20.722   8.329   5.825
35120W        W35985  19.520   9.500   4.025
35121W        W35986  21.518   9.442   5.524
35122W        W35987  18.845  10.200   6.947
35123W        W35988  21.232  10.882   4.744
35124W        W35989  19.331   7.902   5.189
35125W        W35990  19.100   9.395   5.279
35126W        W35991  19.413  10.806   6.029
35127W        W35992  21.480  10.902   7.061
35128W        W35993  20.639   9.090   5.994
35129W        W35994  18.488   8.888   3.909
35130W        W35995  21.622  10.546   4.606
35131W        W35996  21.459   7.870   4.225
35132W        W35997  19.598   7.389   6.628
35133W        W35998  21.304  10.191   5.086
35134W        W35999  21.333   8.747   4.991
35135W        W36000  19.450   8.420   5.207
35136W        W36001  19.695   8.682   6.531
35137W        W36002  20.806   9.835   6.394
35138W        W36003  19.456   8.289   6.506
35139W        W36004  19.435  10.755   5.122
35140W        W36005  18.752  10.714   6.756
35141W        W36006  18.864  10.075   3.886
35142W        W36007  21.381   9.833   4.696
35143W        W36008  18.985   8.625   6.582
35144W        W36009  21.758   8.555   4.063
35145W        W36010  19.503   9.612   4.534
35146W        W36011  20.602   8.994   6.615
35147W        W36012  20.493   8.622   6.159
35148W        W36013  19.053   8.994   6.188
35149W        W36014  21.263  10.882   6.017
35150W        W36015  21.054   7.516   7.011
35151W        W36016  18.718   7.666   6.598
35152W        W36017  19.057   8.689   5.651
35153W        W36018  19.426   8.503   3.773
35154W        W36019  18.229  10.262   6.318
35155W        W36020  19.814   8.971   5.761
35156W        W36021  19.637   7.996   3.866
35157W        W36022  18.772   8.812   4.647
35158W        W36023  18.543  10.664   6.084
35159W        W36024  21.338   8.890   4.192
35160W        W36025  21.433   7.806   6.878
35161W        W36026  20.869  10.015   4.841
35162W        W36027  18.467   8.939   7.018
35163W        W36028  21.433   7.403   4.314
35164W        W36029  20.953   9.878   4.325
35165W        W36030  19.855   8.936   4.410
35166W        W36031  21.042   7.740   3.933
35167W        W36032  21.107   8.347   6.119
35168W        W36033  18.816   8.940   5.326
35169W        W36034  19.110   9.879   4.975
35170W        W36035  20.873   8.499   4.940
35171W        W36036  19.896   7.878   5.636
35172W        W36037  21.858   9.789   6.147
35173W        W36038  21.776   7.776   5.708
35174W        W36039  18.315  10.606   5.084
35175W        W36040  18.824   9.793   4.620
35176W        W36041  18.739   7.410   7.173
35177W        W36042  19.858  10.263   7.275
35178W        W36043  21.613   9.231   5.065
35179W        W36044  20.967   9.408   3.945
35180W        W36045  20.262  10.929   6.157
35181W        W36046  21.119   9.651   7.194
35182W        W36047  19.934   7.361   4.474
35183W        W36048  20.647   8.230   5.333
35184W        W36049  18.333   9.817   5.665
35185W        W36050  19.586   7.779   4.306
35186W        W36051  19.390   9.263   7.155
35187W        W36052  20.384   8.244   4.869
35188W        W36053  20.589   9.654   5.991
35189W        W36054  18.743  10.259   6.426
35190W        W36055  19.334  10.242   7.149
35191W        W36056  19.185   8.039   4.163
35192W        W36057  20.702   8.181   4.488
35193W        W36058  20.660  10.289   6.725
35194W        W36059  19.345   8.881   5.324
35195W        W36060  19.000  10.579   6.189
35196W        W36061  21.745  10.696   3.790
35197W        W36062  18.608   9.368   6.786
35198W        W36063  20.603   9.630   5.474
35199W        W36064  19.039   9.279   4.716
35200W        W36065  19.410  10.286   6.111
35201W        W36066  19.788   7.705   5.152
35202W        W36067  18.399   9.689   4.082
35203W        W36068  19.918   8.640   3.952
35204W        W36069  18.564   9.189   4.971
35205W        W36070  19.854   7.831   6.435
35206W        W36071  21.526   7.540   3.862
35207W        W36072  21.619   9.286   6.961
35208W        W36073  20.273  10.543   7.113
35209W        W36074  21.831   9.637   6.635
35210W        W36075  21.239  10.435   7.246
35211W        W36076  18.978  10.891   5.724
35212W        W36077  21.837   9.513   4.598
35213W        W36078  20.367   8.780   5.111
35214W        W36079  20.134   7.392   5.001
35215W        W36080  19.193  10.376   4.838
35216W        W36081  19.692   8.117   6.063
35217W        W36082  19.392   7.486   5.532
35218W        W36083  18.455  10.308   4.080
35219W        W36084  20.271   9.672   4.798
35220W        W36085  19.146  10.467   6.677
35221W        W36086  18.623   9.290   4.373
35222W        W36087  18.508   7.833   5.372
35223W        W36088  20.056   9.798   5.429
35224W        W36089  18.308   7.652   4.449
35225W        W36090  20.972   8.858   6.376
35226W        W36091  20.849   8.244   3.948
35227W        W36092  21.366   9.916   5.596
35228W        W36093  20.027  10.400   5.427
35229W        W36094  19.439  10.504   4.338
35230W        W36095  20.721   7.407   3.768
35231W        W36096  18.521  10.667   5.509
35232W        W36097  20.718   8.425   7.144
35233W        W36098  18.701   7.955   7.143
35234W        W36099  18.432   8.555   4.476
35235W        W36100  19.123   8.544   4.201
35236W        W36101  20.886   8.871   7.018
35237W        W36102  19.229   9.152   5.727
35238W        W36103  20.703   7.438   4.847
35239W        W36104  19.834  10.869   5.350
35240W        W36105  21.048  10.331   6.287
35241W        W36106  20.632  10.480   5.398
35242W        W36107  20.651   9.460   4.992
35243W        W36108  20.113   7.685   4.063
35244W        W36109  21.794   7.313   4.785
35245W        W36110  19.482   8.948   3.948
35246W        W36111  21.648   8.285   4.938
35247W        W36112  20.340   9.455   3.815
35248W        W36113  21.276   9.655   6.563
35249W        W36114  20.930  10.356   4.030
35250W        W36115  19.545   8.031   6.936
35251W        W36116  19.365   8.615   6.177
35252W        W36117  21.457  10.110   6.454
35253W        W36118  20.557   8.060   6.831
35254W        W36119  18.401   8.531   6.608
35255W        W36120  20.161   9.008   6.334
35256W        W36121  18.518   9.766   4.991
35257W        W36122  18.665   9.063   5.881
35258W        W36123  20.982   9.349   6.231
35259W        W36124  20.754  10.729   7.042
35260W        W36125  20.650   8.468   6.595
35261W        W36126  20.927  10.522   5.000
35262W        W36127  19.929  10.242   6.323
35263W        W36128  19.414  10.597   5.592
35264W        W36129  21.219   9.768   6.011
35265W        W36130  20.269   9.840   7.148
35266W        W36131  18.874   9.793   5.487
35267W        W36132  21.220   9.552   5.132
35268W        W36133  20.861  10.618   5.883
35269W        W36134  18.839  10.347   5.753
35270W        W36135  19.860   8.399   6.963
35271W        W36136  20.311  10.565   4.474
35272W        W36137  19.619   9.820   7.112
35273W        W36138  19.745  10.058   4.489
35274W        W36139  18.966   8.798   3.748
35275W        W36140  18.305  10.884  10.648
35276W        W36141  18.681   9.777  10.171
35277W        W36142  21.386   9.507   7.941
35278W        W36143  21.516  10.592   9.968
35279W        W36144  19.434  10.583   7.494
35280W        W36145  19.517   8.735   8.477
35281W        W36146  19.032   8.583   8.641
35282W        W36147  20.023   9.398   8.075
35283W        W36148  19.698  10.490  10.430
35284W        W36149  18.347   8.051  10.393
35285W        W36150  19.109   7.331  10.195
35286W        W36151  20.803   7.719   9.082
35287W        W36152  20.452   8.590   7.652
35288W        W36153  21.022   8.024  10.743
35289W        W36154  18.388   7.816   9.868
35290W        W36155  18.487  10.435  10.889
35291W        W36156  20.009   9.825   7.621
35292W        W36157  18.441   8.608   9.314
35293W        W36158  19.334   8.499  10.551
35294W        W36159  21.793   8.358   9.050
35295W        W36160  21.557   9.401   9.909
35296W        W36161  19.865   8.734   8.936
35297W        W36162  20.411  10.073   9.305
35298W        W36163  18.911   9.507   9.537
35299W        W36164  18.270   9.035   9.108
35300W        W36165  19.306   9.007  10.300
35301W        W36166  21.577   8.790  10.554
35302W        W36167  19.193  10.234   8.999
35303W        W36168  20.314   9.923  10.133
35304W        W36169  19.534   8.563   9.358
35305W        W36170  19.826   9.347   9.001
35306W        W36171  20.823  10.120  10.849
35307W        W36172  19.902   9.440  10.859
35308W        W36173  19.883   9.156  10.337
35309W        W36174  18.292   8.547  10.859
35310W        W36175  21.124  10.082  10.458
35311W        W36176  18.705   7.664   8.456
35312W        W36177  19.232   9.922   9.455
35313W        W36178  21.695   9.705   8.745
35314W        W36179  21.108   8.105   9.312
35315W        W36180  21.393   8.058   7.407
35316W        W36181  21.858   8.859   9.713
35317W        W36182  19.825  10.566   9.466
35318W        W36183  21.599  10.032   7.904
35319W        W36184  18.728  10.818   7.658
35320W        W36185  19.121  10.864   8.334
35321W        W36186  18.918   7.618   9.760
35322W        W36187  21.541   8.636  10.035
35323W        W36188  20.946   9.058   8.494
35324W        W36189  20.912   8.746   7.521
35325W        W36190  20.120   9.890   9.661
35326W        W36191  19.926   8.220   8.860
35327W        W36192  20.526  10.307   9.854
35328W        W36193  21.397   9.098   8.276
35329W        W36194  20.299   7.756   8.292
35330W        W36195  18.956  10.450   7.975
35331W        W36196  18.327   7.949   8.574
35332W        W36197  21.113   8.556   9.048
35333W        W36198  18.571  10.173   8.963
35334W        W36199  19.912  10.523   7.833
35335W        W36200  21.304   8.549   7.297
35336W        W36201  18.327  10.307   9.461
35337W        W36202  19.118   9.879   9.941
35338W        W36203  19.491   9.239   8.560
35339W        W36204  19.513   7.644   9.653
35340W        W36205  21.742   7.406   8.950
35341W        W36206  18.961   9.278   7.418
35342W        W36207  18.616   8.311   7.597
35343W        W36208  18.678  10.267   8.391
35344W        W36209  19.809   9.750   8.639
35345W        W36210  21.141  10.609  10.353
35346W        W36211  20.067   8.251   8.037
35347W        W36212  21.450  10.649   8.809
35348W        W36213  21.127   8.502  10.407
35349W        W36214  21.840  10.158   8.541
35350W        W36215  20.467   9.450  10.025
35351W        W36216  18.233   9.001   8.231
35352W        W36217  19.344   9.416   9.804
35353W        W36218  20.548   8.680   8.182
35354W        W36219  20.425   9.170   8.286
35355W        W36220  18.768   8.590   9.760
35356W        W36221  18.753   8.466  10.682
35357W        W36222  18.643   7.383   8.841
35358W        W36223  20.411   7.730   9.402
35359W        W36224  20.059   7.915  10.565
35360W        W36225  20.414   8.064   7.743
35361W        W36226  21.597  10.457  10.497
35362W        W36227  20.564   7.538  10.536
35363W        W36228  21.583   9.839  10.658
35364W        W36229  21.013   8.006  10.254
35365W        W36230  20.813   7.944   8.524
35366W        W36231  21.206   9.078  10.928
35367W        W36232  18.946  10.654   8.914
35368W        W36233  19.604   8.371   7.900
35369W        W36234  19.173   7.655  10.564
35370W        W36235  21.225   8.139   8.245
35371W        W36236  21.592   8.621   8.190
35372W        W36237  19.335  10.838  10.661
35373W        W36238  19.261   7.374   7.896
35374W        W36239  21.582   7.908   8.931
35375W        W36240  21.732  10.157   7.376
35376W        W36241  18.639   9.360   9.078
35377W        W36242  20.556   7.947   7.308
35378W        W36243  21.690  10.279   9.028
35379W        W36244  21.729   7.473   9.778
35380W        W36245  20.174   8.685  10.332
35381W        W36246  20.267  10.024   8.035
35382W        W36247  20.667   9.318  10.775
35383W        W36248  20.341   7.295   9.084
35384W        W36249  18.953   8.198   9.147
35385W        W36250  18.507   9.398   9.921
35386W        W36251  20.366  10.591   8.627
35387W        W36252  21.560   8.188   9.499
35388W        W36253  20.197  10.535  10.266
35389W        W36254  21.540   9.594   7.471
35390W        W36255  19.975   9.077   8.532
35391W        W36256  21.827   7.588  10.273
35392W        W36257  19.976   9.423   9.867
35393W        W36258  20.193   8.309   9.312
35394W        W36259  21.045   8.607   8.150
35395W        W36260  21.332   8.340   7.792
35396W        W36261  21.141  10.380   8.181
35397W        W36262  20.975   9.983   8.977
35398W        W36263  20.871   9.062   7.955
35399W        W36264  20.304   9.272   8.941
35400W        W36265  21.185   9.060   9.008
35401W        W36266  18.560   8.075   9.432
35402W        W36267  21.338   9.127  10.259
35403W        W36268  21.689  10.745   9.405
35404W        W36269  19.619  10.189   8.807
35405W        W36270  20.626  10.722  10.131
35406W        W36271  20.620   8.052   9.895
35407W        W36272  19.827  10.760   9.956
35408W        W36273  21.524   7.714   8.422
35409W        W36274  21.315   9.033   9.723
35410W        W36275  18.298   8.354   9.761
35411W        W36276  21.158   8.149   8.779
35412W        W36277  21.569   8.300  10.556
35413W        W36278  20.454   9.999   8.774
35414W        W36279  19.710  10.590   8.387
35415W        W36280  18.825   7.770   7.645
35416W        W36281  19.929   7.424   9.455
35417W        W36282  18.957  10.544   7.303
35418W        W36283  19.331   9.010   8.054
35419W        W36284  19.985   9.639  10.367
35420W        W36285  19.815   7.997   8.357
35421W        W36286  21.171   7.594   8.785
35422W        W36287  20.891  10.876   9.113
35423W        W36288  20.303  10.524   9.453
35424W        W36289  19.699   9.561   9.414
35425W        W36290  21.469  10.284   9.540
35426W        W36291  19.163   7.787   8.309
35427W        W36292  19.685  10.084   9.269
35428W        W36293  19.168   8.015   7.334
35429W        W36294  19.969   8.624   9.728
35430W        W36295  20.817   7.490   9.598
35431W        W36296  18.237   9.333   9.483
35432W        W36297  19.941   9.151   7.641
35433W        W36298  19.209   7.466   7.411
35434W        W36299  19.947   8.547   8.462
35435W        W36300  20.917   7.523  10.161
35436W        W36301  19.505   9.535  10.270
35437W        W36302  20.309   9.317  10.487
35438W        W36303  20.926   9.347  10.380
35439W        W36304  20.210   7.487  10.885
35440W        W36305  19.432   8.103   9.278
35441W        W36306  18.858   8.059   8.676
35442W        W36307  18.644  10.771   8.352
35443W        W36308  19.976  10.101  10.477
35444W        W36309  19.011   9.586   7.836
35445W        W36310  20.691   8.971   9.057
35446W        W36311  20.971   8.770   9.456
35447W        W36312  20.176   9.444   9.390
35448W        W36313  20.646   9.818   7.522
35449W        W36314  20.318   7.839   8.850
35450W        W36315  21.797   8.117   8.118
35451W        W36316  18.291  10.706  10.149
35452W        W36317  18.708   9.932   9.681
35453W        W36318  18.275  10.778   7.913
35454W        W36319  20.174   8.048   9.719
35455W        W36320  19.537  10.071   7.568
35456W        W36321  21.442  10.453   7.754
35457W        W36322  20.417   9.106   7.768
35458W        W36323  19.260   8.297   8.285
35459W        W36324  20.092   8.207   7.337
35460W        W36325  20.676   9.772  10.515
35461W        W36326  21.029   7.678   8.132
35462W        W36327  18.359   7.526   7.580
35463W        W36328  19.645   9.845   9.870
35464W        W36329  19.444   9.761   8.962
35465W        W36330  19.186   9.713   7.360
35466W        W36331  18.427   9.954   8.128
35467W        W36332  18.931   9.024  10.570
35468W        W36333  19.635   7.584  10.756
35469W        W36334  20.344   7.726  10.112
35470W        W36335  19.539   7.494   8.393
35471W        W36336  20.598   7.571   7.898
35472W        W36337  18.543   7.503   9.475
35473W        W36338  18.591   8.466   8.845
35474W        W36339  21.280   7.574   9.251
35475W        W36340  18.702   8.072   8.065
35476W        W36341  21.273   7.760   9.681
35477W        W36342  21.669   8.963   7.366
35478W        W36343  18.961   7.721   9.185
35479W        W36344  20.075   8.293  10.125
35480W        W36345  18.223   7.983   7.603
35481W        W36346  19.009   9.372  10.164
35482W        W36347  20.367   8.770   9.343
35483W        W36348  20.234  10.849   7.639
35484W        W36349  18.380   9.356   7.336
35485W        W36350  19.115   9.767  10.462
35486W        W36351  18.636   8.934  10.093
35487W        W36352  19.627   9.039   9.887
35488W        W36353  21.395   7.398  10.149
35489W        W36354  21.793   9.008  10.140
35490W        W36355  21.781   9.208   7.826
35491W        W36356  20.644   9.540   7.925
35492W        W36357  21.118  10.840   7.620
35493W        W36358  20.295   8.830  10.762
35494W        W36359  18.625   9.797  10.802
35495W        W36360  21.831   7.719  10.754
35496W        W36361  21.549   8.647   9.375
35497W        W36362  19.857  10.777  10.852
35498W        W36363  19.712   7.406   7.579
35499W        W36364  21.251  10.005   7.522
35500W        W36365  19.020   8.098  10.408
35501W        W36366  19.454  10.092  10.270
35502W        W36367  21.580   8.083  10.068
35503W        W36368  20.791  10.742   8.036
35504W        W36369  21.030   9.361   9.403
35505W        W36370  19.280   7.777  10.070
35506W        W36371  19.749   8.846  10.827
35507W        W36372  19.252  10.025   8.021
35508W        W36373  21.007   9.523   8.285
35509W        W36374  18.775   8.149  10.009
35510W        W36375  20.104  10.211   8.473
35511W        W36376  21.854   8.771   8.654
35512W        W36377  20.076   7.404  10.373
35513W        W36378  20.856  10.109   9.452
35514W        W36379  21.159  10.453   9.160
35515W        W36380  20.378  10.255   7.588
35516W        W36381  18.388  10.147  10.430
35517W        W36382  19.131   8.139   9.668
35518W        W36383  19.101   7.487   8.778
35519W        W36384  20.722   8.329   9.470
35520W        W36385  19.520   9.500   7.670
35521W        W36386  21.518   9.442   9.169
35522W        W36387  18.845  10.200  10.592
35523W        W36388  21.232  10.882   8.389
35524W        W36389  19.331   7.902   8.834
35525W        W36390  19.100   9.395   8.924
35526W        W36391  19.413  10.806   9.674
35527W        W36392  21.480  10.902  10.706
35528W        W36393  20.639   9.090   9.639
35529W        W36394  18.488   8.888   7.554
35530W        W36395  21.622  10.546   8.251
35531W        W36396  21.459   7.870   7.870
35532W        W36397  19.598   7.389  10.273
35533W        W36398  21.304  10.191   8.731
35534W        W36399  21.333   8.747   8.636
35535W        W36400  19.450   8.420   8.852
35536W        W36401  19.695   8.682  10.176
35537W        W36402  20.806   9.835  10.039
35538W        W36403  19.456   8.289  10.151
35539W        W36404  19.435  10.755   8.767
35540W        W36405  18.752  10.714  10.401
35541W        W36406  18.864  10.075   7.531
35542W        W36407  21.381   9.833   8.341
35543W        W36408  18.985   8.625  10.227
35544W        W36409  21.758   8.555   7.708
35545W        W36410  19.503   9.612   8.179
35546W        W36411  20.602   8.994  10.260
35547W        W36412  20.493   8.622   9.804
35548W        W36413  19.053   8.994   9.833
35549W        W36414  21.263  10.882   9.662
35550W        W36415  21.054   7.516  10.656
35551W        W36416  18.718   7.666  10.243
35552W        W36417  19.057   8.689   9.296
35553W        W36418  19.426   8.503   7.418
35554W        W36419  18.229  10.262   9.963
35555W        W36420  19.814   8.971   9.406
35556W        W36421  19.637   7.996   7.511
35557W        W36422  18.772   8.812   8.292
35558W        W36423  18.543  10.664   9.729
35559W        W36424  21.338   8.890   7.837
35560W        W36425  21.433   7.806  10.523
35561W        W36426  20.869  10.015   8.486
35562W        W36427  18.467   8.939  10.663
35563W        W36428  21.433   7.403   7.959
35564W        W36429  20.953   9.878   7.970
35565W        W36430  19.855   8.936   8.055
35566W        W36431  21.042   7.740   7.578
35567W        W36432  21.107   8.347   9.764
35568W        W36433  18.816   8.940   8.971
35569W        W36434  19.110   9.879   8.620
35570W        W36435  20.873   8.499   8.585
35571W        W36436  19.896   7.878   9.281
35572W        W36437  21.858   9.789   9.792
35573W        W36438  21.776   7.776   9.353
35574W        W36439  18.315  10.606   8.729
35575W        W36440  18.824   9.793   8.265
35576W        W36441  18.739   7.410  10.818
35577W        W36442  19.858  10.263  10.920
35578W        W36443  21.613   9.231   8.710
35579W        W36444  20.967   9.408   7.590
35580W        W36445  20.262  10.929   9.802
35581W        W36446  21.119   9.651  10.839
35582W        W36447  19.934   7.361   8.119
35583W        W36448  20.647   8.230   8.978
35584W        W36449  18.333   9.817   9.310
35585W        W36450  19.586   7.779   7.951
35586W        W36451  19.390   9.263  10.800
35587W        W36452  20.384   8.244   8.514
35588W        W36453  20.589   9.654   9.636
35589W        W36454  18.743  10.259  10.071
35590W        W36455  19.334  10.242  10.794
35591W        W36456  19.185   8.039   7.808
35592W        W36457  20.702   8.181   8.133
35593W        W36458  20.660  10.289  10.370
35594W        W36459  19.345   8.881   8.969
35595W        W36460  19.000  10.579   9.834
35596W        W36461  21.745  10.696   7.435
35597W        W36462  18.608   9.368  10.431
35598W        W36463  20.603   9.630   9.119
35599W        W36464  19.039   9.279   8.361
35600W        W36465  19.410  10.286   9.756
35601W        W36466  19.788   7.705   8.797
35602W        W36467  18.399   9.689   7.727
35603W        W36468  19.918   8.640   7.597
35604W        W36469  18.564   9.189   8.616
35605W        W36470  19.854   7.831  10.080
35606W        W36471  21.526   7.540   7.507
35607W        W36472  21.619   9.286  10.606
35608W        W36473  20.273  10.543  10.758
35609W        W36474  21.831   9.637  10.280
35610W        W36475  21.239  10.435  10.891
35611W        W36476  18.978  10.891   9.369
35612W        W36477  21.837   9.513   8.243
35613W        W36478  20.367   8.780   8.756
35614W        W36479  20.134   7.392   8.646
35615W        W36480  19.193  10.376   8.483
35616W        W36481  19.692   8.117   9.708
35617W        W36482  19.392   7.486   9.177
35618W        W36483  18.455  10.308   7.725
35619W        W36484  20.271   9.672   8.443
35620W        W36485  19.146  10.467  10.322
35621W        W36486  18.623   9.290   8.018
35622W        W36487  18.508   7.833   9.017
35623W        W36488  20.056   9.798   9.074
35624W        W36489  18.308   7.652   8.094
35625W        W36490  20.972   8.858  10.021
35626W        W36491  20.849   8.244   7.593
35627W        W36492  21.366   9.916   9.241
35628W        W36493  20.027  10.400   9.072
35629W        W36494  19.439  10.504   7.983
35630W        W36495  20.721   7.407   7.413
35631W        W36496  18.521  10.667   9.154
35632W        W36497  20.718   8.425  10.789
35633W        W36498  18.701   7.955  10.788
35634W        W36499  18.432   8.555   8.121
35635W        W36500  19.123   8.544   7.846
35636W        W36501  20.886   8.871  10.663
35637W        W36502  19.229   9.152   9.372
35638W        W36503  20.703   7.438   8.492
35639W        W36504  19.834  10.869   8.995
35640W        W36505  21.048  10.331   9.932
35641W        W36506  20.632  10.480   9.043
35642W        W36507  20.651   9.460   8.637
35643W        W36508  20.113   7.685   7.708
35644W        W36509  21.794   7.313   8.430
35645W        W36510  19.482   8.948   7.593
35646W        W36511  21.648   8.285   8.583
35647W        W36512  20.340   9.455   7.460
35648W        W36513  21.276   9.655  10.208
35649W        W36514  20.930  10.356   7.675
35650W        W36515  19.545   8.031  10.581
35651W        W36516  19.365   8.615   9.822
35652W        W36517  21.457  10.110  10.099
35653W        W36518  20.557   8.060  10.476
35654W        W36519  18.401   8.531  10.253
35655W        W36520  20.161   9.008   9.979
35656W        W36521  18.518   9.766   8.636
35657W        W36522  18.665   9.063   9.526
35658W        W36523  20.982   9.349   9.876
35659W        W36524  20.754  10.729  10.687
35660W        W36525  20.650   8.468  10.240
35661W        W36526  20.927  10.522   8.645
35662W        W36527  19.929  10.242   9.968
35663W        W36528  19.414  10.597   9.237
35664W        W36529  21.219   9.768   9.656
35665W        W36530  20.269   9.840  10.793
35666W        W36531  18.874   9.793   9.132
35667W        W36532  21.220   9.552   8.777
35668W        W36533  20.861  10.618   9.528
35669W        W36534  18.839  10.347   9.398
35670W        W36535  19.860   8.399  10.608
35671W        W36536  20.311  10.565   8.119
35672W        W36537  19.619   9.820  10.757
35673W        W36538  19.745  10.058   8.134
35674W        W36539  18.966   8.798   7.393
35675W        W36540  18.305  10.884  14.292
35676W        W36541  18.681   9.777  13.815
35677W        W36542  21.386   9.507  11.585
35678W        W36543  21.516  10.592  13.612
35679W        W36544  19.434  10.583  11.138
35680W        W36545  19.517   8.735  12.121
35681W        W36546  19.032   8.583  12.285
35682W        W36547  20.023   9.398  11.719
35683W        W36548  19.698  10.490  14.074
35684W        W36549  18.347   8.051  14.037
35685W        W36550  19.109   7.331  13.839
35686W        W36551  20.803   7.719  12.726
35687W        W36552  20.452   8.590  11.296
35688W        W36553  21.022   8.024  14.387
35689W        W36554  18.388   7.816  13.512
35690W        W36555  18.487  10.435  14.533
35691W        W36556  20.009   9.825  11.265
35692W        W36557  18.441   8.608  12.958
35693W        W36558  19.334   8.499  14.195
35694W        W36559  21.793   8.358  12.694
35695W        W36560  21.557   9.401  13.553
35696W        W36561  19.865   8.734  12.580
35697W        W36562  20.411  10.073  12.949
35698W        W36563  18.911   9.507  13.181
35699W        W36564  18.270   9.035  12.752
35700W        W36565  19.306   9.007  13.944
35701W        W36566  21.577   8.790  14.198
35702W        W36567  19.193  10.234  12.643
35703W        W36568  20.314   9.923  13.777
35704W        W36569  19.534   8.563  13.002
35705W        W36570  19.826   9.347  12.645
35706W        W36571  20.823  10.120  14.493
35707W        W36572  19.902   9.440  14.503
35708W        W36573  19.883   9.156  13.981
35709W        W36574  18.292   8.547  14.503
35710W        W36575  21.124  10.082  14.102
35711W        W36576  18.705   7.664  12.100
35712W        W36577  19.232   9.922  13.099
35713W        W36578  21.695   9.705  12.389
35714W        W36579  21.108   8.105  12.956
35715W        W36580  21.393   8.058  11.051
35716W        W36581  21.858   8.859  13.357
35717W        W36582  19.825  10.566  13.110
35718W        W36583  21.599  10.032  11.548
35719W        W36584  18.728  10.818  11.302
35720W        W36585  19.121  10.864  11.978
35721W        W36586  18.918   7.618  13.404
35722W        W36587  21.541   8.636  13.679
35723W        W36588  20.946   9.058  12.138
35724W        W36589  20.912   8.746  11.165
35725W        W36590  20.120   9.890  13.305
35726W        W36591  19.926   8.220  12.504
35727W        W36592  20.526  10.307  13.498
35728W        W36593  21.397   9.098  11.920
35729W        W36594  20.299   7.756  11.936
35730W        W36595  18.956  10.450  11.619
35731W        W36596  18.327   7.949  12.218
35732W        W36597  21.113   8.556  12.692
35733W        W36598  18.571  10.173  12.607
35734W        W36599  19.912  10.523  11.477
35735W        W36600  21.304   8.549  10.941
35736W        W36601  18.327  10.307  13.105
35737W        W36602  19.118   9.879  13.585
35738W        W36603  19.491   9.239  12.204
35739W        W36604  19.513   7.644  13.297
35740W        W36605  21.742   7.406  12.594
35741W        W36606  18.961   9.278  11.062
35742W        W36607  18.616   8.311  11.241
35743W        W36608  18.678  10.267  12.035
35744W        W36609  19.809   9.750  12.283
35745W        W36610  21.141  10.609  13.997
35746W        W36611  20.067   8.251  11.681
35747W        W36612  21.450  10.649  12.453
35748W        W36613  21.127   8.502  14.051
35749W        W36614  21.840  10.158  12.185
35750W        W36615  20.467   9.450  13.669
35751W        W36616  18.233   9.001  11.875
35752W        W36617  19.344   9.416  13.448
35753W        W36618  20.548   8.680  11.826
35754W        W36619  20.425   9.170  11.930
35755W        W36620  18.768   8.590  13.404
35756W        W36621  18.753   8.466  14.326
35757W        W36622  18.643   7.383  12.485
35758W        W36623  20.411   7.730  13.046
35759W        W36624  20.059   7.915  14.209
35760W        W36625  20.414   8.064  11.387
35761W        W36626  21.597  10.457  14.141
35762W        W36627  20.564   7.538  14.180
35763W        W36628  21.583   9.839  14.302
35764W        W36629  21.013   8.006  13.898
35765W        W36630  20.813   7.944  12.168
35766W        W36631  21.206   9.078  14.572
35767W        W36632  18.946  10.654  12.558
35768W        W36633  19.604   8.371  11.544
35769W        W36634  19.173   7.655  14.208
35770W        W36635  21.225   8.139  11.889
35771W        W36636  21.592   8.621  11.834
35772W        W36637  19.335  10.838  14.305
35773W        W36638  19.261   7.374  11.540
35774W        W36639  21.582   7.908  12.575
35775W        W36640  21.732  10.157  11.020
35776W        W36641  18.639   9.360  12.722
35777W        W36642  20.556   7.947  10.952
35778W        W36643  21.690  10.279  12.672
35779W        W36644  21.729   7.473  13.422
35780W        W36645  20.174   8.685  13.976
35781W        W36646  20.267  10.024  11.679
35782W        W36647  20.667   9.318  14.419
35783W        W36648  20.341   7.295  12.728
35784W        W36649  18.953   8.198  12.791
35785W        W36650  18.507   9.398  13.565
35786W        W36651  20.366  10.591  12.271
35787W        W36652  21.560   8.188  13.143
35788W        W36653  20.197  10.535  13.910
35789W        W36654  21.540   9.594  11.115
35790W        W36655  19.975   9.077  12.176
35791W        W36656  21.827   7.588  13.917
35792W        W36657  19.976   9.423  13.511
35793W        W36658  20.193   8.309  12.956
35794W        W36659  21.045   8.607  11.794
35795W        W36660  21.332   8.340  11.436
35796W        W36661  21.141  10.380  11.825
35797W        W36662  20.975   9.983  12.621
35798W        W36663  20.871   9.062  11.599
35799W        W36664  20.304   9.272  12.585
35800W        W36665  21.185   9.060  12.652
35801W        W36666  18.560   8.075  13.076
35802W        W36667  21.338   9.127  13.903
35803W        W36668  21.689  10.745  13.049
35804W        W36669  19.619  10.189  12.451
35805W        W36670  20.626  10.722  13.775
35806W        W36671  20.620   8.052  13.539
35807W        W36672  19.827  10.760  13.600
35808W        W36673  21.524   7.714  12.066
35809W        W36674  21.315   9.033  13.367
35810W        W36675  18.298   8.354  13.405
35811W        W36676  21.158   8.149  12.423
35812W        W36677  21.569   8.300  14.200
35813W        W36678  20.454   9.999  12.418
35814W        W36679  19.710  10.590  12.031
35815W        W36680  18.825   7.770  11.289
35816W        W36681  19.929   7.424  13.099
35817W        W36682  18.957  10.544  10.947
35818W        W36683  19.331   9.010  11.698
35819W        W36684  19.985   9.639  14.011
35820W        W36685  19.815   7.997  12.001
35821W        W36686  21.171   7.594  12.429
35822W        W36687  20.891  10.876  12.757
35823W        W36688  20.303  10.524  13.097
35824W        W36689  19.699   9.561  13.058
35825W        W36690  21.469  10.284  13.184
35826W        W36691  19.163   7.787  11.953
35827W        W36692  19.685  10.084  12.913
35828W        W36693  19.168   8.015  10.978
35829W        W36694  19.969   8.624  13.372
35830W        W36695  20.817   7.490  13.242
35831W        W36696  18.237   9.333  13.127
35832W        W36697  19.941   9.151  11.285
35833W        W36698  19.209   7.466  11.055
35834W        W36699  19.947   8.547  12.106
35835W        W36700  20.917   7.523  13.805
35836W        W36701  19.505   9.535  13.914
35837W        W36702  20.309   9.317  14.131
35838W        W36703  20.926   9.347  14.024
35839W        W36704  20.210   7.487  14.529
35840W        W36705  19.432   8.103  12.922
35841W        W36706  18.858   8.059  12.320
35842W        W36707  18.644  10.771  11.996
35843W        W36708  19.976  10.101  14.121
35844W        W36709  19.011   9.586  11.480
35845W        W36710  20.691   8.971  12.701
35846W        W36711  20.971   8.770  13.100
35847W        W36712  20.176   9.444  13.034
35848W        W36713  20.646   9.818  11.166
35849W        W36714  20.318   7.839  12.494
35850W        W36715  21.797   8.117  11.762
35851W        W36716  18.291  10.706  13.793
35852W        W36717  18.708   9.932  13.325
35853W        W36718  18.275  10.778  11.557
35854W        W36719  20.174   8.048  13.363
35855W        W36720  19.537  10.071  11.212
35856W        W36721  21.442  10.453  11.398
35857W        W36722  20.417   9.106  11.412
35858W        W36723  19.260   8.297  11.929
35859W        W36724  20.092   8.207  10.981
35860W        W36725  20.676   9.772  14.159
35861W        W36726  21.029   7.678  11.776
35862W        W36727  18.359   7.526  11.224
35863W        W36728  19.645   9.845  13.514
35864W        W36729  19.444   9.761  12.606
35865W        W36730  19.186   9.713  11.004
35866W        W36731  18.427   9.954  11.772
35867W        W36732  18.931   9.024  14.214
35868W        W36733  19.635   7.584  14.400
35869W        W36734  20.344   7.726  13.756
35870W        W36735  19.539   7.494  12.037
35871W        W36736  20.598   7.571  11.542
35872W        W36737  18.543   7.503  13.119
35873W        W36738  18.591   8.466  12.489
35874W        W36739  21.280   7.574  12.895
35875W        W36740  18.702   8.072  11.709
35876W        W36741  21.273   7.760  13.325
35877W        W36742  21.669   8.963  11.010
35878W        W36743  18.961   7.721  12.829
35879W        W36744  20.075   8.293  13.769
35880W        W36745  18.223   7.983  11.247
35881W        W36746  19.009   9.372  13.808
35882W        W36747  20.367   8.770  12.987
35883W        W36748  20.234  10.849  11.283
35884W        W36749  18.380   9.356  10.980
35885W        W36750  19.115   9.767  14.106
35886W        W36751  18.636   8.934  13.737
35887W        W36752  19.627   9.039  13.531
35888W        W36753  21.395   7.398  13.793
35889W        W36754  21.793   9.008  13.784
35890W        W36755  21.781   9.208  11.470
35891W        W36756  20.644   9.540  11.569
35892W        W36757  21.118  10.840  11.264
35893W        W36758  20.295   8.830  14.406
35894W        W36759  18.625   9.797  14.446
35895W        W36760  21.831   7.719  14.398
35896W        W36761  21.549   8.647  13.019
35897W        W36762  19.857  10.777  14.496
35898W        W36763  19.712   7.406  11.223
35899W        W36764  21.251  10.005  11.166
35900W        W36765  19.020   8.098  14.052
35901W        W36766  19.454  10.092  13.914
35902W        W36767  21.580   8.083  13.712
35903W        W36768  20.791  10.742  11.680
35904W        W36769  21.030   9.361  13.047
35905W        W36770  19.280   7.777  13.714
35906W        W36771  19.749   8.846  14.471
35907W        W36772  19.252  10.025  11.665
35908W        W36773  21.007   9.523  11.929
35909W        W36774  18.775   8.149  13.653
35910W        W36775  20.104  10.211  12.117
35911W        W36776  21.854   8.771  12.298
35912W        W36777  20.076   7.404  14.017
35913W        W36778  20.856  10.109  13.096
35914W        W36779  21.159  10.453  12.804
35915W        W36780  20.378  10.255  11.232
35916W        W36781  18.388  10.147  14.074
35917W        W36782  19.131   8.139  13.312
35918W        W36783  19.101   7.487  12.422
35919W        W36784  20.722   8.329  13.114
35920W        W36785  19.520   9.500  11.314
35921W        W36786  21.518   9.442  12.813
35922W        W36787  18.845  10.200  14.236
35923W        W36788  21.232  10.882  12.033
35924W        W36789  19.331   7.902  12.478
35925W        W36790  19.100   9.395  12.568
35926W        W36791  19.413  10.806  13.318
35927W        W36792  21.480  10.902  14.350
35928W        W36793  20.639   9.090  13.283
35929W        W36794  18.488   8.888  11.198
35930W        W36795  21.622  10.546  11.895
35931W        W36796  21.459   7.870  11.514
35932W        W36797  19.598   7.389  13.917
35933W        W36798  21.304  10.191  12.375
35934W        W36799  21.333   8.747  12.280
35935W        W36800  19.450   8.420  12.496
35936W        W36801  19.695   8.682  13.820
35937W        W36802  20.806   9.835  13.683
35938W        W36803  19.456   8.289  13.795
35939W        W36804  19.435  10.755  12.411
35940W        W36805  18.752  10.714  14.045
35941W        W36806  18.864  10.075  11.175
35942W        W36807  21.381   9.833  11.985
35943W        W36808  18.985   8.625  13.871
35944W        W36809  21.758   8.555  11.352
35945W        W36810  19.503   9.612  11.823
35946W        W36811  20.602   8.994  13.904
35947W        W36812  20.493   8.622  13.448
35948W        W36813  19.053   8.994  13.477
35949W        W36814  21.263  10.882  13.306
35950W        W36815  21.054   7.516  14.300
35951W        W36816  18.718   7.666  13.887
35952W        W36817  19.057   8.689  12.940
35953W        W36818  19.426   8.503  11.062
35954W        W36819  18.229  10.262  13.607
35955W        W36820  19.814   8.971  13.050
35956W        W36821  19.637   7.996  11.155
35957W        W36822  18.772   8.812  11.936
35958W        W36823  18.543  10.664  13.373
35959W        W36824  21.338   8.890  11.481
35960W        W36825  21.433   7.806  14.167
35961W        W36826  20.869  10.015  12.130
35962W        W36827  18.467   8.939  14.307
35963W        W36828  21.433   7.403  11.603
35964W        W36829  20.953   9.878  11.614
35965W        W36830  19.855   8.936  11.699
35966W        W36831  21.042   7.740  11.222
35967W        W36832  21.107   8.347  13.408
35968W        W36833  18.816   8.940  12.615
35969W        W36834  19.110   9.879  12.264
35970W        W36835  20.873   8.499  12.229
35971W        W36836  19.896   7.878  12.925
35972W        W36837  21.858   9.789  13.436
35973W        W36838  21.776   7.776  12.997
35974W        W36839  18.315  10.606  12.373
35975W        W36840  18.824   9.793  11.909
35976W        W36841  18.739   7.410  14.462
35977W        W36842  19.858  10.263  14.564
35978W        W36843  21.613   9.231  12.354
35979W        W36844  20.967   9.408  11.234
35980W        W36845  20.262  10.929  13.446
35981W        W36846  21.119   9.651  14.483
35982W        W36847  19.934   7.361  11.763
35983W        W36848  20.647   8.230  12.622
35984W        W36849  18.333   9.817  12.954
35985W        W36850  19.586   7.779  11.595
35986W        W36851  19.390   9.263  14.444
35987W        W36852  20.384   8.244  12.158
35988W        W36853  20.589   9.654  13.280
35989W        W36854  18.743  10.259  13.715
35990W        W36855  19.334  10.242  14.438
35991W        W36856  19.185   8.039  11.452
35992W        W36857  20.702   8.181  11.777
35993W        W36858  20.660  10.289  14.014
35994W        W36859  19.345   8.881  12.613
35995W        W36860  19.000  10.579  13.478
35996W        W36861  21.745  10.696  11.079
35997W        W36862  18.608   9.368  14.075
35998W        W36863  20.603   9.630  12.763
35999W        W36864  19.039   9.279  12.005
36000W        W36865  19.410  10.286  13.400
36001W        W36866  19.788   7.705  12.441
36002W        W36867  18.399   9.689  11.371
36003W        W36868  19.918   8.640  11.241
36004W        W36869  18.564   9.189  12.260
36005W        W36870  19.854   7.831  13.724
36006W        W36871  21.526   7.540  11.151
36007W        W36872  21.619   9.286  14.250
36008W        W36873  20.273  10.543  14.402
36009W        W36874  21.831   9.637  13.924
36010W        W36875  21.239  10.435  14.535
36011W        W36876  18.978  10.891  13.013
36012W        W36877  21.837   9.513  11.887
36013W        W36878  20.367   8.780  12.400
36014W        W36879  20.134   7.392  12.290
36015W        W36880  19.193  10.376  12.127
36016W        W36881  19.692   8.117  13.352
36017W        W36882  19.392   7.486  12.821
36018W        W36883  18.455  10.308  11.369
36019W        W36884  20.271   9.672  12.087
36020W        W36885  19.146  10.467  13.966
36021W        W36886  18.623   9.290  11.662
36022W        W36887  18.508   7.833  12.661
36023W        W36888  20.056   9.798  12.718
36024W        W36889  18.308   7.652  11.738
36025W        W36890  20.972   8.858  13.665
36026W        W36891  20.849   8.244  11.237
36027W        W36892  21.366   9.916  12.885
36028W        W36893  20.027  10.400  12.716
36029W        W36894  19.439  10.504  11.627
36030W        W36895  20.721   7.407  11.057
36031W        W36896  18.521  10.667  12.798
36032W        W36897  20.718   8.425  14.433
36033W        W36898  18.701   7.955  14.432
36034W        W36899  18.432   8.555  11.765
36035W        W36900  19.123   8.544  11.490
36036W        W36901  20.886   8.871  14.307
36037W        W36902  19.229   9.152  13.016
36038W        W36903  20.703   7.438  12.136
36039W        W36904  19.834  10.869  12.639
36040W        W36905  21.048  10.331  13.576
36041W        W36906  20.632  10.480  12.687
36042W        W36907  20.651   9.460  12.281
36043W        W36908  20.113   7.685  11.352
36044W        W36909  21.794   7.313  12.074
36045W        W36910  19.482   8.948  11.237
36046W        W36911  21.648   8.285  12.227
36047W        W36912  20.340   9.455  11.104
36048W        W36913  21.276   9.655  13.852
36049W        W36914  20.930  10.356  11.319
36050W        W36915  19.545   8.031  14.225
36051W        W36916  19.365   8.615  13.466
36052W        W36917  21.457  10.110  13.743
36053W        W36918  20.557   8.060  14.120
36054W        W36919  18.401   8.531  13.897
36055W        W36920  20.161   9.008  13.623
36056W        W36921  18.518   9.766  12.280
36057W        W36922  18.665   9.063  13.170
36058W        W36923  20.982   9.349  13.520
36059W        W36924  20.754  10.729  14.331
36060W        W36925  20.650   8.468  13.884
36061W        W36926  20.927  10.522  12.289
36062W        W36927  19.929  10.242  13.612
36063W        W36928  19.414  10.597  12.881
36064W        W36929  21.219   9.768  13.300
36065W        W36930  20.269   9.840  14.437
36066W        W36931  18.874   9.793  12.776
36067W        W36932  21.220   9.552  12.421
36068W        W36933  20.861  10.618  13.172
36069W        W36934  18.839  10.347  13.042
36070W        W36935  19.860   8.399  14.252
36071W        W36936  20.311  10.565  11.763
36072W        W36937  19.619   9.820  14.401
36073W        W36938  19.745  10.058  11.778
36074W        W36939  18.966   8.798  11.037
36075W        W36940  18.305  10.884  17.936
36076W        W36941  18.681   9.777  17.459
36077W        W36942  21.386   9.507  15.229
36078W        W36943  21.516  10.592  17.256
36079W        W36944  19.434  10.583  14.782
36080W        W36945  19.517   8.735  15.765
36081W        W36946  19.032   8.583  15.929
36082W        W36947  20.023   9.398  15.363
36083W        W36948  19.698  10.490  17.718
36084W        W36949  18.347   8.051  17.681
36085W        W36950  19.109   7.331  17.483
36086W        W36951  20.803   7.719  16.370
36087W        W36952  20.452   8.590  14.940
36088W        W36953  21.022   8.024  18.031
36089W        W36954  18.388   7.816  17.156
36090W        W36955  18.487  10.435  18.177
36091W        W36956  20.009   9.825  14.909
36092W        W36957  18.441   8.608  16.602
36093W        W36958  19.334   8.499  17.839
36094W        W36959  21.793   8.358  16.338
36095W        W36960  21.557   9.401  17.197
36096W        W36961  19.865   8.734  16.224
36097W        W36962  20.411  10.073  16.593
36098W        W36963  18.911   9.507  16.825
36099W        W36964  18.270   9.035  16.396
36100W        W36965  19.306   9.007  17.588
36101W        W36966  21.577   8.790  17.842
36102W        W36967  19.193  10.234  16.287
36103W        W36968  20.314   9.923  17.421
36104W        W36969  19.534   8.563  16.646
36105W        W36970  19.826   9.347  16.289
36106W        W36971  20.823  10.120  18.137
36107W        W36972  19.902   9.440  18.147
36108W        W36973  19.883   9.156  17.625
36109W        W36974  18.292   8.547  18.147
36110W        W36975  21.124  10.082  17.746
36111W        W36976  18.705   7.664  15.744
36112W        W36977  19.232   9.922  16.743
36113W        W36978  21.695   9.705  16.033
36114W        W36979  21.108   8.105  16.600
36115W        W36980  21.393   8.058  14.695
36116W        W36981  21.858   8.859  17.001
36117W        W36982  19.825  10.566  16.754
36118W        W36983  21.599  10.032  15.192
36119W        W36984  18.728  10.818  14.946
36120W        W36985  19.121  10.864  15.622
36121W        W36986  18.918   7.618  17.048
36122W        W36987  21.541   8.636  17.323
36123W        W36988  20.946   9.058  15.782
36124W        W36989  20.912   8.746  14.809
36125W        W36990  20.120   9.890  16.949
36126W        W36991  19.926   8.220  16.148
36127W        W36992  20.526  10.307  17.142
36128W        W36993  21.397   9.098  15.564
36129W        W36994  20.299   7.756  15.580
36130W        W36995  18.956  10.450  15.263
36131W        W36996  18.327   7.949  15.862
36132W        W36997  21.113   8.556  16.336
36133W        W36998  18.571  10.173  16.251
36134W        W36999  19.912  10.523  15.121
36135W        W37000  21.304   8.549  14.585
36136W        W37001  18.327  10.307  16.749
36137W        W37002  19.118   9.879  17.229
36138W        W37003  19.491   9.239  15.848
36139W        W37004  19.513   7.644  16.941
36140W        W37005  21.742   7.406  16.238
36141W        W37006  18.961   9.278  14.706
36142W        W37007  18.616   8.311  14.885
36143W        W37008  18.678  10.267  15.679
36144W        W37009  19.809   9.750  15.927
36145W        W37010  21.141  10.609  17.641
36146W        W37011  20.067   8.251  15.325
36147W        W37012  21.450  10.649  16.097
36148W        W37013  21.127   8.502  17.695
36149W        W37014  21.840  10.158  15.829
36150W        W37015  20.467   9.450  17.313
36151W        W37016  18.233   9.001  15.519
36152W        W37017  19.344   9.416  17.092
36153W        W37018  20.548   8.680  15.470
36154W        W37019  20.425   9.170  15.574
36155W        W37020  18.768   8.590  17.048
36156W        W37021  18.753   8.466  17.970
36157W        W37022  18.643   7.383  16.129
36158W        W37023  20.411   7.730  16.690
36159W        W37024  20.059   7.915  17.853
36160W        W37025  20.414   8.064  15.031
36161W        W37026  21.597  10.457  17.785
36162W        W37027  20.564   7.538  17.824
36163W        W37028  21.583   9.839  17.946
36164W        W37029  21.013   8.006  17.542
36165W        W37030  20.813   7.944  15.812
36166W        W37031  21.206   9.078  18.216
36167W        W37032  18.946  10.654  16.202
36168W        W37033  19.604   8.371  15.188
36169W        W37034  19.173   7.655  17.852
36170W        W37035  21.225   8.139  15.533
36171W        W37036  21.592   8.621  15.478
36172W        W37037  19.335  10.838  17.949
36173W        W37038  19.261   7.374  15.184
36174W        W37039  21.582   7.908  16.219
36175W        W37040  21.732  10.157  14.664
36176W        W37041  18.639   9.360  16.366
36177W        W37042  20.556   7.947  14.596
36178W        W37043  21.690  10.279  16.316
36179W        W37044  21.729   7.473  17.066
36180W        W37045  20.174   8.685  17.620
36181W        W37046  20.267  10.024  15.323
36182W        W37047  20.667   9.318  18.063
36183W        W37048  20.341   7.295  16.372
36184W        W37049  18.953   8.198  16.435
36185W        W37050  18.507   9.398  17.209
36186W        W37051  20.366  10.591  15.915
36187W        W37052  21.560   8.188  16.787
36188W        W37053  20.197  10.535  17.554
36189W        W37054  21.540   9.594  14.759
36190W        W37055  19.975   9.077  15.820
36191W        W37056  21.827   7.588  17.561
36192W        W37057  19.976   9.423  17.155
36193W        W37058  20.193   8.309  16.600
36194W        W37059  21.045   8.607  15.438
36195W        W37060  21.332   8.340  15.080
36196W        W37061  21.141  10.380  15.469
36197W        W37062  20.975   9.983  16.265
36198W        W37063  20.871   9.062  15.243
36199W        W37064  20.304   9.272  16.229
36200W        W37065  21.185   9.060  16.296
36201W        W37066  18.560   8.075  16.720
36202W        W37067  21.338   9.127  17.547
36203W        W37068  21.689  10.745  16.693
36204W        W37069  19.619  10.189  16.095
36205W        W37070  20.626  10.722  17.419
36206W        W37071  20.620   8.052  17.183
36207W        W37072  19.827  10.760  17.244
36208W        W37073  21.524   7.714  15.710
36209W        W37074  21.315   9.033  17.011
36210W        W37075  18.298   8.354  17.049
36211W        W37076  21.158   8.149  16.067
36212W        W37077  21.569   8.300  17.844
36213W        W37078  20.454   9.999  16.062
36214W        W37079  19.710  10.590  15.675
36215W        W37080  18.825   7.770  14.933
36216W        W37081  19.929   7.424  16.743
36217W        W37082  18.957  10.544  14.591
36218W        W37083  19.331   9.010  15.342
36219W        W37084  19.985   9.639  17.655
36220W        W37085  19.815   7.997  15.645
36221W        W37086  21.171   7.594  16.073
36222W        W37087  20.891  10.876  16.401
36223W        W37088  20.303  10.524  16.741
36224W        W37089  19.699   9.561  16.702
36225W        W37090  21.469  10.284  16.828
36226W        W37091  19.163   7.787  15.597
36227W        W37092  19.685  10.084  16.557
36228W        W37093  19.168   8.015  14.622
36229W        W37094  19.969   8.624  17.016
36230W        W37095  20.817   7.490  16.886
36231W        W37096  18.237   9.333  16.771
36232W        W37097  19.941   9.151  14.929
36233W        W37098  19.209   7.466  14.699
36234W        W37099  19.947   8.547  15.750
36235W        W37100  20.917   7.523  17.449
36236W        W37101  19.505   9.535  17.558
36237W        W37102  20.309   9.317  17.775
36238W        W37103  20.926   9.347  17.668
36239W        W37104  20.210   7.487  18.173
36240W        W37105  19.432   8.103  16.566
36241W        W37106  18.858   8.059  15.964
36242W        W37107  18.644  10.771  15.640
36243W        W37108  19.976  10.101  17.765
36244W        W37109  19.011   9.586  15.124
36245W        W37110  20.691   8.971  16.345
36246W        W37111  20.971   8.770  16.744
36247W        W37112  20.176   9.444  16.678
36248W        W37113  20.646   9.818  14.810
36249W        W37114  20.318   7.839  16.138
36250W        W37115  21.797   8.117  15.406
36251W        W37116  18.291  10.706  17.437
36252W        W37117  18.708   9.932  16.969
36253W        W37118  18.275  10.778  15.201
36254W        W37119  20.174   8.048  17.007
36255W        W37120  19.537  10.071  14.856
36256W        W37121  21.442  10.453  15.042
36257W        W37122  20.417   9.106  15.056
36258W        W37123  19.260   8.297  15.573
36259W        W37124  20.092   8.207  14.625
36260W        W37125  20.676   9.772  17.803
36261W        W37126  21.029   7.678  15.420
36262W        W37127  18.359   7.526  14.868
36263W        W37128  19.645   9.845  17.158
36264W        W37129  19.444   9.761  16.250
36265W        W37130  19.186   9.713  14.648
36266W        W37131  18.427   9.954  15.416
36267W        W37132  18.931   9.024  17.858
36268W        W37133  19.635   7.584  18.044
36269W        W37134  20.344   7.726  17.400
36270W        W37135  19.539   7.494  15.681
36271W        W37136  20.598   7.571  15.186
36272W        W37137  18.543   7.503  16.763
36273W        W37138  18.591   8.466  16.133
36274W        W37139  21.280   7.574  16.539
36275W        W37140  18.702   8.072  15.353
36276W        W37141  21.273   7.760  16.969
36277W        W37142  21.669   8.963  14.654
36278W        W37143  18.961   7.721  16.473
36279W        W37144  20.075   8.293  17.413
36280W        W37145  18.223   7.983  14.891
36281W        W37146  19.009   9.372  17.452
36282W        W37147  20.367   8.770  16.631
36283W        W37148  20.234  10.849  14.927
36284W        W37149  18.380   9.356  14.624
36285W        W37150  19.115   9.767  17.750
36286W        W37151  18.636   8.934  17.381
36287W        W37152  19.627   9.039  17.175
36288W        W37153  21.395   7.398  17.437
36289W        W37154  21.793   9.008  17.428
36290W        W37155  21.781   9.208  15.114
36291W        W37156  20.644   9.540  15.213
36292W        W37157  21.118  10.840  14.908
36293W        W37158  20.295   8.830  18.050
36294W        W37159  18.625   9.797  18.090
36295W        W37160  21.831   7.719  18.042
36296W        W37161  21.549   8.647  16.663
36297W        W37162  19.857  10.777  18.140
36298W        W37163  19.712   7.406  14.867
36299W        W37164  21.251  10.005  14.810
36300W        W37165  19.020   8.098  17.696
36301W        W37166  19.454  10.092  17.558
36302W        W37167  21.580   8.083  17.356
36303W        W37168  20.791  10.742  15.324
36304W        W37169  21.030   9.361  16.691
36305W        W37170  19.280   7.777  17.358
36306W        W37171  19.749   8.846  18.115
36307W        W37172  19.252  10.025  15.309
36308W        W37173  21.007   9.523  15.573
36309W        W37174  18.775   8.149  17.297
36310W        W37175  20.104  10.211  15.761
36311W        W37176  21.854   8.771  15.942
36312W        W37177  20.076   7.404  17.661
36313W        W37178  20.856  10.109  16.740
36314W        W37179  21.159  10.453  16.448
36315W        W37180  20.378  10.255  14.876
36316W        W37181  18.388  10.147  17.718
36317W        W37182  19.131   8.139  16.956
36318W        W37183  19.101   7.487  16.066
36319W        W37184  20.722   8.329  16.758
36320W        W37185  19.520   9.500  14.958
36321W        W37186  21.518   9.442  16.457
36322W        W37187  18.845  10.200  17.880
36323W        W37188  21.232  10.882  15.677
36324W        W37189  19.331   7.902  16.122
36325W        W37190  19.100   9.395  16.212
36326W        W37191  19.413  10.806  16.962
36327W        W37192  21.480  10.902  17.994
36328W        W37193  20.639   9.090  16.927
36329W        W37194  18.488   8.888  14.842
36330W        W37195  21.622  10.546  15.539
36331W        W37196  21.459   7.870  15.158
36332W        W37197  19.598   7.389  17.561
36333W        W37198  21.304  10.191  16.019
36334W        W37199  21.333   8.747  15.924
36335W        W37200  19.450   8.420  16.140
36336W        W37201  19.695   8.682  17.464
36337W        W37202  20.806   9.835  17.327
36338W        W37203  19.456   8.289  17.439
36339W        W37204  19.435  10.755  16.055
36340W        W37205  18.752  10.714  17.689
36341W        W37206  18.864  10.075  14.819
36342W        W37207  21.381   9.833  15.629
36343W        W37208  18.985   8.625  17.515
36344W        W37209  21.758   8.555  14.996
36345W        W37210  19.503   9.612  15.467
36346W        W37211  20.602   8.994  17.548
36347W        W37212  20.493   8.622  17.092
36348W        W37213  19.053   8.994  17.121
36349W        W37214  21.263  10.882  16.950
36350W        W37215  21.054   7.516  17.944
36351W        W37216  18.718   7.666  17.531
36352W        W37217  19.057   8.689  16.584
36353W        W37218  19.426   8.503  14.706
36354W        W37219  18.229  10.262  17.251
36355W        W37220  19.814   8.971  16.694
36356W        W37221  19.637   7.996  14.799
36357W        W37222  18.772   8.812  15.580
36358W        W37223  18.543  10.664  17.017
36359W        W37224  21.338   8.890  15.125
36360W        W37225  21.433   7.806  17.811
36361W        W37226  20.869  10.015  15.774
36362W        W37227  18.467   8.939  17.951
36363W        W37228  21.433   7.403  15.247
36364W        W37229  20.953   9.878  15.258
36365W        W37230  19.855   8.936  15.343
36366W        W37231  21.042   7.740  14.866
36367W        W37232  21.107   8.347  17.052
36368W        W37233  18.816   8.940  16.259
36369W        W37234  19.110   9.879  15.908
36370W        W37235  20.873   8.499  15.873
36371W        W37236  19.896   7.878  16.569
36372W        W37237  21.858   9.789  17.080
36373W        W37238  21.776   7.776  16.641
36374W        W37239  18.315  10.606  16.017
36375W        W37240  18.824   9.793  15.553
36376W        W37241  18.739   7.410  18.106
36377W        W37242  19.858  10.263  18.208
36378W        W37243  21.613   9.231  15.998
36379W        W37244  20.967   9.408  14.878
36380W        W37245  20.262  10.929  17.090
36381W        W37246  21.119   9.651  18.127
36382W        W37247  19.934   7.361  15.407
36383W        W37248  20.647   8.230  16.266
36384W        W37249  18.333   9.817  16.598
36385W        W37250  19.586   7.779  15.239
36386W        W37251  19.390   9.263  18.088
36387W        W37252  20.384   8.244  15.802
36388W        W37253  20.589   9.654  16.924
36389W        W37254  18.743  10.259  17.359
36390W        W37255  19.334  10.242  18.082
36391W        W37256  19.185   8.039  15.096
36392W        W37257  20.702   8.181  15.421
36393W        W37258  20.660  10.289  17.658
36394W        W37259  19.345   8.881  16.257
36395W        W37260  19.000  10.579  17.122
36396W        W37261  21.745  10.696  14.723
36397W        W37262  18.608   9.368  17.719
36398W        W37263  20.603   9.630  16.407
36399W        W37264  19.039   9.279  15.649
36400W        W37265  19.410  10.286  17.044
36401W        W37266  19.788   7.705  16.085
36402W        W37267  18.399   9.689  15.015
36403W        W37268  19.918   8.640  14.885
36404W        W37269  18.564   9.189  15.904
36405W        W37270  19.854   7.831  17.368
36406W        W37271  21.526   7.540  14.795
36407W        W37272  21.619   9.286  17.894
36408W        W37273  20.273  10.543  18.046
36409W        W37274  21.831   9.637  17.568
36410W        W37275  21.239  10.435  18.179
36411W        W37276  18.978  10.891  16.657
36412W        W37277  21.837   9.513  15.531
36413W        W37278  20.367   8.780  16.044
36414W        W37279  20.134   7.392  15.934
36415W        W37280  19.193  10.376  15.771
36416W        W37281  19.692   8.117  16.996
36417W        W37282  19.392   7.486  16.465
36418W        W37283  18.455  10.308  15.013
36419W        W37284  20.271   9.672  15.731
36420W        W37285  19.146  10.467  17.610
36421W        W37286  18.623   9.290  15.306
36422W        W37287  18.508   7.833  16.305
36423W        W37288  20.056   9.798  16.362
36424W        W37289  18.308   7.652  15.382
36425W        W37290  20.972   8.858  17.309
36426W        W37291  20.849   8.244  14.881
36427W        W37292  21.366   9.916  16.529
36428W        W37293  20.027  10.400  16.360
36429W        W37294  19.439  10.504  15.271
36430W        W37295  20.721   7.407  14.701
36431W        W37296  18.521  10.667  16.442
36432W        W37297  20.718   8.425  18.077
36433W        W37298  18.701   7.955  18.076
36434W        W37299  18.432   8.555  15.409
36435W        W37300  19.123   8.544  15.134
36436W        W37301  20.886   8.871  17.951
36437W        W37302  19.229   9.152  16.660
36438W        W37303  20.703   7.438  15.780
36439W        W37304  19.834  10.869  16.283
36440W        W37305  21.048  10.331  17.220
36441W        W37306  20.632  10.480  16.331
36442W        W37307  20.651   9.460  15.925
36443W        W37308  20.113   7.685  14.996
36444W        W37309  21.794   7.313  15.718
36445W        W37310  19.482   8.948  14.881
36446W        W37311  21.648   8.285  15.871
36447W        W37312  20.340   9.455  14.748
36448W        W37313  21.276   9.655  17.496
36449W        W37314  20.930  10.356  14.963
36450W        W37315  19.545   8.031  17.869
36451W        W37316  19.365   8.615  17.110
36452W        W37317  21.457  10.110  17.387
36453W        W37318  20.557   8.060  17.764
36454W        W37319  18.401   8.531  17.541
36455W        W37320  20.161   9.008  17.267
36456W        W37321  18.518   9.766  15.924
36457W        W37322  18.665   9.063  16.814
36458W        W37323  20.982   9.349  17.164
36459W        W37324  20.754  10.729  17.975
36460W        W37325  20.650   8.468  17.528
36461W        W37326  20.927  10.522  15.933
36462W        W37327  19.929  10.242  17.256
36463W        W37328  19.414  10.597  16.525
36464W        W37329  21.219   9.768  16.944
36465W        W37330  20.269   9.840  18.081
36466W        W37331  18.874   9.793  16.420
36467W        W37332  21.220   9.552  16.065
36468W        W37333  20.861  10.618  16.816
36469W        W37334  18.839  10.347  16.686
36470W        W37335  19.860   8.399  17.896
36471W        W37336  20.311  10.565  15.407
36472W        W37337  19.619   9.820  18.045
36473W        W37338  19.745  10.058  15.422
36474W        W37339  18.966   8.798  14.681
36475W        W37340  18.305  10.884  21.580
36476W        W37341  18.681   9.777  21.103
36477W        W37342  21.386   9.507  18.873
36478W        W37343  21.516  10.592  20.900
36479W        W37344  19.434  10.583  18.426
36480W        W37345  19.517   8.735  19.409
36481W        W37346  19.032   8.583  19.573
36482W        W37347  20.023   9.398  19.007
36483W        W37348  19.698  10.490  21.362
36484W        W37349  18.347   8.051  21.325
36485W        W37350  19.109   7.331  21.127
36486W        W37351  20.803   7.719  20.014
36487W        W37352  20.452   8.590  18.584
36488W        W37353  21.022   8.024  21.675
36489W        W37354  18.388   7.816  20.800
36490W        W37355  18.487  10.435  21.821
36491W        W37356  20.009   9.825  18.553
36492W        W37357  18.441   8.608  20.246
36493W        W37358  19.334   8.499  21.483
36494W        W37359  21.793   8.358  19.982
36495W        W37360  21.557   9.401  20.841
36496W        W37361  19.865   8.734  19.868
36497W        W37362  20.411  10.073  20.237
36498W        W37363  18.911   9.507  20.469
36499W        W37364  18.270   9.035  20.040
36500W        W37365  19.306   9.007  21.232
36501W        W37366  21.577   8.790  21.486
36502W        W37367  19.193  10.234  19.931
36503W        W37368  20.314   9.923  21.065
36504W        W37369  19.534   8.563  20.290
36505W        W37370  19.826   9.347  19.933
36506W        W37371  20.823  10.120  21.781
36507W        W37372  19.902   9.440  21.791
36508W        W37373  19.883   9.156  21.269
36509W        W37374  18.292   8.547  21.791
36510W        W37375  21.124  10.082  21.390
36511W        W37376  18.705   7.664  19.388
36512W        W37377  19.232   9.922  20.387
36513W        W37378  21.695   9.705  19.677
36514W        W37379  21.108   8.105  20.244
36515W        W37380  21.393   8.058  18.339
36516W        W37381  21.858   8.859  20.645
36517W        W37382  19.825  10.566  20.398
36518W        W37383  21.599  10.032  18.836
36519W        W37384  18.728  10.818  18.590
36520W        W37385  19.121  10.864  19.266
36521W        W37386  18.918   7.618  20.692
36522W        W37387  21.541   8.636  20.967
36523W        W37388  20.946   9.058  19.426
36524W        W37389  20.912   8.746  18.453
36525W        W37390  20.120   9.890  20.593
36526W        W37391  19.926   8.220  19.792
36527W        W37392  20.526  10.307  20.786
36528W        W37393  21.397   9.098  19.208
36529W        W37394  20.299   7.756  19.224
36530W        W37395  18.956  10.450  18.907
36531W        W37396  18.327   7.949  19.506
36532W        W37397  21.113   8.556  19.980
36533W        W37398  18.571  10.173  19.895
36534W        W37399  19.912  10.523  18.765
36535W        W37400  21.304   8.549  18.229
36536W        W37401  18.327  10.307  20.393
36537W        W37402  19.118   9.879  20.873
36538W        W37403  19.491   9.239  19.492
36539W        W37404  19.513   7.644  20.585
36540W        W37405  21.742   7.406  19.882
36541W        W37406  18.961   9.278  18.350
36542W        W37407  18.616   8.311  18.529
36543W        W37408  18.678  10.267  19.323
36544W        W37409  19.809   9.750  19.571
36545W        W37410  21.141  10.609  21.285
36546W        W37411  20.067   8.251  18.969
36547W        W37412  21.450  10.649  19.741
36548W        W37413  21.127   8.502  21.339
36549W        W37414  21.840  10.158  19.473
36550W        W37415  20.467   9.450  20.957
36551W        W37416  18.233   9.001  19.163
36552W        W37417  19.344   9.416  20.736
36553W        W37418  20.548   8.680  19.114
36554W        W37419  20.425   9.170  19.218
36555W        W37420  18.768   8.590  20.692
36556W        W37421  18.753   8.466  21.614
36557W        W37422  18.643   7.383  19.773
36558W        W37423  20.411   7.730  20.334
36559W        W37424  20.059   7.915  21.497
36560W        W37425  20.414   8.064  18.675
36561W        W37426  21.597  10.457  21.429
36562W        W37427  20.564   7.538  21.468
36563W        W37428  21.583   9.839  21.590
36564W        W37429  21.013   8.006  21.186
36565W        W37430  20.813   7.944  19.456
36566W        W37431  21.206   9.078  21.860
36567W        W37432  18.946  10.654  19.846
36568W        W37433  19.604   8.371  18.832
36569W        W37434  19.173   7.655  21.496
36570W        W37435  21.225   8.139  19.177
36571W        W37436  21.592   8.621  19.122
36572W        W37437  19.335  10.838  21.593
36573W        W37438  19.261   7.374  18.828
36574W        W37439  21.582   7.908  19.863
36575W        W37440  21.732  10.157  18.308
36576W        W37441  18.639   9.360  20.010
36577W        W37442  20.556   7.947  18.240
36578W        W37443  21.690  10.279  19.960
36579W        W37444  21.729   7.473  20.710
36580W        W37445  20.174   8.685  21.264
36581W        W37446  20.267  10.024  18.967
36582W        W37447  20.667   9.318  21.707
36583W        W37448  20.341   7.295  20.016
36584W        W37449  18.953   8.198  20.079
36585W        W37450  18.507   9.398  20.853
36586W        W37451  20.366  10.591  19.559
36587W        W37452  21.560   8.188  20.431
36588W        W37453  20.197  10.535  21.198
36589W        W37454  21.540   9.594  18.403
36590W        W37455  19.975   9.077  19.464
36591W        W37456  21.827   7.588  21.205
36592W        W37457  19.976   9.423  20.799
36593W        W37458  20.193   8.309  20.244
36594W        W37459  21.045   8.607  19.082
36595W        W37460  21.332   8.340  18.724
36596W        W37461  21.141  10.380  19.113
36597W        W37462  20.975   9.983  19.909
36598W        W37463  20.871   9.062  18.887
36599W        W37464  20.304   9.272  19.873
36600W        W37465  21.185   9.060  19.940
36601W        W37466  18.560   8.075  20.364
36602W        W37467  21.338   9.127  21.191
36603W        W37468  21.689  10.745  20.337
36604W        W37469  19.619  10.189  19.739
36605W        W37470  20.626  10.722  21.063
36606W        W37471  20.620   8.052  20.827
36607W        W37472  19.827  10.760  20.888
36608W        W37473  21.524   7.714  19.354
36609W        W37474  21.315   9.033  20.655
36610W        W37475  18.298   8.354  20.693
36611W        W37476  21.158   8.149  19.711
36612W        W37477  21.569   8.300  21.488
36613W        W37478  20.454   9.999  19.706
36614W        W37479  19.710  10.590  19.319
36615W        W37480  18.825   7.770  18.577
36616W        W37481  19.929   7.424  20.387
36617W        W37482  18.957  10.544  18.235
36618W        W37483  19.331   9.010  18.986
36619W        W37484  19.985   9.639  21.299
36620W        W37485  19.815   7.997  19.289
36621W        W37486  21.171   7.594  19.717
36622W        W37487  20.891  10.876  20.045
36623W        W37488  20.303  10.524  20.385
36624W        W37489  19.699   9.561  20.346
36625W        W37490  21.469  10.284  20.472
36626W        W37491  19.163   7.787  19.241
36627W        W37492  19.685  10.084  20.201
36628W        W37493  19.168   8.015  18.266
36629W        W37494  19.969   8.624  20.660
36630W        W37495  20.817   7.490  20.530
36631W        W37496  18.237   9.333  20.415
36632W        W37497  19.941   9.151  18.573
36633W        W37498  19.209   7.466  18.343
36634W        W37499  19.947   8.547  19.394
36635W        W37500  20.917   7.523  21.093
36636W        W37501  19.505   9.535  21.202
36637W        W37502  20.309   9.317  21.419
36638W        W37503  20.926   9.347  21.312
36639W        W37504  20.210   7.487  21.817
36640W        W37505  19.432   8.103  20.210
36641W        W37506  18.858   8.059  19.608
36642W        W37507  18.644  10.771  19.284
36643W        W37508  19.976  10.101  21.409
36644W        W37509  19.011   9.586  18.768
36645W        W37510  20.691   8.971  19.989
36646W        W37511  20.971   8.770  20.388
36647W        W37512  20.176   9.444  20.322
36648W        W37513  20.646   9.818  18.454
36649W        W37514  20.318   7.839  19.782
36650W        W37515  21.797   8.117  19.050
36651W        W37516  18.291  10.706  21.081
36652W        W37517  18.708   9.932  20.613
36653W        W37518  18.275  10.778  18.845
36654W        W37519  20.174   8.048  20.651
36655W        W37520  19.537  10.071  18.500
36656W        W37521  21.442  10.453  18.686
36657W        W37522  20.417   9.106  18.700
36658W        W37523  19.260   8.297  19.217
36659W        W37524  20.092   8.207  18.269
36660W        W37525  20.676   9.772  21.447
36661W        W37526  21.029   7.678  19.064
36662W        W37527  18.359   7.526  18.512
36663W        W37528  19.645   9.845  20.802
36664W        W37529  19.444   9.761  19.894
36665W        W37530  19.186   9.713  18.292
36666W        W37531  18.427   9.954  19.060
36667W        W37532  18.931   9.024  21.502
36668W        W37533  19.635   7.584  21.688
36669W        W37534  20.344   7.726  21.044
36670W        W37535  19.539   7.494  19.325
36671W        W37536  20.598   7.571  18.830
36672W        W37537  18.543   7.503  20.407
36673W        W37538  18.591   8.466  19.777
36674W        W37539  21.280   7.574  20.183
36675W        W37540  18.702   8.072  18.997
36676W        W37541  21.273   7.760  20.613
36677W        W37542  21.669   8.963  18.298
36678W        W37543  18.961   7.721  20.117
36679W        W37544  20.075   8.293  21.057
36680W        W37545  18.223   7.983  18.535
36681W        W37546  19.009   9.372  21.096
36682W        W37547  20.367   8.770  20.275
36683W        W37548  20.234  10.849  18.571
36684W        W37549  18.380   9.356  18.268
36685W        W37550  19.115   9.767  21.394
36686W        W37551  18.636   8.934  21.025
36687W        W37552  19.627   9.039  20.819
36688W        W37553  21.395   7.398  21.081
36689W        W37554  21.793   9.008  21.072
36690W        W37555  21.781   9.208  18.758
36691W        W37556  20.644   9.540  18.857
36692W        W37557  21.118  10.840  18.552
36693W        W37558  20.295   8.830  21.694
36694W        W37559  18.625   9.797  21.734
36695W        W37560  21.831   7.719  21.686
36696W        W37561  21.549   8.647  20.307
36697W        W37562  19.857  10.777  21.784
36698W        W37563  19.712   7.406  18.511
36699W        W37564  21.251  10.005  18.454
36700W        W37565  19.020   8.098  21.340
36701W        W37566  19.454  10.092  21.202
36702W        W37567  21.580   8.083  21.000
36703W        W37568  20.791  10.742  18.968
36704W        W37569  21.030   9.361  20.335
36705W        W37570  19.280   7.777  21.002
36706W        W37571  19.749   8.846  21.759
36707W        W37572  19.252  10.025  18.953
36708W        W37573  21.007   9.523  19.217
36709W        W37574  18.775   8.149  20.941
36710W        W37575  20.104  10.211  19.405
36711W        W37576  21.854   8.771  19.586
36712W        W37577  20.076   7.404  21.305
36713W        W37578  20.856  10.109  20.384
36714W        W37579  21.159  10.453  20.092
36715W        W37580  20.378  10.255  18.520
36716W        W37581  18.388  10.147  21.362
36717W        W37582  19.131   8.139  20.600
36718W        W37583  19.101   7.487  19.710
36719W        W37584  20.722   8.329  20.402
36720W        W37585  19.520   9.500  18.602
36721W        W37586  21.518   9.442  20.101
36722W        W37587  18.845  10.200  21.524
36723W        W37588  21.232  10.882  19.321
36724W        W37589  19.331   7.902  19.766
36725W        W37590  19.100   9.395  19.856
36726W        W37591  19.413  10.806  20.606
36727W        W37592  21.480  10.902  21.638
36728W        W37593  20.639   9.090  20.571
36729W        W37594  18.488   8.888  18.486
36730W        W37595  21.622  10.546  19.183
36731W        W37596  21.459   7.870  18.802
36732W        W37597  19.598   7.389  21.205
36733W        W37598  21.304  10.191  19.663
36734W        W37599  21.333   8.747  19.568
36735W        W37600  19.450   8.420  19.784
36736W        W37601  19.695   8.682  21.108
36737W        W37602  20.806   9.835  20.971
36738W        W37603  19.456   8.289  21.083
36739W        W37604  19.435  10.755  19.699
36740W        W37605  18.752  10.714  21.333
36741W        W37606  18.864  10.075  18.463
36742W        W37607  21.381   9.833  19.273
36743W        W37608  18.985   8.625  21.159
36744W        W37609  21.758   8.555  18.640
36745W        W37610  19.503   9.612  19.111
36746W        W37611  20.602   8.994  21.192
36747W        W37612  20.493   8.622  20.736
36748W        W37613  19.053   8.994  20.765
36749W        W37614  21.263  10.882  20.594
36750W        W37615  21.054   7.516  21.588
36751W        W37616  18.718   7.666  21.175
36752W        W37617  19.057   8.689  20.228
36753W        W37618  19.426   8.503  18.350
36754W        W37619  18.229  10.262  20.895
36755W        W37620  19.814   8.971  20.338
36756W        W37621  19.637   7.996  18.443
36757W        W37622  18.772   8.812  19.224
36758W        W37623  18.543  10.664  20.661
36759W        W37624  21.338   8.890  18.769
36760W        W37625  21.433   7.806  21.455
36761W        W37626  20.869  10.015  19.418
36762W        W37627  18.467   8.939  21.595
36763W        W37628  21.433   7.403  18.891
36764W        W37629  20.953   9.878  18.902
36765W        W37630  19.855   8.936  18.987
36766W        W37631  21.042   7.740  18.510
36767W        W37632  21.107   8.347  20.696
36768W        W37633  18.816   8.940  19.903
36769W        W37634  19.110   9.879  19.552
36770W        W37635  20.873   8.499  19.517
36771W        W37636  19.896   7.878  20.213
36772W        W37637  21.858   9.789  20.724
36773W        W37638  21.776   7.776  20.285
36774W        W37639  18.315  10.606  19.661
36775W        W37640  18.824   9.793  19.197
36776W        W37641  18.739   7.410  21.750
36777W        W37642  19.858  10.263  21.852
36778W        W37643  21.613   9.231  19.642
36779W        W37644  20.967   9.408  18.522
36780W        W37645  20.262  10.929  20.734
36781W        W37646  21.119   9.651  21.771
36782W        W37647  19.934   7.361  19.051
36783W        W37648  20.647   8.230  19.910
36784W        W37649  18.333   9.817  20.242
36785W        W37650  19.586   7.779  18.883
36786W        W37651  19.390   9.263  21.732
36787W        W37652  20.384   8.244  19.446
36788W        W37653  20.589   9.654  20.568
36789W        W37654  18.743  10.259  21.003
36790W        W37655  19.334  10.242  21.726
36791W        W37656  19.185   8.039  18.740
36792W        W37657  20.702   8.181  19.065
36793W        W37658  20.660  10.289  21.302
36794W        W37659  19.345   8.881  19.901
36795W        W37660  19.000  10.579  20.766
36796W        W37661  21.745  10.696  18.367
36797W        W37662  18.608   9.368  21.363
36798W        W37663  20.603   9.630  20.051
36799W        W37664  19.039   9.279  19.293
36800W        W37665  19.410  10.286  20.688
36801W        W37666  19.788   7.705  19.729
36802W        W37667  18.399   9.689  18.659
36803W        W37668  19.918   8.640  18.529
36804W        W37669  18.564   9.189  19.548
36805W        W37670  19.854   7.831  21.012
36806W        W37671  21.526   7.540  18.439
36807W        W37672  21.619   9.286  21.538
36808W        W37673  20.273  10.543  21.690
36809W        W37674  21.831   9.637  21.212
36810W        W37675  21.239  10.435  21.823
36811W        W37676  18.978  10.891  20.301
36812W        W37677  21.837   9.513  19.175
36813W        W37678  20.367   8.780  19.688
36814W        W37679  20.134   7.392  19.578
36815W        W37680  19.193  10.376  19.415
36816W        W37681  19.692   8.117  20.640
36817W        W37682  19.392   7.486  20.109
36818W        W37683  18.455  10.308  18.657
36819W        W37684  20.271   9.672  19.375
36820W        W37685  19.146  10.467  21.254
36821W        W37686  18.623   9.290  18.950
36822W        W37687  18.508   7.833  19.949
36823W        W37688  20.056   9.798  20.006
36824W        W37689  18.308   7.652  19.026
36825W        W37690  20.972   8.858  20.953
36826W        W37691  20.849   8.244  18.525
36827W        W37692  21.366   9.916  20.173
36828W        W37693  20.027  10.400  20.004
36829W        W37694  19.439  10.504  18.915
36830W        W37695  20.721   7.407  18.345
36831W        W37696  18.521  10.667  20.086
36832W        W37697  20.718   8.425  21.721
36833W        W37698  18.701   7.955  21.720
36834W        W37699  18.432   8.555  19.053
36835W        W37700  19.123   8.544  18.778
36836W        W37701  20.886   8.871  21.595
36837W        W37702  19.229   9.152  20.304
36838W        W37703  20.703   7.438  19.424
36839W        W37704  19.834  10.869  19.927
36840W        W37705  21.048  10.331  20.864
36841W        W37706  20.632  10.480  19.975
36842W        W37707  20.651   9.460  19.569
36843W        W37708  20.113   7.685  18.640
36844W        W37709  21.794   7.313  19.362
36845W        W37710  19.482   8.948  18.525
36846W        W37711  21.648   8.285  19.515
36847W        W37712  20.340   9.455  18.392
36848W        W37713  21.276   9.655  21.140
36849W        W37714  20.930  10.356  18.607
36850W        W37715  19.545   8.031  21.513
36851W        W37716  19.365   8.615  20.754
36852W        W37717  21.457  10.110  21.031
36853W        W37718  20.557   8.060  21.408
36854W        W37719  18.401   8.531  21.185
36855W        W37720  20.161   9.008  20.911
36856W        W37721  18.518   9.766  19.568
36857W        W37722  18.665   9.063  20.458
36858W        W37723  20.982   9.349  20.808
36859W        W37724  20.754  10.729  21.619
36860W        W37725  20.650   8.468  21.172
36861W        W37726  20.927  10.522  19.577
36862W        W37727  19.929  10.242  20.900
36863W        W37728  19.414  10.597  20.169
36864W        W37729  21.219   9.768  20.588
36865W        W37730  20.269   9.840  21.725
36866W        W37731  18.874   9.793  20.064
36867W        W37732  21.220   9.552  19.709
36868W        W37733  20.861  10.618  20.460
36869W        W37734  18.839  10.347  20.330
36870W        W37735  19.860   8.399  21.540
36871W        W37736  20.311  10.565  19.051
36872W        W37737  19.619   9.820  21.689
36873W        W37738  19.745  10.058  19.066
36874W        W37739  18.966   8.798  18.325
36875W        W37740  18.305  10.884  25.225
36876W        W37741  18.681   9.777  24.748
36877W        W37742  21.386   9.507  22.518
36878W        W37743  21.516  10.592  24.545
36879W        W37744  19.434  10.583  22.071
36880W        W37745  19.517   8.735  23.054
36881W        W37746  19.032   8.583  23.218
36882W        W37747  20.023   9.398  22.652
36883W        W37748  19.698  10.490  25.007
36884W        W37749  18.347   8.051  24.970
36885W        W37750  19.109   7.331  24.772
36886W        W37751  20.803   7.719  23.659
36887W        W37752  20.452   8.590  22.229
36888W        W37753  21.022   8.024  25.320
36889W        W37754  18.388   7.816  24.445
36890W        W37755  18.487  10.435  25.466
36891W        W37756  20.009   9.825  22.198
36892W        W37757  18.441   8.608  23.891
36893W        W37758  19.334   8.499  25.128
36894W        W37759  21.793   8.358  23.627
36895W        W37760  21.557   9.401  24.486
36896W        W37761  19.865   8.734  23.513
36897W        W37762  20.411  10.073  23.882
36898W        W37763  18.911   9.507  24.114
36899W        W37764  18.270   9.035  23.685
36900W        W37765  19.306   9.007  24.877
36901W        W37766  21.577   8.790  25.131
36902W        W37767  19.193  10.234  23.576
36903W        W37768  20.314   9.923  24.710
36904W        W37769  19.534   8.563  23.935
36905W        W37770  19.826   9.347  23.578
36906W        W37771  20.823  10.120  25.426
36907W        W37772  19.902   9.440  25.436
36908W        W37773  19.883   9.156  24.914
36909W        W37774  18.292   8.547  25.436
36910W        W37775  21.124  10.082  25.035
36911W        W37776  18.705   7.664  23.033
36912W        W37777  19.232   9.922  24.032
36913W        W37778  21.695   9.705  23.322
36914W        W37779  21.108   8.105  23.889
36915W        W37780  21.393   8.058  21.984
36916W        W37781  21.858   8.859  24.290
36917W        W37782  19.825  10.566  24.043
36918W        W37783  21.599  10.032  22.481
36919W        W37784  18.728  10.818  22.235
36920W        W37785  19.121  10.864  22.911
36921W        W37786  18.918   7.618  24.337
36922W        W37787  21.541   8.636  24.612
36923W        W37788  20.946   9.058  23.071
36924W        W37789  20.912   8.746  22.098
36925W        W37790  20.120   9.890  24.238
36926W        W37791  19.926   8.220  23.437
36927W        W37792  20.526  10.307  24.431
36928W        W37793  21.397   9.098  22.853
36929W        W37794  20.299   7.756  22.869
36930W        W37795  18.956  10.450  22.552
36931W        W37796  18.327   7.949  23.151
36932W        W37797  21.113   8.556  23.625
36933W        W37798  18.571  10.173  23.540
36934W        W37799  19.912  10.523  22.410
36935W        W37800  21.304   8.549  21.874
36936W        W37801  18.327  10.307  24.038
36937W        W37802  19.118   9.879  24.518
36938W        W37803  19.491   9.239  23.137
36939W        W37804  19.513   7.644  24.230
36940W        W37805  21.742   7.406  23.527
36941W        W37806  18.961   9.278  21.995
36942W        W37807  18.616   8.311  22.174
36943W        W37808  18.678  10.267  22.968
36944W        W37809  19.809   9.750  23.216
36945W        W37810  21.141  10.609  24.930
36946W        W37811  20.067   8.251  22.614
36947W        W37812  21.450  10.649  23.386
36948W        W37813  21.127   8.502  24.984
36949W        W37814  21.840  10.158  23.118
36950W        W37815  20.467   9.450  24.602
36951W        W37816  18.233   9.001  22.808
36952W        W37817  19.344   9.416  24.381
36953W        W37818  20.548   8.680  22.759
36954W        W37819  20.425   9.170  22.863
36955W        W37820  18.768   8.590  24.337
36956W        W37821  18.753   8.466  25.259
36957W        W37822  18.643   7.383  23.418
36958W        W37823  20.411   7.730  23.979
36959W        W37824  20.059   7.915  25.142
36960W        W37825  20.414   8.064  22.320
36961W        W37826  21.597  10.457  25.074
36962W        W37827  20.564   7.538  25.113
36963W        W37828  21.583   9.839  25.235
36964W        W37829  21.013   8.006  24.831
36965W        W37830  20.813   7.944  23.101
36966W        W37831  21.206   9.078  25.505
36967W        W37832  18.946  10.654  23.491
36968W        W37833  19.604   8.371  22.477
36969W        W37834  19.173   7.655  25.141
36970W        W37835  21.225   8.139  22.822
36971W        W37836  21.592   8.621  22.767
36972W        W37837  19.335  10.838  25.238
36973W        W37838  19.261   7.374  22.473
36974W        W37839  21.582   7.908  23.508
36975W        W37840  21.732  10.157  21.953
36976W        W37841  18.639   9.360  23.655
36977W        W37842  20.556   7.947  21.885
36978W        W37843  21.690  10.279  23.605
36979W        W37844  21.729   7.473  24.355
36980W        W37845  20.174   8.685  24.909
36981W        W37846  20.267  10.024  22.612
36982W        W37847  20.667   9.318  25.352
36983W        W37848  20.341   7.295  23.661
36984W        W37849  18.953   8.198  23.724
36985W        W37850  18.507   9.398  24.498
36986W        W37851  20.366  10.591  23.204
36987W        W37852  21.560   8.188  24.076
36988W        W37853  20.197  10.535  24.843
36989W        W37854  21.540   9.594  22.048
36990W        W37855  19.975   9.077  23.109
36991W        W37856  21.827   7.588  24.850
36992W        W37857  19.976   9.423  24.444
36993W        W37858  20.193   8.309  23.889
36994W        W37859  21.045   8.607  22.727
36995W        W37860  21.332   8.340  22.369
36996W        W37861  21.141  10.380  22.758
36997W        W37862  20.975   9.983  23.554
36998W        W37863  20.871   9.062  22.532
36999W        W37864  20.304   9.272  23.518
37000W        W37865  21.185   9.060  23.585
37001W        W37866  18.560   8.075  24.009
37002W        W37867  21.338   9.127  24.836
37003W        W37868  21.689  10.745  23.982
37004W        W37869  19.619  10.189  23.384
37005W        W37870  20.626  10.722  24.708
37006W        W37871  20.620   8.052  24.472
37007W        W37872  19.827  10.760  24.533
37008W        W37873  21.524   7.714  22.999
37009W        W37874  21.315   9.033  24.300
37010W        W37875  18.298   8.354  24.338
37011W        W37876  21.158   8.149  23.356
37012W        W37877  21.569   8.300  25.133
37013W        W37878  20.454   9.999  23.351
37014W        W37879  19.710  10.590  22.964
37015W        W37880  18.825   7.770  22.222
37016W        W37881  19.929   7.424  24.032
37017W        W37882  18.957  10.544  21.880
37018W        W37883  19.331   9.010  22.631
37019W        W37884  19.985   9.639  24.944
37020W        W37885  19.815   7.997  22.934
37021W        W37886  21.171   7.594  23.362
37022W        W37887  20.891  10.876  23.690
37023W        W37888  20.303  10.524  24.030
37024W        W37889  19.699   9.561  23.991
37025W        W37890  21.469  10.284  24.117
37026W        W37891  19.163   7.787  22.886
37027W        W37892  19.685  10.084  23.846
37028W        W37893  19.168   8.015  21.911
37029W        W37894  19.969   8.624  24.305
37030W        W37895  20.817   7.490  24.175
37031W        W37896  18.237   9.333  24.060
37032W        W37897  19.941   9.151  22.218
37033W        W37898  19.209   7.466  21.988
37034W        W37899  19.947   8.547  23.039
37035W        W37900  20.917   7.523  24.738
37036W        W37901  19.505   9.535  24.847
37037W        W37902  20.309   9.317  25.064
37038W        W37903  20.926   9.347  24.957
37039W        W37904  20.210   7.487  25.462
37040W        W37905  19.432   8.103  23.855
37041W        W37906  18.858   8.059  23.253
37042W        W37907  18.644  10.771  22.929
37043W        W37908  19.976  10.101  25.054
37044W        W37909  19.011   9.586  22.413
37045W        W37910  20.691   8.971  23.634
37046W        W37911  20.971   8.770  24.033
37047W        W37912  20.176   9.444  23.967
37048W        W37913  20.646   9.818  22.099
37049W        W37914  20.318   7.839  23.427
37050W        W37915  21.797   8.117  22.695
37051W        W37916  18.291  10.706  24.726
37052W        W37917  18.708   9.932  24.258
37053W        W37918  18.275  10.778  22.490
37054W        W37919  20.174   8.048  24.296
37055W        W37920  19.537  10.071  22.145
37056W        W37921  21.442  10.453  22.331
37057W        W37922  20.417   9.106  22.345
37058W        W37923  19.260   8.297  22.862
37059W        W37924  20.092   8.207  21.914
37060W        W37925  20.676   9.772  25.092
37061W        W37926  21.029   7.678  22.709
37062W        W37927  18.359   7.526  22.157
37063W        W37928  19.645   9.845  24.447
37064W        W37929  19.444   9.761  23.539
37065W        W37930  19.186   9.713  21.937
37066W        W37931  18.427   9.954  22.705
37067W        W37932  18.931   9.024  25.147
37068W        W37933  19.635   7.584  25.333
37069W        W37934  20.344   7.726  24.689
37070W        W37935  19.539   7.494  22.970
37071W        W37936  20.598   7.571  22.475
37072W        W37937  18.543   7.503  24.052
37073W        W37938  18.591   8.466  23.422
37074W        W37939  21.280   7.574  23.828
37075W        W37940  18.702   8.072  22.642
37076W        W37941  21.273   7.760  24.258
37077W        W37942  21.669   8.963  21.943
37078W        W37943  18.961   7.721  23.762
37079W        W37944  20.075   8.293  24.702
37080W        W37945  18.223   7.983  22.180
37081W        W37946  19.009   9.372  24.741
37082W        W37947  20.367   8.770  23.920
37083W        W37948  20.234  10.849  22.216
37084W        W37949  18.380   9.356  21.913
37085W        W37950  19.115   9.767  25.039
37086W        W37951  18.636   8.934  24.670
37087W        W37952  19.627   9.039  24.464
37088W        W37953  21.395   7.398  24.726
37089W        W37954  21.793   9.008  24.717
37090W        W37955  21.781   9.208  22.403
37091W        W37956  20.644   9.540  22.502
37092W        W37957  21.118  10.840  22.197
37093W        W37958  20.295   8.830  25.339
37094W        W37959  18.625   9.797  25.379
37095W        W37960  21.831   7.719  25.331
37096W        W37961  21.549   8.647  23.952
37097W        W37962  19.857  10.777  25.429
37098W        W37963  19.712   7.406  22.156
37099W        W37964  21.251  10.005  22.099
37100W        W37965  19.020   8.098  24.985
37101W        W37966  19.454  10.092  24.847
37102W        W37967  21.580   8.083  24.645
37103W        W37968  20.791  10.742  22.613
37104W        W37969  21.030   9.361  23.980
37105W        W37970  19.280   7.777  24.647
37106W        W37971  19.749   8.846  25.404
37107W        W37972  19.252  10.025  22.598
37108W        W37973  21.007   9.523  22.862
37109W        W37974  18.775   8.149  24.586
37110W        W37975  20.104  10.211  23.050
37111W        W37976  21.854   8.771  23.231
37112W        W37977  20.076   7.404  24.950
37113W        W37978  20.856  10.109  24.029
37114W        W37979  21.159  10.453  23.737
37115W        W37980  20.378  10.255  22.165
37116W        W37981  18.388  10.147  25.007
37117W        W37982  19.131   8.139  24.245
37118W        W37983  19.101   7.487  23.355
37119W        W37984  20.722   8.329  24.047
37120W        W37985  19.520   9.500  22.247
37121W        W37986  21.518   9.442  23.746
37122W        W37987  18.845  10.200  25.169
37123W        W37988  21.232  10.882  22.966
37124W        W37989  19.331   7.902  23.411
37125W        W37990  19.100   9.395  23.501
37126W        W37991  19.413  10.806  24.251
37127W        W37992  21.480  10.902  25.283
37128W        W37993  20.639   9.090  24.216
37129W        W37994  18.488   8.888  22.131
37130W        W37995  21.622  10.546  22.828
37131W        W37996  21.459   7.870  22.447
37132W        W37997  19.598   7.389  24.850
37133W        W37998  21.304  10.191  23.308
37134W        W37999  21.333   8.747  23.213
37135W        W38000  19.450   8.420  23.429
37136W        W38001  19.695   8.682  24.753
37137W        W38002  20.806   9.835  24.616
37138W        W38003  19.456   8.289  24.728
37139W        W38004  19.435  10.755  23.344
37140W        W38005  18.752  10.714  24.978
37141W        W38006  18.864  10.075  22.108
37142W        W38007  21.381   9.833  22.918
37143W        W38008  18.985   8.625  24.804
37144W        W38009  21.758   8.555  22.285
37145W        W38010  19.503   9.612  22.756
37146W        W38011  20.602   8.994  24.837
37147W        W38012  20.493   8.622  24.381
37148W        W38013  19.053   8.994  24.410
37149W        W38014  21.263  10.882  24.239
37150W        W38015  21.054   7.516  25.233
37151W        W38016  18.718   7.666  24.820
37152W        W38017  19.057   8.689  23.873
37153W        W38018  19.426   8.503  21.995
37154W        W38019  18.229  10.262  24.540
37155W        W38020  19.814   8.971  23.983
37156W        W38021  19.637   7.996  22.088
37157W        W38022  18.772   8.812  22.869
37158W        W38023  18.543  10.664  24.306
37159W        W38024  21.338   8.890  22.414
37160W        W38025  21.433   7.806  25.100
37161W        W38026  20.869  10.015  23.063
37162W        W38027  18.467   8.939  25.240
37163W        W38028  21.433   7.403  22.536
37164W        W38029  20.953   9.878  22.547
37165W        W38030  19.855   8.936  22.632
37166W        W38031  21.042   7.740  22.155
37167W        W38032  21.107   8.347  24.341
37168W        W38033  18.816   8.940  23.548
37169W        W38034  19.110   9.879  23.197
37170W        W38035  20.873   8.499  23.162
37171W        W38036  19.896   7.878  23.858
37172W        W38037  21.858   9.789  24.369
37173W        W38038  21.776   7.776  23.930
37174W        W38039  18.315  10.606  23.306
37175W        W38040  18.824   9.793  22.842
37176W        W38041  18.739   7.410  25.395
37177W        W38042  19.858  10.263  25.497
37178W        W38043  21.613   9.231  23.287
37179W        W38044  20.967   9.408  22.167
37180W        W38045  20.262  10.929  24.379
37181W        W38046  21.119   9.651  25.416
37182W        W38047  19.934   7.361  22.696
37183W        W38048  20.647   8.230  23.555
37184W        W38049  18.333   9.817  23.887
37185W        W38050  19.586   7.779  22.528
37186W        W38051  19.390   9.263  25.377
37187W        W38052  20.384   8.244  23.091
37188W        W38053  20.589   9.654  24.213
37189W        W38054  18.743  10.259  24.648
37190W        W38055  19.334  10.242  25.371
37191W        W38056  19.185   8.039  22.385
37192W        W38057  20.702   8.181  22.710
37193W        W38058  20.660  10.289  24.947
37194W        W38059  19.345   8.881  23.546
37195W        W38060  19.000  10.579  24.411
37196W        W38061  21.745  10.696  22.012
37197W        W38062  18.608   9.368  25.008
37198W        W38063  20.603   9.630  23.696
37199W        W38064  19.039   9.279  22.938
37200W        W38065  19.410  10.286  24.333
37201W        W38066  19.788   7.705  23.374
37202W        W38067  18.399   9.689  22.304
37203W        W38068  19.918   8.640  22.174
37204W        W38069  18.564   9.189  23.193
37205W        W38070  19.854   7.831  24.657
37206W        W38071  21.526   7.540  22.084
37207W        W38072  21.619   9.286  25.183
37208W        W38073  20.273  10.543  25.335
37209W        W38074  21.831   9.637  24.857
37210W        W38075  21.239  10.435  25.468
37211W        W38076  18.978  10.891  23.946
37212W        W38077  21.837   9.513  22.820
37213W        W38078  20.367   8.780  23.333
37214W        W38079  20.134   7.392  23.223
37215W        W38080  19.193  10.376  23.060
37216W        W38081  19.692   8.117  24.285
37217W        W38082  19.392   7.486  23.754
37218W        W38083  18.455  10.308  22.302
37219W        W38084  20.271   9.672  23.020
37220W        W38085  19.146  10.467  24.899
37221W        W38086  18.623   9.290  22.595
37222W        W38087  18.508   7.833  23.594
37223W        W38088  20.056   9.798  23.651
37224W        W38089  18.308   7.652  22.671
37225W        W38090  20.972   8.858  24.598
37226W        W38091  20.849   8.244  22.170
37227W        W38092  21.366   9.916  23.818
37228W        W38093  20.027  10.400  23.649
37229W        W38094  19.439  10.504  22.560
37230W        W38095  20.721   7.407  21.990
37231W        W38096  18.521  10.667  23.731
37232W        W38097  20.718   8.425  25.366
37233W        W38098  18.701   7.955  25.365
37234W        W38099  18.432   8.555  22.698
37235W        W38100  19.123   8.544  22.423
37236W        W38101  20.886   8.871  25.240
37237W        W38102  19.229   9.152  23.949
37238W        W38103  20.703   7.438  23.069
37239W        W38104  19.834  10.869  23.572
37240W        W38105  21.048  10.331  24.509
37241W        W38106  20.632  10.480  23.620
37242W        W38107  20.651   9.460  23.214
37243W        W38108  20.113   7.685  22.285
37244W        W38109  21.794   7.313  23.007
37245W        W38110  19.482   8.948  22.170
37246W        W38111  21.648   8.285  23.160
37247W        W38112  20.340   9.455  22.037
37248W        W38113  21.276   9.655  24.785
37249W        W38114  20.930  10.356  22.252
37250W        W38115  19.545   8.031  25.158
37251W        W38116  19.365   8.615  24.399
37252W        W38117  21.457  10.110  24.676
37253W        W38118  20.557   8.060  25.053
37254W        W38119  18.401   8.531  24.830
37255W        W38120  20.161   9.008  24.556
37256W        W38121  18.518   9.766  23.213
37257W        W38122  18.665   9.063  24.103
37258W        W38123  20.982   9.349  24.453
37259W        W38124  20.754  10.729  25.264
37260W        W38125  20.650   8.468  24.817
37261W        W38126  20.927  10.522  23.222
37262W        W38127  19.929  10.242  24.545
37263W        W38128  19.414  10.597  23.814
37264W        W38129  21.219   9.768  24.233
37265W        W38130  20.269   9.840  25.370
37266W        W38131  18.874   9.793  23.709
37267W        W38132  21.220   9.552  23.354
37268W        W38133  20.861  10.618  24.105
37269W        W38134  18.839  10.347  23.975
37270W        W38135  19.860   8.399  25.185
37271W        W38136  20.311  10.565  22.696
37272W        W38137  19.619   9.820  25.334
37273W        W38138  19.745  10.058  22.711
37274W        W38139  18.966   8.798  21.970
37275W        W38140  18.305  10.884  28.869
37276W        W38141  18.681   9.777  28.392
37277W        W38142  21.386   9.507  26.162
37278W        W38143  21.516  10.592  28.189
37279W        W38144  19.434  10.583  25.715
37280W        W38145  19.517   8.735  26.698
37281W        W38146  19.032   8.583  26.862
37282W        W38147  20.023   9.398  26.296
37283W        W38148  19.698  10.490  28.651
37284W        W38149  18.347   8.051  28.614
37285W        W38150  19.109   7.331  28.416
37286W        W38151  20.803   7.719  27.303
37287W        W38152  20.452   8.590  25.873
37288W        W38153  21.022   8.024  28.964
37289W        W38154  18.388   7.816  28.089
37290W        W38155  18.487  10.435  29.110
37291W        W38156  20.009   9.825  25.842
37292W        W38157  18.441   8.608  27.535
37293W        W38158  19.334   8.499  28.772
37294W        W38159  21.793   8.358  27.271
37295W        W38160  21.557   9.401  28.130
37296W        W38161  19.865   8.734  27.157
37297W        W38162  20.411  10.073  27.526
37298W        W38163  18.911   9.507  27.758
37299W        W38164  18.270   9.035  27.329
37300W        W38165  19.306   9.007  28.521
37301W        W38166  21.577   8.790  28.775
37302W        W38167  19.193  10.234  27.220
37303W        W38168  20.314   9.923  28.354
37304W        W38169  19.534   8.563  27.579
37305W        W38170  19.826   9.347  27.222
37306W        W38171  20.823  10.120  29.070
37307W        W38172  19.902   9.440  29.080
37308W        W38173  19.883   9.156  28.558
37309W        W38174  18.292   8.547  29.080
37310W        W38175  21.124  10.082  28.679
37311W        W38176  18.705   7.664  26.677
37312W        W38177  19.232   9.922  27.676
37313W        W38178  21.695   9.705  26.966
37314W        W38179  21.108   8.105  27.533
37315W        W38180  21.393   8.058  25.628
37316W        W38181  21.858   8.859  27.934
37317W        W38182  19.825  10.566  27.687
37318W        W38183  21.599  10.032  26.125
37319W        W38184  18.728  10.818  25.879
37320W        W38185  19.121  10.864  26.555
37321W        W38186  18.918   7.618  27.981
37322W        W38187  21.541   8.636  28.256
37323W        W38188  20.946   9.058  26.715
37324W        W38189  20.912   8.746  25.742
37325W        W38190  20.120   9.890  27.882
37326W        W38191  19.926   8.220  27.081
37327W        W38192  20.526  10.307  28.075
37328W        W38193  21.397   9.098  26.497
37329W        W38194  20.299   7.756  26.513
37330W        W38195  18.956  10.450  26.196
37331W        W38196  18.327   7.949  26.795
37332W        W38197  21.113   8.556  27.269
37333W        W38198  18.571  10.173  27.184
37334W        W38199  19.912  10.523  26.054
37335W        W38200  21.304   8.549  25.518
37336W        W38201  18.327  10.307  27.682
37337W        W38202  19.118   9.879  28.162
37338W        W38203  19.491   9.239  26.781
37339W        W38204  19.513   7.644  27.874
37340W        W38205  21.742   7.406  27.171
37341W        W38206  18.961   9.278  25.639
37342W        W38207  18.616   8.311  25.818
37343W        W38208  18.678  10.267  26.612
37344W        W38209  19.809   9.750  26.860
37345W        W38210  21.141  10.609  28.574
37346W        W38211  20.067   8.251  26.258
37347W        W38212  21.450  10.649  27.030
37348W        W38213  21.127   8.502  28.628
37349W        W38214  21.840  10.158  26.762
37350W        W38215  20.467   9.450  28.246
37351W        W38216  18.233   9.001  26.452
37352W        W38217  19.344   9.416  28.025
37353W        W38218  20.548   8.680  26.403
37354W        W38219  20.425   9.170  26.507
37355W        W38220  18.768   8.590  27.981
37356W        W38221  18.753   8.466  28.903
37357W        W38222  18.643   7.383  27.062
37358W        W38223  20.411   7.730  27.623
37359W        W38224  20.059   7.915  28.786
37360W        W38225  20.414   8.064  25.964
37361W        W38226  21.597  10.457  28.718
37362W        W38227  20.564   7.538  28.757
37363W        W38228  21.583   9.839  28.879
37364W        W38229  21.013   8.006  28.475
37365W        W38230  20.813   7.944  26.745
37366W        W38231  21.206   9.078  29.149
37367W        W38232  18.946  10.654  27.135
37368W        W38233  19.604   8.371  26.121
37369W        W38234  19.173   7.655  28.785
37370W        W38235  21.225   8.139  26.466
37371W        W38236  21.592   8.621  26.411
37372W        W38237  19.335  10.838  28.882
37373W        W38238  19.261   7.374  26.117
37374W        W38239  21.582   7.908  27.152
37375W        W38240  21.732  10.157  25.597
37376W        W38241  18.639   9.360  27.299
37377W        W38242  20.556   7.947  25.529
37378W        W38243  21.690  10.279  27.249
37379W        W38244  21.729   7.473  27.999
37380W        W38245  20.174   8.685  28.553
37381W        W38246  20.267  10.024  26.256
37382W        W38247  20.667   9.318  28.996
37383W        W38248  20.341   7.295  27.305
37384W        W38249  18.953   8.198  27.368
37385W        W38250  18.507   9.398  28.142
37386W        W38251  20.366  10.591  26.848
37387W        W38252  21.560   8.188  27.720
37388W        W38253  20.197  10.535  28.487
37389W        W38254  21.540   9.594  25.692
37390W        W38255  19.975   9.077  26.753
37391W        W38256  21.827   7.588  28.494
37392W        W38257  19.976   9.423  28.088
37393W        W38258  20.193   8.309  27.533
37394W        W38259  21.045   8.607  26.371
37395W        W38260  21.332   8.340  26.013
37396W        W38261  21.141  10.380  26.402
37397W        W38262  20.975   9.983  27.198
37398W        W38263  20.871   9.062  26.176
37399W        W38264  20.304   9.272  27.162
37400W        W38265  21.185   9.060  27.229
37401W        W38266  18.560   8.075  27.653
37402W        W38267  21.338   9.127  28.480
37403W        W38268  21.689  10.745  27.626
37404W        W38269  19.619  10.189  27.028
37405W        W38270  20.626  10.722  28.352
37406W        W38271  20.620   8.052  28.116
37407W        W38272  19.827  10.760  28.177
37408W        W38273  21.524   7.714  26.643
37409W        W38274  21.315   9.033  27.944
37410W        W38275  18.298   8.354  27.982
37411W        W38276  21.158   8.149  27.000
37412W        W38277  21.569   8.300  28.777
37413W        W38278  20.454   9.999  26.995
37414W        W38279  19.710  10.590  26.608
37415W        W38280  18.825   7.770  25.866
37416W        W38281  19.929   7.424  27.676
37417W        W38282  18.957  10.544  25.524
37418W        W38283  19.331   9.010  26.275
37419W        W38284  19.985   9.639  28.588
37420W        W38285  19.815   7.997  26.578
37421W        W38286  21.171   7.594  27.006
37422W        W38287  20.891  10.876  27.334
37423W        W38288  20.303  10.524  27.674
37424W        W38289  19.699   9.561  27.635
37425W        W38290  21.469  10.284  27.761
37426W        W38291  19.163   7.787  26.530
37427W        W38292  19.685  10.084  27.490
37428W        W38293  19.168   8.015  25.555
37429W        W38294  19.969   8.624  27.949
37430W        W38295  20.817   7.490  27.819
37431W        W38296  18.237   9.333  27.704
37432W        W38297  19.941   9.151  25.862
37433W        W38298  19.209   7.466  25.632
37434W        W38299  19.947   8.547  26.683
37435W        W38300  20.917   7.523  28.382
37436W        W38301  19.505   9.535  28.491
37437W        W38302  20.309   9.317  28.708
37438W        W38303  20.926   9.347  28.601
37439W        W38304  20.210   7.487  29.106
37440W        W38305  19.432   8.103  27.499
37441W        W38306  18.858   8.059  26.897
37442W        W38307  18.644  10.771  26.573
37443W        W38308  19.976  10.101  28.698
37444W        W38309  19.011   9.586  26.057
37445W        W38310  20.691   8.971  27.278
37446W        W38311  20.971   8.770  27.677
37447W        W38312  20.176   9.444  27.611
37448W        W38313  20.646   9.818  25.743
37449W        W38314  20.318   7.839  27.071
37450W        W38315  21.797   8.117  26.339
37451W        W38316  18.291  10.706  28.370
37452W        W38317  18.708   9.932  27.902
37453W        W38318  18.275  10.778  26.134
37454W        W38319  20.174   8.048  27.940
37455W        W38320  19.537  10.071  25.789
37456W        W38321  21.442  10.453  25.975
37457W        W38322  20.417   9.106  25.989
37458W        W38323  19.260   8.297  26.506
37459W        W38324  20.092   8.207  25.558
37460W        W38325  20.676   9.772  28.736
37461W        W38326  21.029   7.678  26.353
37462W        W38327  18.359   7.526  25.801
37463W        W38328  19.645   9.845  28.091
37464W        W38329  19.444   9.761  27.183
37465W        W38330  19.186   9.713  25.581
37466W        W38331  18.427   9.954  26.349
37467W        W38332  18.931   9.024  28.791
37468W        W38333  19.635   7.584  28.977
37469W        W38334  20.344   7.726  28.333
37470W        W38335  19.539   7.494  26.614
37471W        W38336  20.598   7.571  26.119
37472W        W38337  18.543   7.503  27.696
37473W        W38338  18.591   8.466  27.066
37474W        W38339  21.280   7.574  27.472
37475W        W38340  18.702   8.072  26.286
37476W        W38341  21.273   7.760  27.902
37477W        W38342  21.669   8.963  25.587
37478W        W38343  18.961   7.721  27.406
37479W        W38344  20.075   8.293  28.346
37480W        W38345  18.223   7.983  25.824
37481W        W38346  19.009   9.372  28.385
37482W        W38347  20.367   8.770  27.564
37483W        W38348  20.234  10.849  25.860
37484W        W38349  18.380   9.356  25.557
37485W        W38350  19.115   9.767  28.683
37486W        W38351  18.636   8.934  28.314
37487W        W38352  19.627   9.039  28.108
37488W        W38353  21.395   7.398  28.370
37489W        W38354  21.793   9.008  28.361
37490W        W38355  21.781   9.208  26.047
37491W        W38356  20.644   9.540  26.146
37492W        W38357  21.118  10.840  25.841
37493W        W38358  20.295   8.830  28.983
37494W        W38359  18.625   9.797  29.023
37495W        W38360  21.831   7.719  28.975
37496W        W38361  21.549   8.647  27.596
37497W        W38362  19.857  10.777  29.073
37498W        W38363  19.712   7.406  25.800
37499W        W38364  21.251  10.005  25.743
37500W        W38365  19.020   8.098  28.629
37501W        W38366  19.454  10.092  28.491
37502W        W38367  21.580   8.083  28.289
37503W        W38368  20.791  10.742  26.257
37504W        W38369  21.030   9.361  27.624
37505W        W38370  19.280   7.777  28.291
37506W        W38371  19.749   8.846  29.048
37507W        W38372  19.252  10.025  26.242
37508W        W38373  21.007   9.523  26.506
37509W        W38374  18.775   8.149  28.230
37510W        W38375  20.104  10.211  26.694
37511W        W38376  21.854   8.771  26.875
37512W        W38377  20.076   7.404  28.594
37513W        W38378  20.856  10.109  27.673
37514W        W38379  21.159  10.453  27.381
37515W        W38380  20.378  10.255  25.809
37516W        W38381  18.388  10.147  28.651
37517W        W38382  19.131   8.139  27.889
37518W        W38383  19.101   7.487  26.999
37519W        W38384  20.722   8.329  27.691
37520W        W38385  19.520   9.500  25.891
37521W        W38386  21.518   9.442  27.390
37522W        W38387  18.845  10.200  28.813
37523W        W38388  21.232  10.882  26.610
37524W        W38389  19.331   7.902  27.055
37525W        W38390  19.100   9.395  27.145
37526W        W38391  19.413  10.806  27.895
37527W        W38392  21.480  10.902  28.927
37528W        W38393  20.639   9.090  27.860
37529W        W38394  18.488   8.888  25.775
37530W        W38395  21.622  10.546  26.472
37531W        W38396  21.459   7.870  26.091
37532W        W38397  19.598   7.389  28.494
37533W        W38398  21.304  10.191  26.952
37534W        W38399  21.333   8.747  26.857
37535W        W38400  19.450   8.420  27.073
37536W        W38401  19.695   8.682  28.397
37537W        W38402  20.806   9.835  28.260
37538W        W38403  19.456   8.289  28.372
37539W        W38404  19.435  10.755  26.988
37540W        W38405  18.752  10.714  28.622
37541W        W38406  18.864  10.075  25.752
37542W        W38407  21.381   9.833  26.562
37543W        W38408  18.985   8.625  28.448
37544W        W38409  21.758   8.555  25.929
37545W        W38410  19.503   9.612  26.400
37546W        W38411  20.602   8.994  28.481
37547W        W38412  20.493   8.622  28.025
37548W        W38413  19.053   8.994  28.054
37549W        W38414  21.263  10.882  27.883
37550W        W38415  21.054   7.516  28.877
37551W        W38416  18.718   7.666  28.464
37552W        W38417  19.057   8.689  27.517
37553W        W38418  19.426   8.503  25.639
37554W        W38419  18.229  10.262  28.184
37555W        W38420  19.814   8.971  27.627
37556W        W38421  19.637   7.996  25.732
37557W        W38422  18.772   8.812  26.513
37558W        W38423  18.543  10.664  27.950
37559W        W38424  21.338   8.890  26.058
37560W        W38425  21.433   7.806  28.744
37561W        W38426  20.869  10.015  26.707
37562W        W38427  18.467   8.939  28.884
37563W        W38428  21.433   7.403  26.180
37564W        W38429  20.953   9.878  26.191
37565W        W38430  19.855   8.936  26.276
37566W        W38431  21.042   7.740  25.799
37567W        W38432  21.107   8.347  27.985
37568W        W38433  18.816   8.940  27.192
37569W        W38434  19.110   9.879  26.841
37570W        W38435  20.873   8.499  26.806
37571W        W38436  19.896   7.878  27.502
37572W        W38437  21.858   9.789  28.013
37573W        W38438  21.776   7.776  27.574
37574W        W38439  18.315  10.606  26.950
37575W        W38440  18.824   9.793  26.486
37576W        W38441  18.739   7.410  29.039
37577W        W38442  19.858  10.263  29.141
37578W        W38443  21.613   9.231  26.931
37579W        W38444  20.967   9.408  25.811
37580W        W38445  20.262  10.929  28.023
37581W        W38446  21.119   9.651  29.060
37582W        W38447  19.934   7.361  26.340
37583W        W38448  20.647   8.230  27.199
37584W        W38449  18.333   9.817  27.531
37585W        W38450  19.586   7.779  26.172
37586W        W38451  19.390   9.263  29.021
37587W        W38452  20.384   8.244  26.735
37588W        W38453  20.589   9.654  27.857
37589W        W38454  18.743  10.259  28.292
37590W        W38455  19.334  10.242  29.015
37591W        W38456  19.185   8.039  26.029
37592W        W38457  20.702   8.181  26.354
37593W        W38458  20.660  10.289  28.591
37594W        W38459  19.345   8.881  27.190
37595W        W38460  19.000  10.579  28.055
37596W        W38461  21.745  10.696  25.656
37597W        W38462  18.608   9.368  28.652
37598W        W38463  20.603   9.630  27.340
37599W        W38464  19.039   9.279  26.582
37600W        W38465  19.410  10.286  27.977
37601W        W38466  19.788   7.705  27.018
37602W        W38467  18.399   9.689  25.948
37603W        W38468  19.918   8.640  25.818
37604W        W38469  18.564   9.189  26.837
37605W        W38470  19.854   7.831  28.301
37606W        W38471  21.526   7.540  25.728
37607W        W38472  21.619   9.286  28.827
37608W        W38473  20.273  10.543  28.979
37609W        W38474  21.831   9.637  28.501
37610W        W38475  21.239  10.435  29.112
37611W        W38476  18.978  10.891  27.590
37612W        W38477  21.837   9.513  26.464
37613W        W38478  20.367   8.780  26.977
37614W        W38479  20.134   7.392  26.867
37615W        W38480  19.193  10.376  26.704
37616W        W38481  19.692   8.117  27.929
37617W        W38482  19.392   7.486  27.398
37618W        W38483  18.455  10.308  25.946
37619W        W38484  20.271   9.672  26.664
37620W        W38485  19.146  10.467  28.543
37621W        W38486  18.623   9.290  26.239
37622W        W38487  18.508   7.833  27.238
37623W        W38488  20.056   9.798  27.295
37624W        W38489  18.308   7.652  26.315
37625W        W38490  20.972   8.858  28.242
37626W        W38491  20.849   8.244  25.814
37627W        W38492  21.366   9.916  27.462
37628W        W38493  20.027  10.400  27.293
37629W        W38494  19.439  10.504  26.204
37630W        W38495  20.721   7.407  25.634
37631W        W38496  18.521  10.667  27.375
37632W        W38497  20.718   8.425  29.010
37633W        W38498  18.701   7.955  29.009
37634W        W38499  18.432   8.555  26.342
37635W        W38500  19.123   8.544  26.067
37636W        W38501  20.886   8.871  28.884
37637W        W38502  19.229   9.152  27.593
37638W        W38503  20.703   7.438  26.713
37639W        W38504  19.834  10.869  27.216
37640W        W38505  21.048  10.331  28.153
37641W        W38506  20.632  10.480  27.264
37642W        W38507  20.651   9.460  26.858
37643W        W38508  20.113   7.685  25.929
37644W        W38509  21.794   7.313  26.651
37645W        W38510  19.482   8.948  25.814
37646W        W38511  21.648   8.285  26.804
37647W        W38512  20.340   9.455  25.681
37648W        W38513  21.276   9.655  28.429
37649W        W38514  20.930  10.356  25.896
37650W        W38515  19.545   8.031  28.802
37651W        W38516  19.365   8.615  28.043
37652W        W38517  21.457  10.110  28.320
37653W        W38518  20.557   8.060  28.697
37654W        W38519  18.401   8.531  28.474
37655W        W38520  20.161   9.008  28.200
37656W        W38521  18.518   9.766  26.857
37657W        W38522  18.665   9.063  27.747
37658W        W38523  20.982   9.349  28.097
37659W        W38524  20.754  10.729  28.908
37660W        W38525  20.650   8.468  28.461
37661W        W38526  20.927  10.522  26.866
37662W        W38527  19.929  10.242  28.189
37663W        W38528  19.414  10.597  27.458
37664W        W38529  21.219   9.768  27.877
37665W        W38530  20.269   9.840  29.014
37666W        W38531  18.874   9.793  27.353
37667W        W38532  21.220   9.552  26.998
37668W        W38533  20.861  10.618  27.749
37669W        W38534  18.839  10.347  27.619
37670W        W38535  19.860   8.399  28.829
37671W        W38536  20.311  10.565  26.340
37672W        W38537  19.619   9.820  28.978
37673W        W38538  19.745  10.058  26.355
37674W        W38539  18.966   8.798  25.614
37675W        W38540  18.305  14.528   3.359
37676W        W38541  18.681  13.421   2.882
37677W        W38542  21.386  13.151   0.652
37678W        W38543  21.516  14.236   2.679
37679W        W38544  19.434  14.227   0.205
37680W        W38545  19.517  12.379   1.188
37681W        W38546  19.032  12.227   1.352
37682W        W38547  20.023  13.042   0.786
37683W        W38548  19.698  14.134   3.141
37684W        W38549  18.347  11.695   3.104
37685W        W38550  19.109  10.975   2.906
37686W        W38551  20.803  11.363   1.793
37687W        W38552  20.452  12.234   0.363
37688W        W38553  21.022  11.668   3.454
37689W        W38554  18.388  11.460   2.579
37690W        W38555  18.487  14.079   3.600
37691W        W38556  20.009  13.469   0.332
37692W        W38557  18.441  12.252   2.025
37693W        W38558  19.334  12.143   3.262
37694W        W38559  21.793  12.002   1.761
37695W        W38560  21.557  13.045   2.620
37696W        W38561  19.865  12.378   1.647
37697W        W38562  20.411  13.717   2.016
37698W        W38563  18.911  13.151   2.248
37699W        W38564  18.270  12.679   1.819
37700W        W38565  19.306  12.651   3.011
37701W        W38566  21.577  12.434   3.265
37702W        W38567  19.193  13.878   1.710
37703W        W38568  20.314  13.567   2.844
37704W        W38569  19.534  12.207   2.069
37705W        W38570  19.826  12.991   1.712
37706W        W38571  20.823  13.764   3.560
37707W        W38572  19.902  13.084   3.570
37708W        W38573  19.883  12.800   3.048
37709W        W38574  18.292  12.191   3.570
37710W        W38575  21.124  13.726   3.169
37711W        W38576  18.705  11.308   1.167
37712W        W38577  19.232  13.566   2.166
37713W        W38578  21.695  13.349   1.456
37714W        W38579  21.108  11.749   2.023
37715W        W38580  21.393  11.702   0.118
37716W        W38581  21.858  12.503   2.424
37717W        W38582  19.825  14.210   2.177
37718W        W38583  21.599  13.676   0.615
37719W        W38584  18.728  14.462   0.369
37720W        W38585  19.121  14.508   1.045
37721W        W38586  18.918  11.262   2.471
37722W        W38587  21.541  12.280   2.746
37723W        W38588  20.946  12.702   1.205
37724W        W38589  20.912  12.390   0.232
37725W        W38590  20.120  13.534   2.372
37726W        W38591  19.926  11.864   1.571
37727W        W38592  20.526  13.951   2.565
37728W        W38593  21.397  12.742   0.987
37729W        W38594  20.299  11.400   1.003
37730W        W38595  18.956  14.094   0.686
37731W        W38596  18.327  11.593   1.285
37732W        W38597  21.113  12.200   1.759
37733W        W38598  18.571  13.817   1.674
37734W        W38599  19.912  14.167   0.544
37735W        W38600  21.304  12.193   0.008
37736W        W38601  18.327  13.951   2.172
37737W        W38602  19.118  13.523   2.652
37738W        W38603  19.491  12.883   1.271
37739W        W38604  19.513  11.288   2.364
37740W        W38605  21.742  11.050   1.661
37741W        W38606  18.961  12.922   0.129
37742W        W38607  18.616  11.955   0.308
37743W        W38608  18.678  13.911   1.102
37744W        W38609  19.809  13.394   1.350
37745W        W38610  21.141  14.253   3.064
37746W        W38611  20.067  11.895   0.748
37747W        W38612  21.450  14.293   1.520
37748W        W38613  21.127  12.146   3.118
37749W        W38614  21.840  13.802   1.252
37750W        W38615  20.467  13.094   2.736
37751W        W38616  18.233  12.645   0.942
37752W        W38617  19.344  13.060   2.515
37753W        W38618  20.548  12.324   0.893
37754W        W38619  20.425  12.814   0.997
37755W        W38620  18.768  12.234   2.471
37756W        W38621  18.753  12.110   3.393
37757W        W38622  18.643  11.027   1.552
37758W        W38623  20.411  11.374   2.113
37759W        W38624  20.059  11.559   3.276
37760W        W38625  20.414  11.708   0.454
37761W        W38626  21.597  14.101   3.208
37762W        W38627  20.564  11.182   3.247
37763W        W38628  21.583  13.483   3.369
37764W        W38629  21.013  11.650   2.965
37765W        W38630  20.813  11.588   1.235
37766W        W38631  21.206  12.722   3.639
37767W        W38632  18.946  14.298   1.625
37768W        W38633  19.604  12.015   0.611
37769W        W38634  19.173  11.299   3.275
37770W        W38635  21.225  11.783   0.956
37771W        W38636  21.592  12.265   0.901
37772W        W38637  19.335  14.482   3.372
37773W        W38638  19.261  11.018   0.607
37774W        W38639  21.582  11.552   1.642
37775W        W38640  21.732  13.801   0.087
37776W        W38641  18.639  13.004   1.789
37777W        W38642  20.556  11.591   0.019
37778W        W38643  21.690  13.923   1.739
37779W        W38644  21.729  11.117   2.489
37780W        W38645  20.174  12.329   3.043
37781W        W38646  20.267  13.668   0.746
37782W        W38647  20.667  12.962   3.486
37783W        W38648  20.341  10.939   1.795
37784W        W38649  18.953  11.842   1.858
37785W        W38650  18.507  13.042   2.632
37786W        W38651  20.366  14.235   1.338
37787W        W38652  21.560  11.832   2.210
37788W        W38653  20.197  14.179   2.977
37789W        W38654  21.540  13.238   0.182
37790W        W38655  19.975  12.721   1.243
37791W        W38656  21.827  11.232   2.984
37792W        W38657  19.976  13.067   2.578
37793W        W38658  20.193  11.953   2.023
37794W        W38659  21.045  12.251   0.861
37795W        W38660  21.332  11.984   0.503
37796W        W38661  21.141  14.024   0.892
37797W        W38662  20.975  13.627   1.688
37798W        W38663  20.871  12.706   0.666
37799W        W38664  20.304  12.916   1.652
37800W        W38665  21.185  12.704   1.719
37801W        W38666  18.560  11.719   2.143
37802W        W38667  21.338  12.771   2.970
37803W        W38668  21.689  14.389   2.116
37804W        W38669  19.619  13.833   1.518
37805W        W38670  20.626  14.366   2.842
37806W        W38671  20.620  11.696   2.606
37807W        W38672  19.827  14.404   2.667
37808W        W38673  21.524  11.358   1.133
37809W        W38674  21.315  12.677   2.434
37810W        W38675  18.298  11.998   2.472
37811W        W38676  21.158  11.793   1.490
37812W        W38677  21.569  11.944   3.267
37813W        W38678  20.454  13.643   1.485
37814W        W38679  19.710  14.234   1.098
37815W        W38680  18.825  11.414   0.356
37816W        W38681  19.929  11.068   2.166
37817W        W38682  18.957  14.188   0.014
37818W        W38683  19.331  12.654   0.765
37819W        W38684  19.985  13.283   3.078
37820W        W38685  19.815  11.641   1.068
37821W        W38686  21.171  11.238   1.496
37822W        W38687  20.891  14.520   1.824
37823W        W38688  20.303  14.168   2.164
37824W        W38689  19.699  13.205   2.125
37825W        W38690  21.469  13.928   2.251
37826W        W38691  19.163  11.431   1.020
37827W        W38692  19.685  13.728   1.980
37828W        W38693  19.168  11.659   0.045
37829W        W38694  19.969  12.268   2.439
37830W        W38695  20.817  11.134   2.309
37831W        W38696  18.237  12.977   2.194
37832W        W38697  19.941  12.795   0.352
37833W        W38698  19.209  11.110   0.122
37834W        W38699  19.947  12.191   1.173
37835W        W38700  20.917  11.167   2.872
37836W        W38701  19.505  13.179   2.981
37837W        W38702  20.309  12.961   3.198
37838W        W38703  20.926  12.991   3.091
37839W        W38704  20.210  11.131   3.596
37840W        W38705  19.432  11.747   1.989
37841W        W38706  18.858  11.703   1.387
37842W        W38707  18.644  14.415   1.063
37843W        W38708  19.976  13.745   3.188
37844W        W38709  19.011  13.230   0.547
37845W        W38710  20.691  12.615   1.768
37846W        W38711  20.971  12.414   2.167
37847W        W38712  20.176  13.088   2.101
37848W        W38713  20.646  13.462   0.233
37849W        W38714  20.318  11.483   1.561
37850W        W38715  21.797  11.761   0.829
37851W        W38716  18.291  14.350   2.860
37852W        W38717  18.708  13.576   2.392
37853W        W38718  18.275  14.422   0.624
37854W        W38719  20.174  11.692   2.430
37855W        W38720  19.537  13.715   0.279
37856W        W38721  21.442  14.097   0.465
37857W        W38722  20.417  12.750   0.479
37858W        W38723  19.260  11.941   0.996
37859W        W38724  20.092  11.851   0.048
37860W        W38725  20.676  13.416   3.226
37861W        W38726  21.029  11.322   0.843
37862W        W38727  18.359  11.170   0.291
37863W        W38728  19.645  13.489   2.581
37864W        W38729  19.444  13.405   1.673
37865W        W38730  19.186  13.357   0.071
37866W        W38731  18.427  13.598   0.839
37867W        W38732  18.931  12.668   3.281
37868W        W38733  19.635  11.228   3.467
37869W        W38734  20.344  11.370   2.823
37870W        W38735  19.539  11.138   1.104
37871W        W38736  20.598  11.215   0.609
37872W        W38737  18.543  11.147   2.186
37873W        W38738  18.591  12.110   1.556
37874W        W38739  21.280  11.218   1.962
37875W        W38740  18.702  11.716   0.776
37876W        W38741  21.273  11.404   2.392
37877W        W38742  21.669  12.607   0.077
37878W        W38743  18.961  11.365   1.896
37879W        W38744  20.075  11.937   2.836
37880W        W38745  18.223  11.627   0.314
37881W        W38746  19.009  13.016   2.875
37882W        W38747  20.367  12.414   2.054
37883W        W38748  20.234  14.493   0.350
37884W        W38749  18.380  13.000   0.047
37885W        W38750  19.115  13.411   3.173
37886W        W38751  18.636  12.578   2.804
37887W        W38752  19.627  12.683   2.598
37888W        W38753  21.395  11.042   2.860
37889W        W38754  21.793  12.652   2.851
37890W        W38755  21.781  12.852   0.537
37891W        W38756  20.644  13.184   0.636
37892W        W38757  21.118  14.484   0.331
37893W        W38758  20.295  12.474   3.473
37894W        W38759  18.625  13.441   3.513
37895W        W38760  21.831  11.363   3.465
37896W        W38761  21.549  12.291   2.086
37897W        W38762  19.857  14.421   3.563
37898W        W38763  19.712  11.050   0.290
37899W        W38764  21.251  13.649   0.233
37900W        W38765  19.020  11.742   3.119
37901W        W38766  19.454  13.736   2.981
37902W        W38767  21.580  11.727   2.779
37903W        W38768  20.791  14.386   0.747
37904W        W38769  21.030  13.005   2.114
37905W        W38770  19.280  11.421   2.781
37906W        W38771  19.749  12.490   3.538
37907W        W38772  19.252  13.669   0.732
37908W        W38773  21.007  13.167   0.996
37909W        W38774  18.775  11.793   2.720
37910W        W38775  20.104  13.855   1.184
37911W        W38776  21.854  12.415   1.365
37912W        W38777  20.076  11.048   3.084
37913W        W38778  20.856  13.753   2.163
37914W        W38779  21.159  14.097   1.871
37915W        W38780  20.378  13.899   0.299
37916W        W38781  18.388  13.791   3.141
37917W        W38782  19.131  11.783   2.379
37918W        W38783  19.101  11.131   1.489
37919W        W38784  20.722  11.973   2.181
37920W        W38785  19.520  13.144   0.381
37921W        W38786  21.518  13.086   1.880
37922W        W38787  18.845  13.844   3.303
37923W        W38788  21.232  14.526   1.100
37924W        W38789  19.331  11.546   1.545
37925W        W38790  19.100  13.039   1.635
37926W        W38791  19.413  14.450   2.385
37927W        W38792  21.480  14.546   3.417
37928W        W38793  20.639  12.734   2.350
37929W        W38794  18.488  12.532   0.265
37930W        W38795  21.622  14.190   0.962
37931W        W38796  21.459  11.514   0.581
37932W        W38797  19.598  11.033   2.984
37933W        W38798  21.304  13.835   1.442
37934W        W38799  21.333  12.391   1.347
37935W        W38800  19.450  12.064   1.563
37936W        W38801  19.695  12.326   2.887
37937W        W38802  20.806  13.479   2.750
37938W        W38803  19.456  11.933   2.862
37939W        W38804  19.435  14.399   1.478
37940W        W38805  18.752  14.358   3.112
37941W        W38806  18.864  13.719   0.242
37942W        W38807  21.381  13.477   1.052
37943W        W38808  18.985  12.269   2.938
37944W        W38809  21.758  12.199   0.419
37945W        W38810  19.503  13.256   0.890
37946W        W38811  20.602  12.638   2.971
37947W        W38812  20.493  12.266   2.515
37948W        W38813  19.053  12.638   2.544
37949W        W38814  21.263  14.526   2.373
37950W        W38815  21.054  11.160   3.367
37951W        W38816  18.718  11.310   2.954
37952W        W38817  19.057  12.333   2.007
37953W        W38818  19.426  12.147   0.129
37954W        W38819  18.229  13.906   2.674
37955W        W38820  19.814  12.615   2.117
37956W        W38821  19.637  11.640   0.222
37957W        W38822  18.772  12.456   1.003
37958W        W38823  18.543  14.308   2.440
37959W        W38824  21.338  12.534   0.548
37960W        W38825  21.433  11.450   3.234
37961W        W38826  20.869  13.659   1.197
37962W        W38827  18.467  12.583   3.374
37963W        W38828  21.433  11.047   0.670
37964W        W38829  20.953  13.522   0.681
37965W        W38830  19.855  12.580   0.766
37966W        W38831  21.042  11.384   0.289
37967W        W38832  21.107  11.991   2.475
37968W        W38833  18.816  12.584   1.682
37969W        W38834  19.110  13.523   1.331
37970W        W38835  20.873  12.143   1.296
37971W        W38836  19.896  11.522   1.992
37972W        W38837  21.858  13.433   2.503
37973W        W38838  21.776  11.420   2.064
37974W        W38839  18.315  14.250   1.440
37975W        W38840  18.824  13.437   0.976
37976W        W38841  18.739  11.054   3.529
37977W        W38842  19.858  13.907   3.631
37978W        W38843  21.613  12.875   1.421
37979W        W38844  20.967  13.052   0.301
37980W        W38845  20.262  14.573   2.513
37981W        W38846  21.119  13.295   3.550
37982W        W38847  19.934  11.005   0.830
37983W        W38848  20.647  11.874   1.689
37984W        W38849  18.333  13.461   2.021
37985W        W38850  19.586  11.423   0.662
37986W        W38851  19.390  12.907   3.511
37987W        W38852  20.384  11.888   1.225
37988W        W38853  20.589  13.298   2.347
37989W        W38854  18.743  13.903   2.782
37990W        W38855  19.334  13.886   3.505
37991W        W38856  19.185  11.683   0.519
37992W        W38857  20.702  11.825   0.844
37993W        W38858  20.660  13.933   3.081
37994W        W38859  19.345  12.525   1.680
37995W        W38860  19.000  14.223   2.545
37996W        W38861  21.745  14.340   0.146
37997W        W38862  18.608  13.012   3.142
37998W        W38863  20.603  13.274   1.830
37999W        W38864  19.039  12.923   1.072
38000W        W38865  19.410  13.930   2.467
38001W        W38866  19.788  11.349   1.508
38002W        W38867  18.399  13.333   0.438
38003W        W38868  19.918  12.284   0.308
38004W        W38869  18.564  12.833   1.327
38005W        W38870  19.854  11.475   2.791
38006W        W38871  21.526  11.184   0.218
38007W        W38872  21.619  12.930   3.317
38008W        W38873  20.273  14.187   3.469
38009W        W38874  21.831  13.281   2.991
38010W        W38875  21.239  14.079   3.602
38011W        W38876  18.978  14.535   2.080
38012W        W38877  21.837  13.157   0.954
38013W        W38878  20.367  12.424   1.467
38014W        W38879  20.134  11.036   1.357
38015W        W38880  19.193  14.020   1.194
38016W        W38881  19.692  11.761   2.419
38017W        W38882  19.392  11.130   1.888
38018W        W38883  18.455  13.952   0.436
38019W        W38884  20.271  13.316   1.154
38020W        W38885  19.146  14.111   3.033
38021W        W38886  18.623  12.934   0.729
38022W        W38887  18.508  11.477   1.728
38023W        W38888  20.056  13.442   1.785
38024W        W38889  18.308  11.296   0.805
38025W        W38890  20.972  12.502   2.732
38026W        W38891  20.849  11.888   0.304
38027W        W38892  21.366  13.560   1.952
38028W        W38893  20.027  14.044   1.783
38029W        W38894  19.439  14.148   0.694
38030W        W38895  20.721  11.051   0.124
38031W        W38896  18.521  14.311   1.865
38032W        W38897  20.718  12.069   3.500
38033W        W38898  18.701  11.599   3.499
38034W        W38899  18.432  12.199   0.832
38035W        W38900  19.123  12.188   0.557
38036W        W38901  20.886  12.515   3.374
38037W        W38902  19.229  12.796   2.083
38038W        W38903  20.703  11.082   1.203
38039W        W38904  19.834  14.513   1.706
38040W        W38905  21.048  13.975   2.643
38041W        W38906  20.632  14.124   1.754
38042W        W38907  20.651  13.104   1.348
38043W        W38908  20.113  11.329   0.419
38044W        W38909  21.794  10.957   1.141
38045W        W38910  19.482  12.592   0.304
38046W        W38911  21.648  11.929   1.294
38047W        W38912  20.340  13.099   0.171
38048W        W38913  21.276  13.299   2.919
38049W        W38914  20.930  14.000   0.386
38050W        W38915  19.545  11.675   3.292
38051W        W38916  19.365  12.259   2.533
38052W        W38917  21.457  13.754   2.810
38053W        W38918  20.557  11.704   3.187
38054W        W38919  18.401  12.175   2.964
38055W        W38920  20.161  12.652   2.690
38056W        W38921  18.518  13.410   1.347
38057W        W38922  18.665  12.707   2.237
38058W        W38923  20.982  12.993   2.587
38059W        W38924  20.754  14.373   3.398
38060W        W38925  20.650  12.112   2.951
38061W        W38926  20.927  14.166   1.356
38062W        W38927  19.929  13.886   2.679
38063W        W38928  19.414  14.241   1.948
38064W        W38929  21.219  13.412   2.367
38065W        W38930  20.269  13.484   3.504
38066W        W38931  18.874  13.437   1.843
38067W        W38932  21.220  13.196   1.488
38068W        W38933  20.861  14.262   2.239
38069W        W38934  18.839  13.991   2.109
38070W        W38935  19.860  12.043   3.319
38071W        W38936  20.311  14.209   0.830
38072W        W38937  19.619  13.464   3.468
38073W        W38938  19.745  13.702   0.845
38074W        W38939  18.966  12.442   0.104
38075W        W38940  18.305  14.528   7.003
38076W        W38941  18.681  13.421   6.526
38077W        W38942  21.386  13.151   4.296
38078W        W38943  21.516  14.236   6.323
38079W        W38944  19.434  14.227   3.849
38080W        W38945  19.517  12.379   4.832
38081W        W38946  19.032  12.227   4.996
38082W        W38947  20.023  13.042   4.430
38083W        W38948  19.698  14.134   6.785
38084W        W38949  18.347  11.695   6.748
38085W        W38950  19.109  10.975   6.550
38086W        W38951  20.803  11.363   5.437
38087W        W38952  20.452  12.234   4.007
38088W        W38953  21.022  11.668   7.098
38089W        W38954  18.388  11.460   6.223
38090W        W38955  18.487  14.079   7.244
38091W        W38956  20.009  13.469   3.976
38092W        W38957  18.441  12.252   5.669
38093W        W38958  19.334  12.143   6.906
38094W        W38959  21.793  12.002   5.405
38095W        W38960  21.557  13.045   6.264
38096W        W38961  19.865  12.378   5.291
38097W        W38962  20.411  13.717   5.660
38098W        W38963  18.911  13.151   5.892
38099W        W38964  18.270  12.679   5.463
38100W        W38965  19.306  12.651   6.655
38101W        W38966  21.577  12.434   6.909
38102W        W38967  19.193  13.878   5.354
38103W        W38968  20.314  13.567   6.488
38104W        W38969  19.534  12.207   5.713
38105W        W38970  19.826  12.991   5.356
38106W        W38971  20.823  13.764   7.204
38107W        W38972  19.902  13.084   7.214
38108W        W38973  19.883  12.800   6.692
38109W        W38974  18.292  12.191   7.214
38110W        W38975  21.124  13.726   6.813
38111W        W38976  18.705  11.308   4.811
38112W        W38977  19.232  13.566   5.810
38113W        W38978  21.695  13.349   5.100
38114W        W38979  21.108  11.749   5.667
38115W        W38980  21.393  11.702   3.762
38116W        W38981  21.858  12.503   6.068
38117W        W38982  19.825  14.210   5.821
38118W        W38983  21.599  13.676   4.259
38119W        W38984  18.728  14.462   4.013
38120W        W38985  19.121  14.508   4.689
38121W        W38986  18.918  11.262   6.115
38122W        W38987  21.541  12.280   6.390
38123W        W38988  20.946  12.702   4.849
38124W        W38989  20.912  12.390   3.876
38125W        W38990  20.120  13.534   6.016
38126W        W38991  19.926  11.864   5.215
38127W        W38992  20.526  13.951   6.209
38128W        W38993  21.397  12.742   4.631
38129W        W38994  20.299  11.400   4.647
38130W        W38995  18.956  14.094   4.330
38131W        W38996  18.327  11.593   4.929
38132W        W38997  21.113  12.200   5.403
38133W        W38998  18.571  13.817   5.318
38134W        W38999  19.912  14.167   4.188
38135W        W39000  21.304  12.193   3.652
38136W        W39001  18.327  13.951   5.816
38137W        W39002  19.118  13.523   6.296
38138W        W39003  19.491  12.883   4.915
38139W        W39004  19.513  11.288   6.008
38140W        W39005  21.742  11.050   5.305
38141W        W39006  18.961  12.922   3.773
38142W        W39007  18.616  11.955   3.952
38143W        W39008  18.678  13.911   4.746
38144W        W39009  19.809  13.394   4.994
38145W        W39010  21.141  14.253   6.708
38146W        W39011  20.067  11.895   4.392
38147W        W39012  21.450  14.293   5.164
38148W        W39013  21.127  12.146   6.762
38149W        W39014  21.840  13.802   4.896
38150W        W39015  20.467  13.094   6.380
38151W        W39016  18.233  12.645   4.586
38152W        W39017  19.344  13.060   6.159
38153W        W39018  20.548  12.324   4.537
38154W        W39019  20.425  12.814   4.641
38155W        W39020  18.768  12.234   6.115
38156W        W39021  18.753  12.110   7.037
38157W        W39022  18.643  11.027   5.196
38158W        W39023  20.411  11.374   5.757
38159W        W39024  20.059  11.559   6.920
38160W        W39025  20.414  11.708   4.098
38161W        W39026  21.597  14.101   6.852
38162W        W39027  20.564  11.182   6.891
38163W        W39028  21.583  13.483   7.013
38164W        W39029  21.013  11.650   6.609
38165W        W39030  20.813  11.588   4.879
38166W        W39031  21.206  12.722   7.283
38167W        W39032  18.946  14.298   5.269
38168W        W39033  19.604  12.015   4.255
38169W        W39034  19.173  11.299   6.919
38170W        W39035  21.225  11.783   4.600
38171W        W39036  21.592  12.265   4.545
38172W        W39037  19.335  14.482   7.016
38173W        W39038  19.261  11.018   4.251
38174W        W39039  21.582  11.552   5.286
38175W        W39040  21.732  13.801   3.731
38176W        W39041  18.639  13.004   5.433
38177W        W39042  20.556  11.591   3.663
38178W        W39043  21.690  13.923   5.383
38179W        W39044  21.729  11.117   6.133
38180W        W39045  20.174  12.329   6.687
38181W        W39046  20.267  13.668   4.390
38182W        W39047  20.667  12.962   7.130
38183W        W39048  20.341  10.939   5.439
38184W        W39049  18.953  11.842   5.502
38185W        W39050  18.507  13.042   6.276
38186W        W39051  20.366  14.235   4.982
38187W        W39052  21.560  11.832   5.854
38188W        W39053  20.197  14.179   6.621
38189W        W39054  21.540  13.238   3.826
38190W        W39055  19.975  12.721   4.887
38191W        W39056  21.827  11.232   6.628
38192W        W39057  19.976  13.067   6.222
38193W        W39058  20.193  11.953   5.667
38194W        W39059  21.045  12.251   4.505
38195W        W39060  21.332  11.984   4.147
38196W        W39061  21.141  14.024   4.536
38197W        W39062  20.975  13.627   5.332
38198W        W39063  20.871  12.706   4.310
38199W        W39064  20.304  12.916   5.296
38200W        W39065  21.185  12.704   5.363
38201W        W39066  18.560  11.719   5.787
38202W        W39067  21.338  12.771   6.614
38203W        W39068  21.689  14.389   5.760
38204W        W39069  19.619  13.833   5.162
38205W        W39070  20.626  14.366   6.486
38206W        W39071  20.620  11.696   6.250
38207W        W39072  19.827  14.404   6.311
38208W        W39073  21.524  11.358   4.777
38209W        W39074  21.315  12.677   6.078
38210W        W39075  18.298  11.998   6.116
38211W        W39076  21.158  11.793   5.134
38212W        W39077  21.569  11.944   6.911
38213W        W39078  20.454  13.643   5.129
38214W        W39079  19.710  14.234   4.742
38215W        W39080  18.825  11.414   4.000
38216W        W39081  19.929  11.068   5.810
38217W        W39082  18.957  14.188   3.658
38218W        W39083  19.331  12.654   4.409
38219W        W39084  19.985  13.283   6.722
38220W        W39085  19.815  11.641   4.712
38221W        W39086  21.171  11.238   5.140
38222W        W39087  20.891  14.520   5.468
38223W        W39088  20.303  14.168   5.808
38224W        W39089  19.699  13.205   5.769
38225W        W39090  21.469  13.928   5.895
38226W        W39091  19.163  11.431   4.664
38227W        W39092  19.685  13.728   5.624
38228W        W39093  19.168  11.659   3.689
38229W        W39094  19.969  12.268   6.083
38230W        W39095  20.817  11.134   5.953
38231W        W39096  18.237  12.977   5.838
38232W        W39097  19.941  12.795   3.996
38233W        W39098  19.209  11.110   3.766
38234W        W39099  19.947  12.191   4.817
38235W        W39100  20.917  11.167   6.516
38236W        W39101  19.505  13.179   6.625
38237W        W39102  20.309  12.961   6.842
38238W        W39103  20.926  12.991   6.735
38239W        W39104  20.210  11.131   7.240
38240W        W39105  19.432  11.747   5.633
38241W        W39106  18.858  11.703   5.031
38242W        W39107  18.644  14.415   4.707
38243W        W39108  19.976  13.745   6.832
38244W        W39109  19.011  13.230   4.191
38245W        W39110  20.691  12.615   5.412
38246W        W39111  20.971  12.414   5.811
38247W        W39112  20.176  13.088   5.745
38248W        W39113  20.646  13.462   3.877
38249W        W39114  20.318  11.483   5.205
38250W        W39115  21.797  11.761   4.473
38251W        W39116  18.291  14.350   6.504
38252W        W39117  18.708  13.576   6.036
38253W        W39118  18.275  14.422   4.268
38254W        W39119  20.174  11.692   6.074
38255W        W39120  19.537  13.715   3.923
38256W        W39121  21.442  14.097   4.109
38257W        W39122  20.417  12.750   4.123
38258W        W39123  19.260  11.941   4.640
38259W        W39124  20.092  11.851   3.692
38260W        W39125  20.676  13.416   6.870
38261W        W39126  21.029  11.322   4.487
38262W        W39127  18.359  11.170   3.935
38263W        W39128  19.645  13.489   6.225
38264W        W39129  19.444  13.405   5.317
38265W        W39130  19.186  13.357   3.715
38266W        W39131  18.427  13.598   4.483
38267W        W39132  18.931  12.668   6.925
38268W        W39133  19.635  11.228   7.111
38269W        W39134  20.344  11.370   6.467
38270W        W39135  19.539  11.138   4.748
38271W        W39136  20.598  11.215   4.253
38272W        W39137  18.543  11.147   5.830
38273W        W39138  18.591  12.110   5.200
38274W        W39139  21.280  11.218   5.606
38275W        W39140  18.702  11.716   4.420
38276W        W39141  21.273  11.404   6.036
38277W        W39142  21.669  12.607   3.721
38278W        W39143  18.961  11.365   5.540
38279W        W39144  20.075  11.937   6.480
38280W        W39145  18.223  11.627   3.958
38281W        W39146  19.009  13.016   6.519
38282W        W39147  20.367  12.414   5.698
38283W        W39148  20.234  14.493   3.994
38284W        W39149  18.380  13.000   3.691
38285W        W39150  19.115  13.411   6.817
38286W        W39151  18.636  12.578   6.448
38287W        W39152  19.627  12.683   6.242
38288W        W39153  21.395  11.042   6.504
38289W        W39154  21.793  12.652   6.495
38290W        W39155  21.781  12.852   4.181
38291W        W39156  20.644  13.184   4.280
38292W        W39157  21.118  14.484   3.975
38293W        W39158  20.295  12.474   7.117
38294W        W39159  18.625  13.441   7.157
38295W        W39160  21.831  11.363   7.109
38296W        W39161  21.549  12.291   5.730
38297W        W39162  19.857  14.421   7.207
38298W        W39163  19.712  11.050   3.934
38299W        W39164  21.251  13.649   3.877
38300W        W39165  19.020  11.742   6.763
38301W        W39166  19.454  13.736   6.625
38302W        W39167  21.580  11.727   6.423
38303W        W39168  20.791  14.386   4.391
38304W        W39169  21.030  13.005   5.758
38305W        W39170  19.280  11.421   6.425
38306W        W39171  19.749  12.490   7.182
38307W        W39172  19.252  13.669   4.376
38308W        W39173  21.007  13.167   4.640
38309W        W39174  18.775  11.793   6.364
38310W        W39175  20.104  13.855   4.828
38311W        W39176  21.854  12.415   5.009
38312W        W39177  20.076  11.048   6.728
38313W        W39178  20.856  13.753   5.807
38314W        W39179  21.159  14.097   5.515
38315W        W39180  20.378  13.899   3.943
38316W        W39181  18.388  13.791   6.785
38317W        W39182  19.131  11.783   6.023
38318W        W39183  19.101  11.131   5.133
38319W        W39184  20.722  11.973   5.825
38320W        W39185  19.520  13.144   4.025
38321W        W39186  21.518  13.086   5.524
38322W        W39187  18.845  13.844   6.947
38323W        W39188  21.232  14.526   4.744
38324W        W39189  19.331  11.546   5.189
38325W        W39190  19.100  13.039   5.279
38326W        W39191  19.413  14.450   6.029
38327W        W39192  21.480  14.546   7.061
38328W        W39193  20.639  12.734   5.994
38329W        W39194  18.488  12.532   3.909
38330W        W39195  21.622  14.190   4.606
38331W        W39196  21.459  11.514   4.225
38332W        W39197  19.598  11.033   6.628
38333W        W39198  21.304  13.835   5.086
38334W        W39199  21.333  12.391   4.991
38335W        W39200  19.450  12.064   5.207
38336W        W39201  19.695  12.326   6.531
38337W        W39202  20.806  13.479   6.394
38338W        W39203  19.456  11.933   6.506
38339W        W39204  19.435  14.399   5.122
38340W        W39205  18.752  14.358   6.756
38341W        W39206  18.864  13.719   3.886
38342W        W39207  21.381  13.477   4.696
38343W        W39208  18.985  12.269   6.582
38344W        W39209  21.758  12.199   4.063
38345W        W39210  19.503  13.256   4.534
38346W        W39211  20.602  12.638   6.615
38347W        W39212  20.493  12.266   6.159
38348W        W39213  19.053  12.638   6.188
38349W        W39214  21.263  14.526   6.017
38350W        W39215  21.054  11.160   7.011
38351W        W39216  18.718  11.310   6.598
38352W        W39217  19.057  12.333   5.651
38353W        W39218  19.426  12.147   3.773
38354W        W39219  18.229  13.906   6.318
38355W        W39220  19.814  12.615   5.761
38356W        W39221  19.637  11.640   3.866
38357W        W39222  18.772  12.456   4.647
38358W        W39223  18.543  14.308   6.084
38359W        W39224  21.338  12.534   4.192
38360W        W39225  21.433  11.450   6.878
38361W        W39226  20.869  13.659   4.841
38362W        W39227  18.467  12.583   7.018
38363W        W39228  21.433  11.047   4.314
38364W        W39229  20.953  13.522   4.325
38365W        W39230  19.855  12.580   4.410
38366W        W39231  21.042  11.384   3.933
38367W        W39232  21.107  11.991   6.119
38368W        W39233  18.816  12.584   5.326
38369W        W39234  19.110  13.523   4.975
38370W        W39235  20.873  12.143   4.940
38371W        W39236  19.896  11.522   5.636
38372W        W39237  21.858  13.433   6.147
38373W        W39238  21.776  11.420   5.708
38374W        W39239  18.315  14.250   5.084
38375W        W39240  18.824  13.437   4.620
38376W        W39241  18.739  11.054   7.173
38377W        W39242  19.858  13.907   7.275
38378W        W39243  21.613  12.875   5.065
38379W        W39244  20.967  13.052   3.945
38380W        W39245  20.262  14.573   6.157
38381W        W39246  21.119  13.295   7.194
38382W        W39247  19.934  11.005   4.474
38383W        W39248  20.647  11.874   5.333
38384W        W39249  18.333  13.461   5.665
38385W        W39250  19.586  11.423   4.306
38386W        W39251  19.390  12.907   7.155
38387W        W39252  20.384  11.888   4.869
38388W        W39253  20.589  13.298   5.991
38389W        W39254  18.743  13.903   6.426
38390W        W39255  19.334  13.886   7.149
38391W        W39256  19.185  11.683   4.163
38392W        W39257  20.702  11.825   4.488
38393W        W39258  20.660  13.933   6.725
38394W        W39259  19.345  12.525   5.324
38395W        W39260  19.000  14.223   6.189
38396W        W39261  21.745  14.340   3.790
38397W        W39262  18.608  13.012   6.786
38398W        W39263  20.603  13.274   5.474
38399W        W39264  19.039  12.923   4.716
38400W        W39265  19.410  13.930   6.111
38401W        W39266  19.788  11.349   5.152
38402W        W39267  18.399  13.333   4.082
38403W        W39268  19.918  12.284   3.952
38404W        W39269  18.564  12.833   4.971
38405W        W39270  19.854  11.475   6.435
38406W        W39271  21.526  11.184   3.862
38407W        W39272  21.619  12.930   6.961
38408W        W39273  20.273  14.187   7.113
38409W        W39274  21.831  13.281   6.635
38410W        W39275  21.239  14.079   7.246
38411W        W39276  18.978  14.535   5.724
38412W        W39277  21.837  13.157   4.598
38413W        W39278  20.367  12.424   5.111
38414W        W39279  20.134  11.036   5.001
38415W        W39280  19.193  14.020   4.838
38416W        W39281  19.692  11.761   6.063
38417W        W39282  19.392  11.130   5.532
38418W        W39283  18.455  13.952   4.080
38419W        W39284  20.271  13.316   4.798
38420W        W39285  19.146  14.111   6.677
38421W        W39286  18.623  12.934   4.373
38422W        W39287  18.508  11.477   5.372
38423W        W39288  20.056  13.442   5.429
38424W        W39289  18.308  11.296   4.449
38425W        W39290  20.972  12.502   6.376
38426W        W39291  20.849  11.888   3.948
38427W        W39292  21.366  13.560   5.596
38428W        W39293  20.027  14.044   5.427
38429W        W39294  19.439  14.148   4.338
38430W        W39295  20.721  11.051   3.768
38431W        W39296  18.521  14.311   5.509
38432W        W39297  20.718  12.069   7.144
38433W        W39298  18.701  11.599   7.143
38434W        W39299  18.432  12.199   4.476
38435W        W39300  19.123  12.188   4.201
38436W        W39301  20.886  12.515   7.018
38437W        W39302  19.229  12.796   5.727
38438W        W39303  20.703  11.082   4.847
38439W        W39304  19.834  14.513   5.350
38440W        W39305  21.048  13.975   6.287
38441W        W39306  20.632  14.124   5.398
38442W        W39307  20.651  13.104   4.992
38443W        W39308  20.113  11.329   4.063
38444W        W39309  21.794  10.957   4.785
38445W        W39310  19.482  12.592   3.948
38446W        W39311  21.648  11.929   4.938
38447W        W39312  20.340  13.099   3.815
38448W        W39313  21.276  13.299   6.563
38449W        W39314  20.930  14.000   4.030
38450W        W39315  19.545  11.675   6.936
38451W        W39316  19.365  12.259   6.177
38452W        W39317  21.457  13.754   6.454
38453W        W39318  20.557  11.704   6.831
38454W        W39319  18.401  12.175   6.608
38455W        W39320  20.161  12.652   6.334
38456W        W39321  18.518  13.410   4.991
38457W        W39322  18.665  12.707   5.881
38458W        W39323  20.982  12.993   6.231
38459W        W39324  20.754  14.373   7.042
38460W        W39325  20.650  12.112   6.595
38461W        W39326  20.927  14.166   5.000
38462W        W39327  19.929  13.886   6.323
38463W        W39328  19.414  14.241   5.592
38464W        W39329  21.219  13.412   6.011
38465W        W39330  20.269  13.484   7.148
38466W        W39331  18.874  13.437   5.487
38467W        W39332  21.220  13.196   5.132
38468W        W39333  20.861  14.262   5.883
38469W        W39334  18.839  13.991   5.753
38470W        W39335  19.860  12.043   6.963
38471W        W39336  20.311  14.209   4.474
38472W        W39337  19.619  13.464   7.112
38473W        W39338  19.745  13.702   4.489
38474W        W39339  18.966  12.442   3.748
38475W        W39340  18.305  14.528  10.648
38476W        W39341  18.681  13.421  10.171
38477W        W39342  21.386  13.151   7.941
38478W        W39343  21.516  14.236   9.968
38479W        W39344  19.434  14.227   7.494
38480W        W39345  19.517  12.379   8.477
38481W        W39346  19.032  12.227   8.641
38482W        W39347  20.023  13.042   8.075
38483W        W39348  19.698  14.134  10.430
38484W        W39349  18.347  11.695  10.393
38485W        W39350  19.109  10.975  10.195
38486W        W39351  20.803  11.363   9.082
38487W        W39352  20.452  12.234   7.652
38488W        W39353  21.022  11.668  10.743
38489W        W39354  18.388  11.460   9.868
38490W        W39355  18.487  14.079  10.889
38491W        W39356  20.009  13.469   7.621
38492W        W39357  18.441  12.252   9.314
38493W        W39358  19.334  12.143  10.551
38494W        W39359  21.793  12.002   9.050
38495W        W39360  21.557  13.045   9.909
38496W        W39361  19.865  12.378   8.936
38497W        W39362  20.411  13.717   9.305
38498W        W39363  18.911  13.151   9.537
38499W        W39364  18.270  12.679   9.108
38500W        W39365  19.306  12.651  10.300
38501W        W39366  21.577  12.434  10.554
38502W        W39367  19.193  13.878   8.999
38503W        W39368  20.314  13.567  10.133
38504W        W39369  19.534  12.207   9.358
38505W        W39370  19.826  12.991   9.001
38506W        W39371  20.823  13.764  10.849
38507W        W39372  19.902  13.084  10.859
38508W        W39373  19.883  12.800  10.337
38509W        W39374  18.292  12.191  10.859
38510W        W39375  21.124  13.726  10.458
38511W        W39376  18.705  11.308   8.456
38512W        W39377  19.232  13.566   9.455
38513W        W39378  21.695  13.349   8.745
38514W        W39379  21.108  11.749   9.312
38515W        W39380  21.393  11.702   7.407
38516W        W39381  21.858  12.503   9.713
38517W        W39382  19.825  14.210   9.466
38518W        W39383  21.599  13.676   7.904
38519W        W39384  18.728  14.462   7.658
38520W        W39385  19.121  14.508   8.334
38521W        W39386  18.918  11.262   9.760
38522W        W39387  21.541  12.280  10.035
38523W        W39388  20.946  12.702   8.494
38524W        W39389  20.912  12.390   7.521
38525W        W39390  20.120  13.534   9.661
38526W        W39391  19.926  11.864   8.860
38527W        W39392  20.526  13.951   9.854
38528W        W39393  21.397  12.742   8.276
38529W        W39394  20.299  11.400   8.292
38530W        W39395  18.956  14.094   7.975
38531W        W39396  18.327  11.593   8.574
38532W        W39397  21.113  12.200   9.048
38533W        W39398  18.571  13.817   8.963
38534W        W39399  19.912  14.167   7.833
38535W        W39400  21.304  12.193   7.297
38536W        W39401  18.327  13.951   9.461
38537W        W39402  19.118  13.523   9.941
38538W        W39403  19.491  12.883   8.560
38539W        W39404  19.513  11.288   9.653
38540W        W39405  21.742  11.050   8.950
38541W        W39406  18.961  12.922   7.418
38542W        W39407  18.616  11.955   7.597
38543W        W39408  18.678  13.911   8.391
38544W        W39409  19.809  13.394   8.639
38545W        W39410  21.141  14.253  10.353
38546W        W39411  20.067  11.895   8.037
38547W        W39412  21.450  14.293   8.809
38548W        W39413  21.127  12.146  10.407
38549W        W39414  21.840  13.802   8.541
38550W        W39415  20.467  13.094  10.025
38551W        W39416  18.233  12.645   8.231
38552W        W39417  19.344  13.060   9.804
38553W        W39418  20.548  12.324   8.182
38554W        W39419  20.425  12.814   8.286
38555W        W39420  18.768  12.234   9.760
38556W        W39421  18.753  12.110  10.682
38557W        W39422  18.643  11.027   8.841
38558W        W39423  20.411  11.374   9.402
38559W        W39424  20.059  11.559  10.565
38560W        W39425  20.414  11.708   7.743
38561W        W39426  21.597  14.101  10.497
38562W        W39427  20.564  11.182  10.536
38563W        W39428  21.583  13.483  10.658
38564W        W39429  21.013  11.650  10.254
38565W        W39430  20.813  11.588   8.524
38566W        W39431  21.206  12.722  10.928
38567W        W39432  18.946  14.298   8.914
38568W        W39433  19.604  12.015   7.900
38569W        W39434  19.173  11.299  10.564
38570W        W39435  21.225  11.783   8.245
38571W        W39436  21.592  12.265   8.190
38572W        W39437  19.335  14.482  10.661
38573W        W39438  19.261  11.018   7.896
38574W        W39439  21.582  11.552   8.931
38575W        W39440  21.732  13.801   7.376
38576W        W39441  18.639  13.004   9.078
38577W        W39442  20.556  11.591   7.308
38578W        W39443  21.690  13.923   9.028
38579W        W39444  21.729  11.117   9.778
38580W        W39445  20.174  12.329  10.332
38581W        W39446  20.267  13.668   8.035
38582W        W39447  20.667  12.962  10.775
38583W        W39448  20.341  10.939   9.084
38584W        W39449  18.953  11.842   9.147
38585W        W39450  18.507  13.042   9.921
38586W        W39451  20.366  14.235   8.627
38587W        W39452  21.560  11.832   9.499
38588W        W39453  20.197  14.179  10.266
38589W        W39454  21.540  13.238   7.471
38590W        W39455  19.975  12.721   8.532
38591W        W39456  21.827  11.232  10.273
38592W        W39457  19.976  13.067   9.867
38593W        W39458  20.193  11.953   9.312
38594W        W39459  21.045  12.251   8.150
38595W        W39460  21.332  11.984   7.792
38596W        W39461  21.141  14.024   8.181
38597W        W39462  20.975  13.627   8.977
38598W        W39463  20.871  12.706   7.955
38599W        W39464  20.304  12.916   8.941
38600W        W39465  21.185  12.704   9.008
38601W        W39466  18.560  11.719   9.432
38602W        W39467  21.338  12.771  10.259
38603W        W39468  21.689  14.389   9.405
38604W        W39469  19.619  13.833   8.807
38605W        W39470  20.626  14.366  10.131
38606W        W39471  20.620  11.696   9.895
38607W        W39472  19.827  14.404   9.956
38608W        W39473  21.524  11.358   8.422
38609W        W39474  21.315  12.677   9.723
38610W        W39475  18.298  11.998   9.761
38611W        W39476  21.158  11.793   8.779
38612W        W39477  21.569  11.944  10.556
38613W        W39478  20.454  13.643   8.774
38614W        W39479  19.710  14.234   8.387
38615W        W39480  18.825  11.414   7.645
38616W        W39481  19.929  11.068   9.455
38617W        W39482  18.957  14.188   7.303
38618W        W39483  19.331  12.654   8.054
38619W        W39484  19.985  13.283  10.367
38620W        W39485  19.815  11.641   8.357
38621W        W39486  21.171  11.238   8.785
38622W        W39487  20.891  14.520   9.113
38623W        W39488  20.303  14.168   9.453
38624W        W39489  19.699  13.205   9.414
38625W        W39490  21.469  13.928   9.540
38626W        W39491  19.163  11.431   8.309
38627W        W39492  19.685  13.728   9.269
38628W        W39493  19.168  11.659   7.334
38629W        W39494  19.969  12.268   9.728
38630W        W39495  20.817  11.134   9.598
38631W        W39496  18.237  12.977   9.483
38632W        W39497  19.941  12.795   7.641
38633W        W39498  19.209  11.110   7.411
38634W        W39499  19.947  12.191   8.462
38635W        W39500  20.917  11.167  10.161
38636W        W39501  19.505  13.179  10.270
38637W        W39502  20.309  12.961  10.487
38638W        W39503  20.926  12.991  10.380
38639W        W39504  20.210  11.131  10.885
38640W        W39505  19.432  11.747   9.278
38641W        W39506  18.858  11.703   8.676
38642W        W39507  18.644  14.415   8.352
38643W        W39508  19.976  13.745  10.477
38644W        W39509  19.011  13.230   7.836
38645W        W39510  20.691  12.615   9.057
38646W        W39511  20.971  12.414   9.456
38647W        W39512  20.176  13.088   9.390
38648W        W39513  20.646  13.462   7.522
38649W        W39514  20.318  11.483   8.850
38650W        W39515  21.797  11.761   8.118
38651W        W39516  18.291  14.350  10.149
38652W        W39517  18.708  13.576   9.681
38653W        W39518  18.275  14.422   7.913
38654W        W39519  20.174  11.692   9.719
38655W        W39520  19.537  13.715   7.568
38656W        W39521  21.442  14.097   7.754
38657W        W39522  20.417  12.750   7.768
38658W        W39523  19.260  11.941   8.285
38659W        W39524  20.092  11.851   7.337
38660W        W39525  20.676  13.416  10.515
38661W        W39526  21.029  11.322   8.132
38662W        W39527  18.359  11.170   7.580
38663W        W39528  19.645  13.489   9.870
38664W        W39529  19.444  13.405   8.962
38665W        W39530  19.186  13.357   7.360
38666W        W39531  18.427  13.598   8.128
38667W        W39532  18.931  12.668  10.570
38668W        W39533  19.635  11.228  10.756
38669W        W39534  20.344  11.370  10.112
38670W        W39535  19.539  11.138   8.393
38671W        W39536  20.598  11.215   7.898
38672W        W39537  18.543  11.147   9.475
38673W        W39538  18.591  12.110   8.845
38674W        W39539  21.280  11.218   9.251
38675W        W39540  18.702  11.716   8.065
38676W        W39541  21.273  11.404   9.681
38677W        W39542  21.669  12.607   7.366
38678W        W39543  18.961  11.365   9.185
38679W        W39544  20.075  11.937  10.125
38680W        W39545  18.223  11.627   7.603
38681W        W39546  19.009  13.016  10.164
38682W        W39547  20.367  12.414   9.343
38683W        W39548  20.234  14.493   7.639
38684W        W39549  18.380  13.000   7.336
38685W        W39550  19.115  13.411  10.462
38686W        W39551  18.636  12.578  10.093
38687W        W39552  19.627  12.683   9.887
38688W        W39553  21.395  11.042  10.149
38689W        W39554  21.793  12.652  10.140
38690W        W39555  21.781  12.852   7.826
38691W        W39556  20.644  13.184   7.925
38692W        W39557  21.118  14.484   7.620
38693W        W39558  20.295  12.474  10.762
38694W        W39559  18.625  13.441  10.802
38695W        W39560  21.831  11.363  10.754
38696W        W39561  21.549  12.291   9.375
38697W        W39562  19.857  14.421  10.852
38698W        W39563  19.712  11.050   7.579
38699W        W39564  21.251  13.649   7.522
38700W        W39565  19.020  11.742  10.408
38701W        W39566  19.454  13.736  10.270
38702W        W39567  21.580  11.727  10.068
38703W        W39568  20.791  14.386   8.036
38704W        W39569  21.030  13.005   9.403
38705W        W39570  19.280  11.421  10.070
38706W        W39571  19.749  12.490  10.827
38707W        W39572  19.252  13.669   8.021
38708W        W39573  21.007  13.167   8.285
38709W        W39574  18.775  11.793  10.009
38710W        W39575  20.104  13.855   8.473
38711W        W39576  21.854  12.415   8.654
38712W        W39577  20.076  11.048  10.373
38713W        W39578  20.856  13.753   9.452
38714W        W39579  21.159  14.097   9.160
38715W        W39580  20.378  13.899   7.588
38716W        W39581  18.388  13.791  10.430
38717W        W39582  19.131  11.783   9.668
38718W        W39583  19.101  11.131   8.778
38719W        W39584  20.722  11.973   9.470
38720W        W39585  19.520  13.144   7.670
38721W        W39586  21.518  13.086   9.169
38722W        W39587  18.845  13.844  10.592
38723W        W39588  21.232  14.526   8.389
38724W        W39589  19.331  11.546   8.834
38725W        W39590  19.100  13.039   8.924
38726W        W39591  19.413  14.450   9.674
38727W        W39592  21.480  14.546  10.706
38728W        W39593  20.639  12.734   9.639
38729W        W39594  18.488  12.532   7.554
38730W        W39595  21.622  14.190   8.251
38731W        W39596  21.459  11.514   7.870
38732W        W39597  19.598  11.033  10.273
38733W        W39598  21.304  13.835   8.731
38734W        W39599  21.333  12.391   8.636
38735W        W39600  19.450  12.064   8.852
38736W        W39601  19.695  12.326  10.176
38737W        W39602  20.806  13.479  10.039
38738W        W39603  19.456  11.933  10.151
38739W        W39604  19.435  14.399   8.767
38740W        W39605  18.752  14.358  10.401
38741W        W39606  18.864  13.719   7.531
38742W        W39607  21.381  13.477   8.341
38743W        W39608  18.985  12.269  10.227
38744W        W39609  21.758  12.199   7.708
38745W        W39610  19.503  13.256   8.179
38746W        W39611  20.602  12.638  10.260
38747W        W39612  20.493  12.266   9.804
38748W        W39613  19.053  12.638   9.833
38749W        W39614  21.263  14.526   9.662
38750W        W39615  21.054  11.160  10.656
38751W        W39616  18.718  11.310  10.243
38752W        W39617  19.057  12.333   9.296
38753W        W39618  19.426  12.147   7.418
38754W        W39619  18.229  13.906   9.963
38755W        W39620  19.814  12.615   9.406
38756W        W39621  19.637  11.640   7.511
38757W        W39622  18.772  12.456   8.292
38758W        W39623  18.543  14.308   9.729
38759W        W39624  21.338  12.534   7.837
38760W        W39625  21.433  11.450  10.523
38761W        W39626  20.869  13.659   8.486
38762W        W39627  18.467  12.583  10.663
38763W        W39628  21.433  11.047   7.959
38764W        W39629  20.953  13.522   7.970
38765W        W39630  19.855  12.580   8.055
38766W        W39631  21.042  11.384   7.578
38767W        W39632  21.107  11.991   9.764
38768W        W39633  18.816  12.584   8.971
38769W        W39634  19.110  13.523   8.620
38770W        W39635  20.873  12.143   8.585
38771W        W39636  19.896  11.522   9.281
38772W        W39637  21.858  13.433   9.792
38773W        W39638  21.776  11.420   9.353
38774W        W39639  18.315  14.250   8.729
38775W        W39640  18.824  13.437   8.265
38776W        W39641  18.739  11.054  10.818
38777W        W39642  19.858  13.907  10.920
38778W        W39643  21.613  12.875   8.710
38779W        W39644  20.967  13.052   7.590
38780W        W39645  20.262  14.573   9.802
38781W        W39646  21.119  13.295  10.839
38782W        W39647  19.934  11.005   8.119
38783W        W39648  20.647  11.874   8.978
38784W        W39649  18.333  13.461   9.310
38785W        W39650  19.586  11.423   7.951
38786W        W39651  19.390  12.907  10.800
38787W        W39652  20.384  11.888   8.514
38788W        W39653  20.589  13.298   9.636
38789W        W39654  18.743  13.903  10.071
38790W        W39655  19.334  13.886  10.794
38791W        W39656  19.185  11.683   7.808
38792W        W39657  20.702  11.825   8.133
38793W        W39658  20.660  13.933  10.370
38794W        W39659  19.345  12.525   8.969
38795W        W39660  19.000  14.223   9.834
38796W        W39661  21.745  14.340   7.435
38797W        W39662  18.608  13.012  10.431
38798W        W39663  20.603  13.274   9.119
38799W        W39664  19.039  12.923   8.361
38800W        W39665  19.410  13.930   9.756
38801W        W39666  19.788  11.349   8.797
38802W        W39667  18.399  13.333   7.727
38803W        W39668  19.918  12.284   7.597
38804W        W39669  18.564  12.833   8.616
38805W        W39670  19.854  11.475  10.080
38806W        W39671  21.526  11.184   7.507
38807W        W39672  21.619  12.930  10.606
38808W        W39673  20.273  14.187  10.758
38809W        W39674  21.831  13.281  10.280
38810W        W39675  21.239  14.079  10.891
38811W        W39676  18.978  14.535   9.369
38812W        W39677  21.837  13.157   8.243
38813W        W39678  20.367  12.424   8.756
38814W        W39679  20.134  11.036   8.646
38815W        W39680  19.193  14.020   8.483
38816W        W39681  19.692  11.761   9.708
38817W        W39682  19.392  11.130   9.177
38818W        W39683  18.455  13.952   7.725
38819W        W39684  20.271  13.316   8.443
38820W        W39685  19.146  14.111  10.322
38821W        W39686  18.623  12.934   8.018
38822W        W39687  18.508  11.477   9.017
38823W        W39688  20.056  13.442   9.074
38824W        W39689  18.308  11.296   8.094
38825W        W39690  20.972  12.502  10.021
38826W        W39691  20.849  11.888   7.593
38827W        W39692  21.366  13.560   9.241
38828W        W39693  20.027  14.044   9.072
38829W        W39694  19.439  14.148   7.983
38830W        W39695  20.721  11.051   7.413
38831W        W39696  18.521  14.311   9.154
38832W        W39697  20.718  12.069  10.789
38833W        W39698  18.701  11.599  10.788
38834W        W39699  18.432  12.199   8.121
38835W        W39700  19.123  12.188   7.846
38836W        W39701  20.886  12.515  10.663
38837W        W39702  19.229  12.796   9.372
38838W        W39703  20.703  11.082   8.492
38839W        W39704  19.834  14.513   8.995
38840W        W39705  21.048  13.975   9.932
38841W        W39706  20.632  14.124   9.043
38842W        W39707  20.651  13.104   8.637
38843W        W39708  20.113  11.329   7.708
38844W        W39709  21.794  10.957   8.430
38845W        W39710  19.482  12.592   7.593
38846W        W39711  21.648  11.929   8.583
38847W        W39712  20.340  13.099   7.460
38848W        W39713  21.276  13.299  10.208
38849W        W39714  20.930  14.000   7.675
38850W        W39715  19.545  11.675  10.581
38851W        W39716  19.365  12.259   9.822
38852W        W39717  21.457  13.754  10.099
38853W        W39718  20.557  11.704  10.476
38854W        W39719  18.401  12.175  10.253
38855W        W39720  20.161  12.652   9.979
38856W        W39721  18.518  13.410   8.636
38857W        W39722  18.665  12.707   9.526
38858W        W39723  20.982  12.993   9.876
38859W        W39724  20.754  14.373  10.687
38860W        W39725  20.650  12.112  10.240
38861W        W39726  20.927  14.166   8.645
38862W        W39727  19.929  13.886   9.968
38863W        W39728  19.414  14.241   9.237
38864W        W39729  21.219  13.412   9.656
38865W        W39730  20.269  13.484  10.793
38866W        W39731  18.874  13.437   9.132
38867W        W39732  21.220  13.196   8.777
38868W        W39733  20.861  14.262   9.528
38869W        W39734  18.839  13.991   9.398
38870W        W39735  19.860  12.043  10.608
38871W        W39736  20.311  14.209   8.119
38872W        W39737  19.619  13.464  10.757
38873W        W39738  19.745  13.702   8.134
38874W        W39739  18.966  12.442   7.393
38875W        W39740  18.305  14.528  14.292
38876W        W39741  18.681  13.421  13.815
38877W        W39742  21.386  13.151  11.585
38878W        W39743  21.516  14.236  13.612
38879W        W39744  19.434  14.227  11.138
38880W        W39745  19.517  12.379  12.121
38881W        W39746  19.032  12.227  12.285
38882W        W39747  20.023  13.042  11.719
38883W        W39748  19.698  14.134  14.074
38884W        W39749  18.347  11.695  14.037
38885W        W39750  19.109  10.975  13.839
38886W        W39751  20.803  11.363  12.726
38887W        W39752  20.452  12.234  11.296
38888W        W39753  21.022  11.668  14.387
38889W        W39754  18.388  11.460  13.512
38890W        W39755  18.487  14.079  14.533
38891W        W39756  20.009  13.469  11.265
38892W        W39757  18.441  12.252  12.958
38893W        W39758  19.334  12.143  14.195
38894W        W39759  21.793  12.002  12.694
38895W        W39760  21.557  13.045  13.553
38896W        W39761  19.865  12.378  12.580
38897W        W39762  20.411  13.717  12.949
38898W        W39763  18.911  13.151  13.181
38899W        W39764  18.270  12.679  12.752
38900W        W39765  19.306  12.651  13.944
38901W        W39766  21.577  12.434  14.198
38902W        W39767  19.193  13.878  12.643
38903W        W39768  20.314  13.567  13.777
38904W        W39769  19.534  12.207  13.002
38905W        W39770  19.826  12.991  12.645
38906W        W39771  20.823  13.764  14.493
38907W        W39772  19.902  13.084  14.503
38908W        W39773  19.883  12.800  13.981
38909W        W39774  18.292  12.191  14.503
38910W        W39775  21.124  13.726  14.102
38911W        W39776  18.705  11.308  12.100
38912W        W39777  19.232  13.566  13.099
38913W        W39778  21.695  13.349  12.389
38914W        W39779  21.108  11.749  12.956
38915W        W39780  21.393  11.702  11.051
38916W        W39781  21.858  12.503  13.357
38917W        W39782  19.825  14.210  13.110
38918W        W39783  21.599  13.676  11.548
38919W        W39784  18.728  14.462  11.302
38920W        W39785  19.121  14.508  11.978
38921W        W39786  18.918  11.262  13.404
38922W        W39787  21.541  12.280  13.679
38923W        W39788  20.946  12.702  12.138
38924W        W39789  20.912  12.390  11.165
38925W        W39790  20.120  13.534  13.305
38926W        W39791  19.926  11.864  12.504
38927W        W39792  20.526  13.951  13.498
38928W        W39793  21.397  12.742  11.920
38929W        W39794  20.299  11.400  11.936
38930W        W39795  18.956  14.094  11.619
38931W        W39796  18.327  11.593  12.218
38932W        W39797  21.113  12.200  12.692
38933W        W39798  18.571  13.817  12.607
38934W        W39799  19.912  14.167  11.477
38935W        W39800  21.304  12.193  10.941
38936W        W39801  18.327  13.951  13.105
38937W        W39802  19.118  13.523  13.585
38938W        W39803  19.491  12.883  12.204
38939W        W39804  19.513  11.288  13.297
38940W        W39805  21.742  11.050  12.594
38941W        W39806  18.961  12.922  11.062
38942W        W39807  18.616  11.955  11.241
38943W        W39808  18.678  13.911  12.035
38944W        W39809  19.809  13.394  12.283
38945W        W39810  21.141  14.253  13.997
38946W        W39811  20.067  11.895  11.681
38947W        W39812  21.450  14.293  12.453
38948W        W39813  21.127  12.146  14.051
38949W        W39814  21.840  13.802  12.185
38950W        W39815  20.467  13.094  13.669
38951W        W39816  18.233  12.645  11.875
38952W        W39817  19.344  13.060  13.448
38953W        W39818  20.548  12.324  11.826
38954W        W39819  20.425  12.814  11.930
38955W        W39820  18.768  12.234  13.404
38956W        W39821  18.753  12.110  14.326
38957W        W39822  18.643  11.027  12.485
38958W        W39823  20.411  11.374  13.046
38959W        W39824  20.059  11.559  14.209
38960W        W39825  20.414  11.708  11.387
38961W        W39826  21.597  14.101  14.141
38962W        W39827  20.564  11.182  14.180
38963W        W39828  21.583  13.483  14.302
38964W        W39829  21.013  11.650  13.898
38965W        W39830  20.813  11.588  12.168
38966W        W39831  21.206  12.722  14.572
38967W        W39832  18.946  14.298  12.558
38968W        W39833  19.604  12.015  11.544
38969W        W39834  19.173  11.299  14.208
38970W        W39835  21.225  11.783  11.889
38971W        W39836  21.592  12.265  11.834
38972W        W39837  19.335  14.482  14.305
38973W        W39838  19.261  11.018  11.540
38974W        W39839  21.582  11.552  12.575
38975W        W39840  21.732  13.801  11.020
38976W        W39841  18.639  13.004  12.722
38977W        W39842  20.556  11.591  10.952
38978W        W39843  21.690  13.923  12.672
38979W        W39844  21.729  11.117  13.422
38980W        W39845  20.174  12.329  13.976
38981W        W39846  20.267  13.668  11.679
38982W        W39847  20.667  12.962  14.419
38983W        W39848  20.341  10.939  12.728
38984W        W39849  18.953  11.842  12.791
38985W        W39850  18.507  13.042  13.565
38986W        W39851  20.366  14.235  12.271
38987W        W39852  21.560  11.832  13.143
38988W        W39853  20.197  14.179  13.910
38989W        W39854  21.540  13.238  11.115
38990W        W39855  19.975  12.721  12.176
38991W        W39856  21.827  11.232  13.917
38992W        W39857  19.976  13.067  13.511
38993W        W39858  20.193  11.953  12.956
38994W        W39859  21.045  12.251  11.794
38995W        W39860  21.332  11.984  11.436
38996W        W39861  21.141  14.024  11.825
38997W        W39862  20.975  13.627  12.621
38998W        W39863  20.871  12.706  11.599
38999W        W39864  20.304  12.916  12.585
39000W        W39865  21.185  12.704  12.652
39001W        W39866  18.560  11.719  13.076
39002W        W39867  21.338  12.771  13.903
39003W        W39868  21.689  14.389  13.049
39004W        W39869  19.619  13.833  12.451
39005W        W39870  20.626  14.366  13.775
39006W        W39871  20.620  11.696  13.539
39007W        W39872  19.827  14.404  13.600
39008W        W39873  21.524  11.358  12.066
39009W        W39874  21.315  12.677  13.367
39010W        W39875  18.298  11.998  13.405
39011W        W39876  21.158  11.793  12.423
39012W        W39877  21.569  11.944  14.200
39013W        W39878  20.454  13.643  12.418
39014W        W39879  19.710  14.234  12.031
39015W        W39880  18.825  11.414  11.289
39016W        W39881  19.929  11.068  13.099
39017W        W39882  18.957  14.188  10.947
39018W        W39883  19.331  12.654  11.698
39019W        W39884  19.985  13.283  14.011
39020W        W39885  19.815  11.641  12.001
39021W        W39886  21.171  11.238  12.429
39022W        W39887  20.891  14.520  12.757
39023W        W39888  20.303  14.168  13.097
39024W        W39889  19.699  13.205  13.058
39025W        W39890  21.469  13.928  13.184
39026W        W39891  19.163  11.431  11.953
39027W        W39892  19.685  13.728  12.913
39028W        W39893  19.168  11.659  10.978
39029W        W39894  19.969  12.268  13.372
39030W        W39895  20.817  11.134  13.242
39031W        W39896  18.237  12.977  13.127
39032W        W39897  19.941  12.795  11.285
39033W        W39898  19.209  11.110  11.055
39034W        W39899  19.947  12.191  12.106
39035W        W39900  20.917  11.167  13.805
39036W        W39901  19.505  13.179  13.914
39037W        W39902  20.309  12.961  14.131
39038W        W39903  20.926  12.991  14.024
39039W        W39904  20.210  11.131  14.529
39040W        W39905  19.432  11.747  12.922
39041W        W39906  18.858  11.703  12.320
39042W        W39907  18.644  14.415  11.996
39043W        W39908  19.976  13.745  14.121
39044W        W39909  19.011  13.230  11.480
39045W        W39910  20.691  12.615  12.701
39046W        W39911  20.971  12.414  13.100
39047W        W39912  20.176  13.088  13.034
39048W        W39913  20.646  13.462  11.166
39049W        W39914  20.318  11.483  12.494
39050W        W39915  21.797  11.761  11.762
39051W        W39916  18.291  14.350  13.793
39052W        W39917  18.708  13.576  13.325
39053W        W39918  18.275  14.422  11.557
39054W        W39919  20.174  11.692  13.363
39055W        W39920  19.537  13.715  11.212
39056W        W39921  21.442  14.097  11.398
39057W        W39922  20.417  12.750  11.412
39058W        W39923  19.260  11.941  11.929
39059W        W39924  20.092  11.851  10.981
39060W        W39925  20.676  13.416  14.159
39061W        W39926  21.029  11.322  11.776
39062W        W39927  18.359  11.170  11.224
39063W        W39928  19.645  13.489  13.514
39064W        W39929  19.444  13.405  12.606
39065W        W39930  19.186  13.357  11.004
39066W        W39931  18.427  13.598  11.772
39067W        W39932  18.931  12.668  14.214
39068W        W39933  19.635  11.228  14.400
39069W        W39934  20.344  11.370  13.756
39070W        W39935  19.539  11.138  12.037
39071W        W39936  20.598  11.215  11.542
39072W        W39937  18.543  11.147  13.119
39073W        W39938  18.591  12.110  12.489
39074W        W39939  21.280  11.218  12.895
39075W        W39940  18.702  11.716  11.709
39076W        W39941  21.273  11.404  13.325
39077W        W39942  21.669  12.607  11.010
39078W        W39943  18.961  11.365  12.829
39079W        W39944  20.075  11.937  13.769
39080W        W39945  18.223  11.627  11.247
39081W        W39946  19.009  13.016  13.808
39082W        W39947  20.367  12.414  12.987
39083W        W39948  20.234  14.493  11.283
39084W        W39949  18.380  13.000  10.980
39085W        W39950  19.115  13.411  14.106
39086W        W39951  18.636  12.578  13.737
39087W        W39952  19.627  12.683  13.531
39088W        W39953  21.395  11.042  13.793
39089W        W39954  21.793  12.652  13.784
39090W        W39955  21.781  12.852  11.470
39091W        W39956  20.644  13.184  11.569
39092W        W39957  21.118  14.484  11.264
39093W        W39958  20.295  12.474  14.406
39094W        W39959  18.625  13.441  14.446
39095W        W39960  21.831  11.363  14.398
39096W        W39961  21.549  12.291  13.019
39097W        W39962  19.857  14.421  14.496
39098W        W39963  19.712  11.050  11.223
39099W        W39964  21.251  13.649  11.166
39100W        W39965  19.020  11.742  14.052
39101W        W39966  19.454  13.736  13.914
39102W        W39967  21.580  11.727  13.712
39103W        W39968  20.791  14.386  11.680
39104W        W39969  21.030  13.005  13.047
39105W        W39970  19.280  11.421  13.714
39106W        W39971  19.749  12.490  14.471
39107W        W39972  19.252  13.669  11.665
39108W        W39973  21.007  13.167  11.929
39109W        W39974  18.775  11.793  13.653
39110W        W39975  20.104  13.855  12.117
39111W        W39976  21.854  12.415  12.298
39112W        W39977  20.076  11.048  14.017
39113W        W39978  20.856  13.753  13.096
39114W        W39979  21.159  14.097  12.804
39115W        W39980  20.378  13.899  11.232
39116W        W39981  18.388  13.791  14.074
39117W        W39982  19.131  11.783  13.312
39118W        W39983  19.101  11.131  12.422
39119W        W39984  20.722  11.973  13.114
39120W        W39985  19.520  13.144  11.314
39121W        W39986  21.518  13.086  12.813
39122W        W39987  18.845  13.844  14.236
39123W        W39988  21.232  14.526  12.033
39124W        W39989  19.331  11.546  12.478
39125W        W39990  19.100  13.039  12.568
39126W        W39991  19.413  14.450  13.318
39127W        W39992  21.480  14.546  14.350
39128W        W39993  20.639  12.734  13.283
39129W        W39994  18.488  12.532  11.198
39130W        W39995  21.622  14.190  11.895
39131W        W39996  21.459  11.514  11.514
39132W        W39997  19.598  11.033  13.917
39133W        W39998  21.304  13.835  12.375
39134W        W39999  21.333  12.391  12.280
39135W        W40000  19.450  12.064  12.496
39136W        W40001  19.695  12.326  13.820
39137W        W40002  20.806  13.479  13.683
39138W        W40003  19.456  11.933  13.795
39139W        W40004  19.435  14.399  12.411
39140W        W40005  18.752  14.358  14.045
39141W        W40006  18.864  13.719  11.175
39142W        W40007  21.381  13.477  11.985
39143W        W40008  18.985  12.269  13.871
39144W        W40009  21.758  12.199  11.352
39145W        W40010  19.503  13.256  11.823
39146W        W40011  20.602  12.638  13.904
39147W        W40012  20.493  12.266  13.448
39148W        W40013  19.053  12.638  13.477
39149W        W40014  21.263  14.526  13.306
39150W        W40015  21.054  11.160  14.300
39151W        W40016  18.718  11.310  13.887
39152W        W40017  19.057  12.333  12.940
39153W        W40018  19.426  12.147  11.062
39154W        W40019  18.229  13.906  13.607
39155W        W40020  19.814  12.615  13.050
39156W        W40021  19.637  11.640  11.155
39157W        W40022  18.772  12.456  11.936
39158W        W40023  18.543  14.308  13.373
39159W        W40024  21.338  12.534  11.481
39160W        W40025  21.433  11.450  14.167
39161W        W40026  20.869  13.659  12.130
39162W        W40027  18.467  12.583  14.307
39163W        W40028  21.433  11.047  11.603
39164W        W40029  20.953  13.522  11.614
39165W        W40030  19.855  12.580  11.699
39166W        W40031  21.042  11.384  11.222
39167W        W40032  21.107  11.991  13.408
39168W        W40033  18.816  12.584  12.615
39169W        W40034  19.110  13.523  12.264
39170W        W40035  20.873  12.143  12.229
39171W        W40036  19.896  11.522  12.925
39172W        W40037  21.858  13.433  13.436
39173W        W40038  21.776  11.420  12.997
39174W        W40039  18.315  14.250  12.373
39175W        W40040  18.824  13.437  11.909
39176W        W40041  18.739  11.054  14.462
39177W        W40042  19.858  13.907  14.564
39178W        W40043  21.613  12.875  12.354
39179W        W40044  20.967  13.052  11.234
39180W        W40045  20.262  14.573  13.446
39181W        W40046  21.119  13.295  14.483
39182W        W40047  19.934  11.005  11.763
39183W        W40048  20.647  11.874  12.622
39184W        W40049  18.333  13.461  12.954
39185W        W40050  19.586  11.423  11.595
39186W        W40051  19.390  12.907  14.444
39187W        W40052  20.384  11.888  12.158
39188W        W40053  20.589  13.298  13.280
39189W        W40054  18.743  13.903  13.715
39190W        W40055  19.334  13.886  14.438
39191W        W40056  19.185  11.683  11.452
39192W        W40057  20.702  11.825  11.777
39193W        W40058  20.660  13.933  14.014
39194W        W40059  19.345  12.525  12.613
39195W        W40060  19.000  14.223  13.478
39196W        W40061  21.745  14.340  11.079
39197W        W40062  18.608  13.012  14.075
39198W        W40063  20.603  13.274  12.763
39199W        W40064  19.039  12.923  12.005
39200W        W40065  19.410  13.930  13.400
39201W        W40066  19.788  11.349  12.441
39202W        W40067  18.399  13.333  11.371
39203W        W40068  19.918  12.284  11.241
39204W        W40069  18.564  12.833  12.260
39205W        W40070  19.854  11.475  13.724
39206W        W40071  21.526  11.184  11.151
39207W        W40072  21.619  12.930  14.250
39208W        W40073  20.273  14.187  14.402
39209W        W40074  21.831  13.281  13.924
39210W        W40075  21.239  14.079  14.535
39211W        W40076  18.978  14.535  13.013
39212W        W40077  21.837  13.157  11.887
39213W        W40078  20.367  12.424  12.400
39214W        W40079  20.134  11.036  12.290
39215W        W40080  19.193  14.020  12.127
39216W        W40081  19.692  11.761  13.352
39217W        W40082  19.392  11.130  12.821
39218W        W40083  18.455  13.952  11.369
39219W        W40084  20.271  13.316  12.087
39220W        W40085  19.146  14.111  13.966
39221W        W40086  18.623  12.934  11.662
39222W        W40087  18.508  11.477  12.661
39223W        W40088  20.056  13.442  12.718
39224W        W40089  18.308  11.296  11.738
39225W        W40090  20.972  12.502  13.665
39226W        W40091  20.849  11.888  11.237
39227W        W40092  21.366  13.560  12.885
39228W        W40093  20.027  14.044  12.716
39229W        W40094  19.439  14.148  11.627
39230W        W40095  20.721  11.051  11.057
39231W        W40096  18.521  14.311  12.798
39232W        W40097  20.718  12.069  14.433
39233W        W40098  18.701  11.599  14.432
39234W        W40099  18.432  12.199  11.765
39235W        W40100  19.123  12.188  11.490
39236W        W40101  20.886  12.515  14.307
39237W        W40102  19.229  12.796  13.016
39238W        W40103  20.703  11.082  12.136
39239W        W40104  19.834  14.513  12.639
39240W        W40105  21.048  13.975  13.576
39241W        W40106  20.632  14.124  12.687
39242W        W40107  20.651  13.104  12.281
39243W        W40108  20.113  11.329  11.352
39244W        W40109  21.794  10.957  12.074
39245W        W40110  19.482  12.592  11.237
39246W        W40111  21.648  11.929  12.227
39247W        W40112  20.340  13.099  11.104
39248W        W40113  21.276  13.299  13.852
39249W        W40114  20.930  14.000  11.319
39250W        W40115  19.545  11.675  14.225
39251W        W40116  19.365  12.259  13.466
39252W        W40117  21.457  13.754  13.743
39253W        W40118  20.557  11.704  14.120
39254W        W40119  18.401  12.175  13.897
39255W        W40120  20.161  12.652  13.623
39256W        W40121  18.518  13.410  12.280
39257W        W40122  18.665  12.707  13.170
39258W        W40123  20.982  12.993  13.520
39259W        W40124  20.754  14.373  14.331
39260W        W40125  20.650  12.112  13.884
39261W        W40126  20.927  14.166  12.289
39262W        W40127  19.929  13.886  13.612
39263W        W40128  19.414  14.241  12.881
39264W        W40129  21.219  13.412  13.300
39265W        W40130  20.269  13.484  14.437
39266W        W40131  18.874  13.437  12.776
39267W        W40132  21.220  13.196  12.421
39268W        W40133  20.861  14.262  13.172
39269W        W40134  18.839  13.991  13.042
39270W        W40135  19.860  12.043  14.252
39271W        W40136  20.311  14.209  11.763
39272W        W40137  19.619  13.464  14.401
39273W        W40138  19.745  13.702  11.778
39274W        W40139  18.966  12.442  11.037
39275W        W40140  18.305  14.528  17.936
39276W        W40141  18.681  13.421  17.459
39277W        W40142  21.386  13.151  15.229
39278W        W40143  21.516  14.236  17.256
39279W        W40144  19.434  14.227  14.782
39280W        W40145  19.517  12.379  15.765
39281W        W40146  19.032  12.227  15.929
39282W        W40147  20.023  13.042  15.363
39283W        W40148  19.698  14.134  17.718
39284W        W40149  18.347  11.695  17.681
39285W        W40150  19.109  10.975  17.483
39286W        W40151  20.803  11.363  16.370
39287W        W40152  20.452  12.234  14.940
39288W        W40153  21.022  11.668  18.031
39289W        W40154  18.388  11.460  17.156
39290W        W40155  18.487  14.079  18.177
39291W        W40156  20.009  13.469  14.909
39292W        W40157  18.441  12.252  16.602
39293W        W40158  19.334  12.143  17.839
39294W        W40159  21.793  12.002  16.338
39295W        W40160  21.557  13.045  17.197
39296W        W40161  19.865  12.378  16.224
39297W        W40162  20.411  13.717  16.593
39298W        W40163  18.911  13.151  16.825
39299W        W40164  18.270  12.679  16.396
39300W        W40165  19.306  12.651  17.588
39301W        W40166  21.577  12.434  17.842
39302W        W40167  19.193  13.878  16.287
39303W        W40168  20.314  13.567  17.421
39304W        W40169  19.534  12.207  16.646
39305W        W40170  19.826  12.991  16.289
39306W        W40171  20.823  13.764  18.137
39307W        W40172  19.902  13.084  18.147
39308W        W40173  19.883  12.800  17.625
39309W        W40174  18.292  12.191  18.147
39310W        W40175  21.124  13.726  17.746
39311W        W40176  18.705  11.308  15.744
39312W        W40177  19.232  13.566  16.743
39313W        W40178  21.695  13.349  16.033
39314W        W40179  21.108  11.749  16.600
39315W        W40180  21.393  11.702  14.695
39316W        W40181  21.858  12.503  17.001
39317W        W40182  19.825  14.210  16.754
39318W        W40183  21.599  13.676  15.192
39319W        W40184  18.728  14.462  14.946
39320W        W40185  19.121  14.508  15.622
39321W        W40186  18.918  11.262  17.048
39322W        W40187  21.541  12.280  17.323
39323W        W40188  20.946  12.702  15.782
39324W        W40189  20.912  12.390  14.809
39325W        W40190  20.120  13.534  16.949
39326W        W40191  19.926  11.864  16.148
39327W        W40192  20.526  13.951  17.142
39328W        W40193  21.397  12.742  15.564
39329W        W40194  20.299  11.400  15.580
39330W        W40195  18.956  14.094  15.263
39331W        W40196  18.327  11.593  15.862
39332W        W40197  21.113  12.200  16.336
39333W        W40198  18.571  13.817  16.251
39334W        W40199  19.912  14.167  15.121
39335W        W40200  21.304  12.193  14.585
39336W        W40201  18.327  13.951  16.749
39337W        W40202  19.118  13.523  17.229
39338W        W40203  19.491  12.883  15.848
39339W        W40204  19.513  11.288  16.941
39340W        W40205  21.742  11.050  16.238
39341W        W40206  18.961  12.922  14.706
39342W        W40207  18.616  11.955  14.885
39343W        W40208  18.678  13.911  15.679
39344W        W40209  19.809  13.394  15.927
39345W        W40210  21.141  14.253  17.641
39346W        W40211  20.067  11.895  15.325
39347W        W40212  21.450  14.293  16.097
39348W        W40213  21.127  12.146  17.695
39349W        W40214  21.840  13.802  15.829
39350W        W40215  20.467  13.094  17.313
39351W        W40216  18.233  12.645  15.519
39352W        W40217  19.344  13.060  17.092
39353W        W40218  20.548  12.324  15.470
39354W        W40219  20.425  12.814  15.574
39355W        W40220  18.768  12.234  17.048
39356W        W40221  18.753  12.110  17.970
39357W        W40222  18.643  11.027  16.129
39358W        W40223  20.411  11.374  16.690
39359W        W40224  20.059  11.559  17.853
39360W        W40225  20.414  11.708  15.031
39361W        W40226  21.597  14.101  17.785
39362W        W40227  20.564  11.182  17.824
39363W        W40228  21.583  13.483  17.946
39364W        W40229  21.013  11.650  17.542
39365W        W40230  20.813  11.588  15.812
39366W        W40231  21.206  12.722  18.216
39367W        W40232  18.946  14.298  16.202
39368W        W40233  19.604  12.015  15.188
39369W        W40234  19.173  11.299  17.852
39370W        W40235  21.225  11.783  15.533
39371W        W40236  21.592  12.265  15.478
39372W        W40237  19.335  14.482  17.949
39373W        W40238  19.261  11.018  15.184
39374W        W40239  21.582  11.552  16.219
39375W        W40240  21.732  13.801  14.664
39376W        W40241  18.639  13.004  16.366
39377W        W40242  20.556  11.591  14.596
39378W        W40243  21.690  13.923  16.316
39379W        W40244  21.729  11.117  17.066
39380W        W40245  20.174  12.329  17.620
39381W        W40246  20.267  13.668  15.323
39382W        W40247  20.667  12.962  18.063
39383W        W40248  20.341  10.939  16.372
39384W        W40249  18.953  11.842  16.435
39385W        W40250  18.507  13.042  17.209
39386W        W40251  20.366  14.235  15.915
39387W        W40252  21.560  11.832  16.787
39388W        W40253  20.197  14.179  17.554
39389W        W40254  21.540  13.238  14.759
39390W        W40255  19.975  12.721  15.820
39391W        W40256  21.827  11.232  17.561
39392W        W40257  19.976  13.067  17.155
39393W        W40258  20.193  11.953  16.600
39394W        W40259  21.045  12.251  15.438
39395W        W40260  21.332  11.984  15.080
39396W        W40261  21.141  14.024  15.469
39397W        W40262  20.975  13.627  16.265
39398W        W40263  20.871  12.706  15.243
39399W        W40264  20.304  12.916  16.229
39400W        W40265  21.185  12.704  16.296
39401W        W40266  18.560  11.719  16.720
39402W        W40267  21.338  12.771  17.547
39403W        W40268  21.689  14.389  16.693
39404W        W40269  19.619  13.833  16.095
39405W        W40270  20.626  14.366  17.419
39406W        W40271  20.620  11.696  17.183
39407W        W40272  19.827  14.404  17.244
39408W        W40273  21.524  11.358  15.710
39409W        W40274  21.315  12.677  17.011
39410W        W40275  18.298  11.998  17.049
39411W        W40276  21.158  11.793  16.067
39412W        W40277  21.569  11.944  17.844
39413W        W40278  20.454  13.643  16.062
39414W        W40279  19.710  14.234  15.675
39415W        W40280  18.825  11.414  14.933
39416W        W40281  19.929  11.068  16.743
39417W        W40282  18.957  14.188  14.591
39418W        W40283  19.331  12.654  15.342
39419W        W40284  19.985  13.283  17.655
39420W        W40285  19.815  11.641  15.645
39421W        W40286  21.171  11.238  16.073
39422W        W40287  20.891  14.520  16.401
39423W        W40288  20.303  14.168  16.741
39424W        W40289  19.699  13.205  16.702
39425W        W40290  21.469  13.928  16.828
39426W        W40291  19.163  11.431  15.597
39427W        W40292  19.685  13.728  16.557
39428W        W40293  19.168  11.659  14.622
39429W        W40294  19.969  12.268  17.016
39430W        W40295  20.817  11.134  16.886
39431W        W40296  18.237  12.977  16.771
39432W        W40297  19.941  12.795  14.929
39433W        W40298  19.209  11.110  14.699
39434W        W40299  19.947  12.191  15.750
39435W        W40300  20.917  11.167  17.449
39436W        W40301  19.505  13.179  17.558
39437W        W40302  20.309  12.961  17.775
39438W        W40303  20.926  12.991  17.668
39439W        W40304  20.210  11.131  18.173
39440W        W40305  19.432  11.747  16.566
39441W        W40306  18.858  11.703  15.964
39442W        W40307  18.644  14.415  15.640
39443W        W40308  19.976  13.745  17.765
39444W        W40309  19.011  13.230  15.124
39445W        W40310  20.691  12.615  16.345
39446W        W40311  20.971  12.414  16.744
39447W        W40312  20.176  13.088  16.678
39448W        W40313  20.646  13.462  14.810
39449W        W40314  20.318  11.483  16.138
39450W        W40315  21.797  11.761  15.406
39451W        W40316  18.291  14.350  17.437
39452W        W40317  18.708  13.576  16.969
39453W        W40318  18.275  14.422  15.201
39454W        W40319  20.174  11.692  17.007
39455W        W40320  19.537  13.715  14.856
39456W        W40321  21.442  14.097  15.042
39457W        W40322  20.417  12.750  15.056
39458W        W40323  19.260  11.941  15.573
39459W        W40324  20.092  11.851  14.625
39460W        W40325  20.676  13.416  17.803
39461W        W40326  21.029  11.322  15.420
39462W        W40327  18.359  11.170  14.868
39463W        W40328  19.645  13.489  17.158
39464W        W40329  19.444  13.405  16.250
39465W        W40330  19.186  13.357  14.648
39466W        W40331  18.427  13.598  15.416
39467W        W40332  18.931  12.668  17.858
39468W        W40333  19.635  11.228  18.044
39469W        W40334  20.344  11.370  17.400
39470W        W40335  19.539  11.138  15.681
39471W        W40336  20.598  11.215  15.186
39472W        W40337  18.543  11.147  16.763
39473W        W40338  18.591  12.110  16.133
39474W        W40339  21.280  11.218  16.539
39475W        W40340  18.702  11.716  15.353
39476W        W40341  21.273  11.404  16.969
39477W        W40342  21.669  12.607  14.654
39478W        W40343  18.961  11.365  16.473
39479W        W40344  20.075  11.937  17.413
39480W        W40345  18.223  11.627  14.891
39481W        W40346  19.009  13.016  17.452
39482W        W40347  20.367  12.414  16.631
39483W        W40348  20.234  14.493  14.927
39484W        W40349  18.380  13.000  14.624
39485W        W40350  19.115  13.411  17.750
39486W        W40351  18.636  12.578  17.381
39487W        W40352  19.627  12.683  17.175
39488W        W40353  21.395  11.042  17.437
39489W        W40354  21.793  12.652  17.428
39490W        W40355  21.781  12.852  15.114
39491W        W40356  20.644  13.184  15.213
39492W        W40357  21.118  14.484  14.908
39493W        W40358  20.295  12.474  18.050
39494W        W40359  18.625  13.441  18.090
39495W        W40360  21.831  11.363  18.042
39496W        W40361  21.549  12.291  16.663
39497W        W40362  19.857  14.421  18.140
39498W        W40363  19.712  11.050  14.867
39499W        W40364  21.251  13.649  14.810
39500W        W40365  19.020  11.742  17.696
39501W        W40366  19.454  13.736  17.558
39502W        W40367  21.580  11.727  17.356
39503W        W40368  20.791  14.386  15.324
39504W        W40369  21.030  13.005  16.691
39505W        W40370  19.280  11.421  17.358
39506W        W40371  19.749  12.490  18.115
39507W        W40372  19.252  13.669  15.309
39508W        W40373  21.007  13.167  15.573
39509W        W40374  18.775  11.793  17.297
39510W        W40375  20.104  13.855  15.761
39511W        W40376  21.854  12.415  15.942
39512W        W40377  20.076  11.048  17.661
39513W        W40378  20.856  13.753  16.740
39514W        W40379  21.159  14.097  16.448
39515W        W40380  20.378  13.899  14.876
39516W        W40381  18.388  13.791  17.718
39517W        W40382  19.131  11.783  16.956
39518W        W40383  19.101  11.131  16.066
39519W        W40384  20.722  11.973  16.758
39520W        W40385  19.520  13.144  14.958
39521W        W40386  21.518  13.086  16.457
39522W        W40387  18.845  13.844  17.880
39523W        W40388  21.232  14.526  15.677
39524W        W40389  19.331  11.546  16.122
39525W        W40390  19.100  13.039  16.212
39526W        W40391  19.413  14.450  16.962
39527W        W40392  21.480  14.546  17.994
39528W        W40393  20.639  12.734  16.927
39529W        W40394  18.488  12.532  14.842
39530W        W40395  21.622  14.190  15.539
39531W        W40396  21.459  11.514  15.158
39532W        W40397  19.598  11.033  17.561
39533W        W40398  21.304  13.835  16.019
39534W        W40399  21.333  12.391  15.924
39535W        W40400  19.450  12.064  16.140
39536W        W40401  19.695  12.326  17.464
39537W        W40402  20.806  13.479  17.327
39538W        W40403  19.456  11.933  17.439
39539W        W40404  19.435  14.399  16.055
39540W        W40405  18.752  14.358  17.689
39541W        W40406  18.864  13.719  14.819
39542W        W40407  21.381  13.477  15.629
39543W        W40408  18.985  12.269  17.515
39544W        W40409  21.758  12.199  14.996
39545W        W40410  19.503  13.256  15.467
39546W        W40411  20.602  12.638  17.548
39547W        W40412  20.493  12.266  17.092
39548W        W40413  19.053  12.638  17.121
39549W        W40414  21.263  14.526  16.950
39550W        W40415  21.054  11.160  17.944
39551W        W40416  18.718  11.310  17.531
39552W        W40417  19.057  12.333  16.584
39553W        W40418  19.426  12.147  14.706
39554W        W40419  18.229  13.906  17.251
39555W        W40420  19.814  12.615  16.694
39556W        W40421  19.637  11.640  14.799
39557W        W40422  18.772  12.456  15.580
39558W        W40423  18.543  14.308  17.017
39559W        W40424  21.338  12.534  15.125
39560W        W40425  21.433  11.450  17.811
39561W        W40426  20.869  13.659  15.774
39562W        W40427  18.467  12.583  17.951
39563W        W40428  21.433  11.047  15.247
39564W        W40429  20.953  13.522  15.258
39565W        W40430  19.855  12.580  15.343
39566W        W40431  21.042  11.384  14.866
39567W        W40432  21.107  11.991  17.052
39568W        W40433  18.816  12.584  16.259
39569W        W40434  19.110  13.523  15.908
39570W        W40435  20.873  12.143  15.873
39571W        W40436  19.896  11.522  16.569
39572W        W40437  21.858  13.433  17.080
39573W        W40438  21.776  11.420  16.641
39574W        W40439  18.315  14.250  16.017
39575W        W40440  18.824  13.437  15.553
39576W        W40441  18.739  11.054  18.106
39577W        W40442  19.858  13.907  18.208
39578W        W40443  21.613  12.875  15.998
39579W        W40444  20.967  13.052  14.878
39580W        W40445  20.262  14.573  17.090
39581W        W40446  21.119  13.295  18.127
39582W        W40447  19.934  11.005  15.407
39583W        W40448  20.647  11.874  16.266
39584W        W40449  18.333  13.461  16.598
39585W        W40450  19.586  11.423  15.239
39586W        W40451  19.390  12.907  18.088
39587W        W40452  20.384  11.888  15.802
39588W        W40453  20.589  13.298  16.924
39589W        W40454  18.743  13.903  17.359
39590W        W40455  19.334  13.886  18.082
39591W        W40456  19.185  11.683  15.096
39592W        W40457  20.702  11.825  15.421
39593W        W40458  20.660  13.933  17.658
39594W        W40459  19.345  12.525  16.257
39595W        W40460  19.000  14.223  17.122
39596W        W40461  21.745  14.340  14.723
39597W        W40462  18.608  13.012  17.719
39598W        W40463  20.603  13.274  16.407
39599W        W40464  19.039  12.923  15.649
39600W        W40465  19.410  13.930  17.044
39601W        W40466  19.788  11.349  16.085
39602W        W40467  18.399  13.333  15.015
39603W        W40468  19.918  12.284  14.885
39604W        W40469  18.564  12.833  15.904
39605W        W40470  19.854  11.475  17.368
39606W        W40471  21.526  11.184  14.795
39607W        W40472  21.619  12.930  17.894
39608W        W40473  20.273  14.187  18.046
39609W        W40474  21.831  13.281  17.568
39610W        W40475  21.239  14.079  18.179
39611W        W40476  18.978  14.535  16.657
39612W        W40477  21.837  13.157  15.531
39613W        W40478  20.367  12.424  16.044
39614W        W40479  20.134  11.036  15.934
39615W        W40480  19.193  14.020  15.771
39616W        W40481  19.692  11.761  16.996
39617W        W40482  19.392  11.130  16.465
39618W        W40483  18.455  13.952  15.013
39619W        W40484  20.271  13.316  15.731
39620W        W40485  19.146  14.111  17.610
39621W        W40486  18.623  12.934  15.306
39622W        W40487  18.508  11.477  16.305
39623W        W40488  20.056  13.442  16.362
39624W        W40489  18.308  11.296  15.382
39625W        W40490  20.972  12.502  17.309
39626W        W40491  20.849  11.888  14.881
39627W        W40492  21.366  13.560  16.529
39628W        W40493  20.027  14.044  16.360
39629W        W40494  19.439  14.148  15.271
39630W        W40495  20.721  11.051  14.701
39631W        W40496  18.521  14.311  16.442
39632W        W40497  20.718  12.069  18.077
39633W        W40498  18.701  11.599  18.076
39634W        W40499  18.432  12.199  15.409
39635W        W40500  19.123  12.188  15.134
39636W        W40501  20.886  12.515  17.951
39637W        W40502  19.229  12.796  16.660
39638W        W40503  20.703  11.082  15.780
39639W        W40504  19.834  14.513  16.283
39640W        W40505  21.048  13.975  17.220
39641W        W40506  20.632  14.124  16.331
39642W        W40507  20.651  13.104  15.925
39643W        W40508  20.113  11.329  14.996
39644W        W40509  21.794  10.957  15.718
39645W        W40510  19.482  12.592  14.881
39646W        W40511  21.648  11.929  15.871
39647W        W40512  20.340  13.099  14.748
39648W        W40513  21.276  13.299  17.496
39649W        W40514  20.930  14.000  14.963
39650W        W40515  19.545  11.675  17.869
39651W        W40516  19.365  12.259  17.110
39652W        W40517  21.457  13.754  17.387
39653W        W40518  20.557  11.704  17.764
39654W        W40519  18.401  12.175  17.541
39655W        W40520  20.161  12.652  17.267
39656W        W40521  18.518  13.410  15.924
39657W        W40522  18.665  12.707  16.814
39658W        W40523  20.982  12.993  17.164
39659W        W40524  20.754  14.373  17.975
39660W        W40525  20.650  12.112  17.528
39661W        W40526  20.927  14.166  15.933
39662W        W40527  19.929  13.886  17.256
39663W        W40528  19.414  14.241  16.525
39664W        W40529  21.219  13.412  16.944
39665W        W40530  20.269  13.484  18.081
39666W        W40531  18.874  13.437  16.420
39667W        W40532  21.220  13.196  16.065
39668W        W40533  20.861  14.262  16.816
39669W        W40534  18.839  13.991  16.686
39670W        W40535  19.860  12.043  17.896
39671W        W40536  20.311  14.209  15.407
39672W        W40537  19.619  13.464  18.045
39673W        W40538  19.745  13.702  15.422
39674W        W40539  18.966  12.442  14.681
39675W        W40540  18.305  14.528  21.580
39676W        W40541  18.681  13.421  21.103
39677W        W40542  21.386  13.151  18.873
39678W        W40543  21.516  14.236  20.900
39679W        W40544  19.434  14.227  18.426
39680W        W40545  19.517  12.379  19.409
39681W        W40546  19.032  12.227  19.573
39682W        W40547  20.023  13.042  19.007
39683W        W40548  19.698  14.134  21.362
39684W        W40549  18.347  11.695  21.325
39685W        W40550  19.109  10.975  21.127
39686W        W40551  20.803  11.363  20.014
39687W        W40552  20.452  12.234  18.584
39688W        W40553  21.022  11.668  21.675
39689W        W40554  18.388  11.460  20.800
39690W        W40555  18.487  14.079  21.821
39691W        W40556  20.009  13.469  18.553
39692W        W40557  18.441  12.252  20.246
39693W        W40558  19.334  12.143  21.483
39694W        W40559  21.793  12.002  19.982
39695W        W40560  21.557  13.045  20.841
39696W        W40561  19.865  12.378  19.868
39697W        W40562  20.411  13.717  20.237
39698W        W40563  18.911  13.151  20.469
39699W        W40564  18.270  12.679  20.040
39700W        W40565  19.306  12.651  21.232
39701W        W40566  21.577  12.434  21.486
39702W        W40567  19.193  13.878  19.931
39703W        W40568  20.314  13.567  21.065
39704W        W40569  19.534  12.207  20.290
39705W        W40570  19.826  12.991  19.933
39706W        W40571  20.823  13.764  21.781
39707W        W40572  19.902  13.084  21.791
39708W        W40573  19.883  12.800  21.269
39709W        W40574  18.292  12.191  21.791
39710W        W40575  21.124  13.726  21.390
39711W        W40576  18.705  11.308  19.388
39712W        W40577  19.232  13.566  20.387
39713W        W40578  21.695  13.349  19.677
39714W        W40579  21.108  11.749  20.244
39715W        W40580  21.393  11.702  18.339
39716W        W40581  21.858  12.503  20.645
39717W        W40582  19.825  14.210  20.398
39718W        W40583  21.599  13.676  18.836
39719W        W40584  18.728  14.462  18.590
39720W        W40585  19.121  14.508  19.266
39721W        W40586  18.918  11.262  20.692
39722W        W40587  21.541  12.280  20.967
39723W        W40588  20.946  12.702  19.426
39724W        W40589  20.912  12.390  18.453
39725W        W40590  20.120  13.534  20.593
39726W        W40591  19.926  11.864  19.792
39727W        W40592  20.526  13.951  20.786
39728W        W40593  21.397  12.742  19.208
39729W        W40594  20.299  11.400  19.224
39730W        W40595  18.956  14.094  18.907
39731W        W40596  18.327  11.593  19.506
39732W        W40597  21.113  12.200  19.980
39733W        W40598  18.571  13.817  19.895
39734W        W40599  19.912  14.167  18.765
39735W        W40600  21.304  12.193  18.229
39736W        W40601  18.327  13.951  20.393
39737W        W40602  19.118  13.523  20.873
39738W        W40603  19.491  12.883  19.492
39739W        W40604  19.513  11.288  20.585
39740W        W40605  21.742  11.050  19.882
39741W        W40606  18.961  12.922  18.350
39742W        W40607  18.616  11.955  18.529
39743W        W40608  18.678  13.911  19.323
39744W        W40609  19.809  13.394  19.571
39745W        W40610  21.141  14.253  21.285
39746W        W40611  20.067  11.895  18.969
39747W        W40612  21.450  14.293  19.741
39748W        W40613  21.127  12.146  21.339
39749W        W40614  21.840  13.802  19.473
39750W        W40615  20.467  13.094  20.957
39751W        W40616  18.233  12.645  19.163
39752W        W40617  19.344  13.060  20.736
39753W        W40618  20.548  12.324  19.114
39754W        W40619  20.425  12.814  19.218
39755W        W40620  18.768  12.234  20.692
39756W        W40621  18.753  12.110  21.614
39757W        W40622  18.643  11.027  19.773
39758W        W40623  20.411  11.374  20.334
39759W        W40624  20.059  11.559  21.497
39760W        W40625  20.414  11.708  18.675
39761W        W40626  21.597  14.101  21.429
39762W        W40627  20.564  11.182  21.468
39763W        W40628  21.583  13.483  21.590
39764W        W40629  21.013  11.650  21.186
39765W        W40630  20.813  11.588  19.456
39766W        W40631  21.206  12.722  21.860
39767W        W40632  18.946  14.298  19.846
39768W        W40633  19.604  12.015  18.832
39769W        W40634  19.173  11.299  21.496
39770W        W40635  21.225  11.783  19.177
39771W        W40636  21.592  12.265  19.122
39772W        W40637  19.335  14.482  21.593
39773W        W40638  19.261  11.018  18.828
39774W        W40639  21.582  11.552  19.863
39775W        W40640  21.732  13.801  18.308
39776W        W40641  18.639  13.004  20.010
39777W        W40642  20.556  11.591  18.240
39778W        W40643  21.690  13.923  19.960
39779W        W40644  21.729  11.117  20.710
39780W        W40645  20.174  12.329  21.264
39781W        W40646  20.267  13.668  18.967
39782W        W40647  20.667  12.962  21.707
39783W        W40648  20.341  10.939  20.016
39784W        W40649  18.953  11.842  20.079
39785W        W40650  18.507  13.042  20.853
39786W        W40651  20.366  14.235  19.559
39787W        W40652  21.560  11.832  20.431
39788W        W40653  20.197  14.179  21.198
39789W        W40654  21.540  13.238  18.403
39790W        W40655  19.975  12.721  19.464
39791W        W40656  21.827  11.232  21.205
39792W        W40657  19.976  13.067  20.799
39793W        W40658  20.193  11.953  20.244
39794W        W40659  21.045  12.251  19.082
39795W        W40660  21.332  11.984  18.724
39796W        W40661  21.141  14.024  19.113
39797W        W40662  20.975  13.627  19.909
39798W        W40663  20.871  12.706  18.887
39799W        W40664  20.304  12.916  19.873
39800W        W40665  21.185  12.704  19.940
39801W        W40666  18.560  11.719  20.364
39802W        W40667  21.338  12.771  21.191
39803W        W40668  21.689  14.389  20.337
39804W        W40669  19.619  13.833  19.739
39805W        W40670  20.626  14.366  21.063
39806W        W40671  20.620  11.696  20.827
39807W        W40672  19.827  14.404  20.888
39808W        W40673  21.524  11.358  19.354
39809W        W40674  21.315  12.677  20.655
39810W        W40675  18.298  11.998  20.693
39811W        W40676  21.158  11.793  19.711
39812W        W40677  21.569  11.944  21.488
39813W        W40678  20.454  13.643  19.706
39814W        W40679  19.710  14.234  19.319
39815W        W40680  18.825  11.414  18.577
39816W        W40681  19.929  11.068  20.387
39817W        W40682  18.957  14.188  18.235
39818W        W40683  19.331  12.654  18.986
39819W        W40684  19.985  13.283  21.299
39820W        W40685  19.815  11.641  19.289
39821W        W40686  21.171  11.238  19.717
39822W        W40687  20.891  14.520  20.045
39823W        W40688  20.303  14.168  20.385
39824W        W40689  19.699  13.205  20.346
39825W        W40690  21.469  13.928  20.472
39826W        W40691  19.163  11.431  19.241
39827W        W40692  19.685  13.728  20.201
39828W        W40693  19.168  11.659  18.266
39829W        W40694  19.969  12.268  20.660
39830W        W40695  20.817  11.134  20.530
39831W        W40696  18.237  12.977  20.415
39832W        W40697  19.941  12.795  18.573
39833W        W40698  19.209  11.110  18.343
39834W        W40699  19.947  12.191  19.394
39835W        W40700  20.917  11.167  21.093
39836W        W40701  19.505  13.179  21.202
39837W        W40702  20.309  12.961  21.419
39838W        W40703  20.926  12.991  21.312
39839W        W40704  20.210  11.131  21.817
39840W        W40705  19.432  11.747  20.210
39841W        W40706  18.858  11.703  19.608
39842W        W40707  18.644  14.415  19.284
39843W        W40708  19.976  13.745  21.409
39844W        W40709  19.011  13.230  18.768
39845W        W40710  20.691  12.615  19.989
39846W        W40711  20.971  12.414  20.388
39847W        W40712  20.176  13.088  20.322
39848W        W40713  20.646  13.462  18.454
39849W        W40714  20.318  11.483  19.782
39850W        W40715  21.797  11.761  19.050
39851W        W40716  18.291  14.350  21.081
39852W        W40717  18.708  13.576  20.613
39853W        W40718  18.275  14.422  18.845
39854W        W40719  20.174  11.692  20.651
39855W        W40720  19.537  13.715  18.500
39856W        W40721  21.442  14.097  18.686
39857W        W40722  20.417  12.750  18.700
39858W        W40723  19.260  11.941  19.217
39859W        W40724  20.092  11.851  18.269
39860W        W40725  20.676  13.416  21.447
39861W        W40726  21.029  11.322  19.064
39862W        W40727  18.359  11.170  18.512
39863W        W40728  19.645  13.489  20.802
39864W        W40729  19.444  13.405  19.894
39865W        W40730  19.186  13.357  18.292
39866W        W40731  18.427  13.598  19.060
39867W        W40732  18.931  12.668  21.502
39868W        W40733  19.635  11.228  21.688
39869W        W40734  20.344  11.370  21.044
39870W        W40735  19.539  11.138  19.325
39871W        W40736  20.598  11.215  18.830
39872W        W40737  18.543  11.147  20.407
39873W        W40738  18.591  12.110  19.777
39874W        W40739  21.280  11.218  20.183
39875W        W40740  18.702  11.716  18.997
39876W        W40741  21.273  11.404  20.613
39877W        W40742  21.669  12.607  18.298
39878W        W40743  18.961  11.365  20.117
39879W        W40744  20.075  11.937  21.057
39880W        W40745  18.223  11.627  18.535
39881W        W40746  19.009  13.016  21.096
39882W        W40747  20.367  12.414  20.275
39883W        W40748  20.234  14.493  18.571
39884W        W40749  18.380  13.000  18.268
39885W        W40750  19.115  13.411  21.394
39886W        W40751  18.636  12.578  21.025
39887W        W40752  19.627  12.683  20.819
39888W        W40753  21.395  11.042  21.081
39889W        W40754  21.793  12.652  21.072
39890W        W40755  21.781  12.852  18.758
39891W        W40756  20.644  13.184  18.857
39892W        W40757  21.118  14.484  18.552
39893W        W40758  20.295  12.474  21.694
39894W        W40759  18.625  13.441  21.734
39895W        W40760  21.831  11.363  21.686
39896W        W40761  21.549  12.291  20.307
39897W        W40762  19.857  14.421  21.784
39898W        W40763  19.712  11.050  18.511
39899W        W40764  21.251  13.649  18.454
39900W        W40765  19.020  11.742  21.340
39901W        W40766  19.454  13.736  21.202
39902W        W40767  21.580  11.727  21.000
39903W        W40768  20.791  14.386  18.968
39904W        W40769  21.030  13.005  20.335
39905W        W40770  19.280  11.421  21.002
39906W        W40771  19.749  12.490  21.759
39907W        W40772  19.252  13.669  18.953
39908W        W40773  21.007  13.167  19.217
39909W        W40774  18.775  11.793  20.941
39910W        W40775  20.104  13.855  19.405
39911W        W40776  21.854  12.415  19.586
39912W        W40777  20.076  11.048  21.305
39913W        W40778  20.856  13.753  20.384
39914W        W40779  21.159  14.097  20.092
39915W        W40780  20.378  13.899  18.520
39916W        W40781  18.388  13.791  21.362
39917W        W40782  19.131  11.783  20.600
39918W        W40783  19.101  11.131  19.710
39919W        W40784  20.722  11.973  20.402
39920W        W40785  19.520  13.144  18.602
39921W        W40786  21.518  13.086  20.101
39922W        W40787  18.845  13.844  21.524
39923W        W40788  21.232  14.526  19.321
39924W        W40789  19.331  11.546  19.766
39925W        W40790  19.100  13.039  19.856
39926W        W40791  19.413  14.450  20.606
39927W        W40792  21.480  14.546  21.638
39928W        W40793  20.639  12.734  20.571
39929W        W40794  18.488  12.532  18.486
39930W        W40795  21.622  14.190  19.183
39931W        W40796  21.459  11.514  18.802
39932W        W40797  19.598  11.033  21.205
39933W        W40798  21.304  13.835  19.663
39934W        W40799  21.333  12.391  19.568
39935W        W40800  19.450  12.064  19.784
39936W        W40801  19.695  12.326  21.108
39937W        W40802  20.806  13.479  20.971
39938W        W40803  19.456  11.933  21.083
39939W        W40804  19.435  14.399  19.699
39940W        W40805  18.752  14.358  21.333
39941W        W40806  18.864  13.719  18.463
39942W        W40807  21.381  13.477  19.273
39943W        W40808  18.985  12.269  21.159
39944W        W40809  21.758  12.199  18.640
39945W        W40810  19.503  13.256  19.111
39946W        W40811  20.602  12.638  21.192
39947W        W40812  20.493  12.266  20.736
39948W        W40813  19.053  12.638  20.765
39949W        W40814  21.263  14.526  20.594
39950W        W40815  21.054  11.160  21.588
39951W        W40816  18.718  11.310  21.175
39952W        W40817  19.057  12.333  20.228
39953W        W40818  19.426  12.147  18.350
39954W        W40819  18.229  13.906  20.895
39955W        W40820  19.814  12.615  20.338
39956W        W40821  19.637  11.640  18.443
39957W        W40822  18.772  12.456  19.224
39958W        W40823  18.543  14.308  20.661
39959W        W40824  21.338  12.534  18.769
39960W        W40825  21.433  11.450  21.455
39961W        W40826  20.869  13.659  19.418
39962W        W40827  18.467  12.583  21.595
39963W        W40828  21.433  11.047  18.891
39964W        W40829  20.953  13.522  18.902
39965W        W40830  19.855  12.580  18.987
39966W        W40831  21.042  11.384  18.510
39967W        W40832  21.107  11.991  20.696
39968W        W40833  18.816  12.584  19.903
39969W        W40834  19.110  13.523  19.552
39970W        W40835  20.873  12.143  19.517
39971W        W40836  19.896  11.522  20.213
39972W        W40837  21.858  13.433  20.724
39973W        W40838  21.776  11.420  20.285
39974W        W40839  18.315  14.250  19.661
39975W        W40840  18.824  13.437  19.197
39976W        W40841  18.739  11.054  21.750
39977W        W40842  19.858  13.907  21.852
39978W        W40843  21.613  12.875  19.642
39979W        W40844  20.967  13.052  18.522
39980W        W40845  20.262  14.573  20.734
39981W        W40846  21.119  13.295  21.771
39982W        W40847  19.934  11.005  19.051
39983W        W40848  20.647  11.874  19.910
39984W        W40849  18.333  13.461  20.242
39985W        W40850  19.586  11.423  18.883
39986W        W40851  19.390  12.907  21.732
39987W        W40852  20.384  11.888  19.446
39988W        W40853  20.589  13.298  20.568
39989W        W40854  18.743  13.903  21.003
39990W        W40855  19.334  13.886  21.726
39991W        W40856  19.185  11.683  18.740
39992W        W40857  20.702  11.825  19.065
39993W        W40858  20.660  13.933  21.302
39994W        W40859  19.345  12.525  19.901
39995W        W40860  19.000  14.223  20.766
39996W        W40861  21.745  14.340  18.367
39997W        W40862  18.608  13.012  21.363
39998W        W40863  20.603  13.274  20.051
39999W        W40864  19.039  12.923  19.293
40000W        W40865  19.410  13.930  20.688
40001W        W40866  19.788  11.349  19.729
40002W        W40867  18.399  13.333  18.659
40003W        W40868  19.918  12.284  18.529
40004W        W40869  19.854  11.475  21.012
40005W        W40870  21.526  11.184  18.439
40006W        W40871  21.619  12.930  21.538
40007W        W40872  20.273  14.187  21.690
40008W        W40873  21.831  13.281  21.212
40009W        W40874  21.239  14.079  21.823
40010W        W40875  18.978  14.535  20.301
40011W        W40876  21.837  13.157  19.175
40012W        W40877  20.367  12.424  19.688
40013W        W40878  20.134  11.036  19.578
40014W        W40879  19.193  14.020  19.415
40015W        W40880  19.692  11.761  20.640
40016W        W40881  19.392  11.130  20.109
40017W        W40882  18.455  13.952  18.657
40018W        W40883  20.271  13.316  19.375
40019W        W40884  19.146  14.111  21.254
40020W        W40885  18.623  12.934  18.950
40021W        W40886  18.508  11.477  19.949
40022W        W40887  20.056  13.442  20.006
40023W        W40888  18.308  11.296  19.026
40024W        W40889  20.972  12.502  20.953
40025W        W40890  20.849  11.888  18.525
40026W        W40891  21.366  13.560  20.173
40027W        W40892  20.027  14.044  20.004
40028W        W40893  19.439  14.148  18.915
40029W        W40894  20.721  11.051  18.345
40030W        W40895  18.521  14.311  20.086
40031W        W40896  20.718  12.069  21.721
40032W        W40897  18.701  11.599  21.720
40033W        W40898  18.432  12.199  19.053
40034W        W40899  19.123  12.188  18.778
40035W        W40900  20.886  12.515  21.595
40036W        W40901  19.229  12.796  20.304
40037W        W40902  20.703  11.082  19.424
40038W        W40903  19.834  14.513  19.927
40039W        W40904  21.048  13.975  20.864
40040W        W40905  20.632  14.124  19.975
40041W        W40906  20.651  13.104  19.569
40042W        W40907  20.113  11.329  18.640
40043W        W40908  21.794  10.957  19.362
40044W        W40909  19.482  12.592  18.525
40045W        W40910  21.648  11.929  19.515
40046W        W40911  20.340  13.099  18.392
40047W        W40912  21.276  13.299  21.140
40048W        W40913  20.930  14.000  18.607
40049W        W40914  19.545  11.675  21.513
40050W        W40915  19.365  12.259  20.754
40051W        W40916  21.457  13.754  21.031
40052W        W40917  20.557  11.704  21.408
40053W        W40918  18.401  12.175  21.185
40054W        W40919  20.161  12.652  20.911
40055W        W40920  18.518  13.410  19.568
40056W        W40921  18.665  12.707  20.458
40057W        W40922  20.982  12.993  20.808
40058W        W40923  20.754  14.373  21.619
40059W        W40924  20.650  12.112  21.172
40060W        W40925  20.927  14.166  19.577
40061W        W40926  19.929  13.886  20.900
40062W        W40927  19.414  14.241  20.169
40063W        W40928  21.219  13.412  20.588
40064W        W40929  20.269  13.484  21.725
40065W        W40930  18.874  13.437  20.064
40066W        W40931  21.220  13.196  19.709
40067W        W40932  20.861  14.262  20.460
40068W        W40933  18.839  13.991  20.330
40069W        W40934  19.860  12.043  21.540
40070W        W40935  20.311  14.209  19.051
40071W        W40936  19.619  13.464  21.689
40072W        W40937  19.745  13.702  19.066
40073W        W40938  18.966  12.442  18.325
40074W        W40939  18.305  14.528  25.225
40075W        W40940  18.681  13.421  24.748
40076W        W40941  21.386  13.151  22.518
40077W        W40942  21.516  14.236  24.545
40078W        W40943  19.434  14.227  22.071
40079W        W40944  19.517  12.379  23.054
40080W        W40945  19.032  12.227  23.218
40081W        W40946  20.023  13.042  22.652
40082W        W40947  19.698  14.134  25.007
40083W        W40948  18.347  11.695  24.970
40084W        W40949  19.109  10.975  24.772
40085W        W40950  20.803  11.363  23.659
40086W        W40951  20.452  12.234  22.229
40087W        W40952  21.022  11.668  25.320
40088W        W40953  18.388  11.460  24.445
40089W        W40954  18.487  14.079  25.466
40090W        W40955  20.009  13.469  22.198
40091W        W40956  18.441  12.252  23.891
40092W        W40957  19.334  12.143  25.128
40093W        W40958  21.793  12.002  23.627
40094W        W40959  21.557  13.045  24.486
40095W        W40960  19.865  12.378  23.513
40096W        W40961  20.411  13.717  23.882
40097W        W40962  18.911  13.151  24.114
40098W        W40963  18.270  12.679  23.685
40099W        W40964  19.306  12.651  24.877
40100W        W40965  21.577  12.434  25.131
40101W        W40966  19.193  13.878  23.576
40102W        W40967  20.314  13.567  24.710
40103W        W40968  19.534  12.207  23.935
40104W        W40969  19.826  12.991  23.578
40105W        W40970  20.823  13.764  25.426
40106W        W40971  19.902  13.084  25.436
40107W        W40972  19.883  12.800  24.914
40108W        W40973  18.292  12.191  25.436
40109W        W40974  21.124  13.726  25.035
40110W        W40975  18.705  11.308  23.033
40111W        W40976  19.232  13.566  24.032
40112W        W40977  21.695  13.349  23.322
40113W        W40978  21.108  11.749  23.889
40114W        W40979  21.393  11.702  21.984
40115W        W40980  21.858  12.503  24.290
40116W        W40981  19.825  14.210  24.043
40117W        W40982  21.599  13.676  22.481
40118W        W40983  18.728  14.462  22.235
40119W        W40984  19.121  14.508  22.911
40120W        W40985  18.918  11.262  24.337
40121W        W40986  21.541  12.280  24.612
40122W        W40987  20.946  12.702  23.071
40123W        W40988  20.912  12.390  22.098
40124W        W40989  20.120  13.534  24.238
40125W        W40990  19.926  11.864  23.437
40126W        W40991  20.526  13.951  24.431
40127W        W40992  21.397  12.742  22.853
40128W        W40993  20.299  11.400  22.869
40129W        W40994  18.956  14.094  22.552
40130W        W40995  18.327  11.593  23.151
40131W        W40996  21.113  12.200  23.625
40132W        W40997  18.571  13.817  23.540
40133W        W40998  19.912  14.167  22.410
40134W        W40999  21.304  12.193  21.874
40135W        W41000  18.327  13.951  24.038
40136W        W41001  19.118  13.523  24.518
40137W        W41002  19.491  12.883  23.137
40138W        W41003  19.513  11.288  24.230
40139W        W41004  21.742  11.050  23.527
40140W        W41005  18.961  12.922  21.995
40141W        W41006  18.616  11.955  22.174
40142W        W41007  18.678  13.911  22.968
40143W        W41008  19.809  13.394  23.216
40144W        W41009  21.141  14.253  24.930
40145W        W41010  20.067  11.895  22.614
40146W        W41011  21.450  14.293  23.386
40147W        W41012  21.127  12.146  24.984
40148W        W41013  21.840  13.802  23.118
40149W        W41014  20.467  13.094  24.602
40150W        W41015  18.233  12.645  22.808
40151W        W41016  19.344  13.060  24.381
40152W        W41017  20.548  12.324  22.759
40153W        W41018  20.425  12.814  22.863
40154W        W41019  18.768  12.234  24.337
40155W        W41020  18.753  12.110  25.259
40156W        W41021  18.643  11.027  23.418
40157W        W41022  20.411  11.374  23.979
40158W        W41023  20.059  11.559  25.142
40159W        W41024  20.414  11.708  22.320
40160W        W41025  21.597  14.101  25.074
40161W        W41026  20.564  11.182  25.113
40162W        W41027  21.583  13.483  25.235
40163W        W41028  21.013  11.650  24.831
40164W        W41029  20.813  11.588  23.101
40165W        W41030  21.206  12.722  25.505
40166W        W41031  18.946  14.298  23.491
40167W        W41032  19.604  12.015  22.477
40168W        W41033  19.173  11.299  25.141
40169W        W41034  21.225  11.783  22.822
40170W        W41035  21.592  12.265  22.767
40171W        W41036  19.335  14.482  25.238
40172W        W41037  19.261  11.018  22.473
40173W        W41038  21.582  11.552  23.508
40174W        W41039  21.732  13.801  21.953
40175W        W41040  18.639  13.004  23.655
40176W        W41041  20.556  11.591  21.885
40177W        W41042  21.690  13.923  23.605
40178W        W41043  21.729  11.117  24.355
40179W        W41044  20.174  12.329  24.909
40180W        W41045  20.267  13.668  22.612
40181W        W41046  20.667  12.962  25.352
40182W        W41047  20.341  10.939  23.661
40183W        W41048  18.953  11.842  23.724
40184W        W41049  18.507  13.042  24.498
40185W        W41050  20.366  14.235  23.204
40186W        W41051  21.560  11.832  24.076
40187W        W41052  20.197  14.179  24.843
40188W        W41053  21.540  13.238  22.048
40189W        W41054  19.975  12.721  23.109
40190W        W41055  21.827  11.232  24.850
40191W        W41056  19.976  13.067  24.444
40192W        W41057  20.193  11.953  23.889
40193W        W41058  21.045  12.251  22.727
40194W        W41059  21.332  11.984  22.369
40195W        W41060  21.141  14.024  22.758
40196W        W41061  20.975  13.627  23.554
40197W        W41062  20.871  12.706  22.532
40198W        W41063  20.304  12.916  23.518
40199W        W41064  21.185  12.704  23.585
40200W        W41065  18.560  11.719  24.009
40201W        W41066  21.338  12.771  24.836
40202W        W41067  21.689  14.389  23.982
40203W        W41068  19.619  13.833  23.384
40204W        W41069  20.626  14.366  24.708
40205W        W41070  20.620  11.696  24.472
40206W        W41071  19.827  14.404  24.533
40207W        W41072  21.524  11.358  22.999
40208W        W41073  21.315  12.677  24.300
40209W        W41074  18.298  11.998  24.338
40210W        W41075  21.158  11.793  23.356
40211W        W41076  21.569  11.944  25.133
40212W        W41077  20.454  13.643  23.351
40213W        W41078  19.710  14.234  22.964
40214W        W41079  18.825  11.414  22.222
40215W        W41080  19.929  11.068  24.032
40216W        W41081  18.957  14.188  21.880
40217W        W41082  19.331  12.654  22.631
40218W        W41083  19.985  13.283  24.944
40219W        W41084  19.815  11.641  22.934
40220W        W41085  21.171  11.238  23.362
40221W        W41086  20.891  14.520  23.690
40222W        W41087  20.303  14.168  24.030
40223W        W41088  19.699  13.205  23.991
40224W        W41089  21.469  13.928  24.117
40225W        W41090  19.163  11.431  22.886
40226W        W41091  19.685  13.728  23.846
40227W        W41092  19.168  11.659  21.911
40228W        W41093  19.969  12.268  24.305
40229W        W41094  20.817  11.134  24.175
40230W        W41095  18.237  12.977  24.060
40231W        W41096  19.941  12.795  22.218
40232W        W41097  19.209  11.110  21.988
40233W        W41098  19.947  12.191  23.039
40234W        W41099  20.917  11.167  24.738
40235W        W41100  19.505  13.179  24.847
40236W        W41101  20.309  12.961  25.064
40237W        W41102  20.926  12.991  24.957
40238W        W41103  20.210  11.131  25.462
40239W        W41104  19.432  11.747  23.855
40240W        W41105  18.858  11.703  23.253
40241W        W41106  18.644  14.415  22.929
40242W        W41107  19.976  13.745  25.054
40243W        W41108  19.011  13.230  22.413
40244W        W41109  20.691  12.615  23.634
40245W        W41110  20.971  12.414  24.033
40246W        W41111  20.176  13.088  23.967
40247W        W41112  20.646  13.462  22.099
40248W        W41113  20.318  11.483  23.427
40249W        W41114  21.797  11.761  22.695
40250W        W41115  18.291  14.350  24.726
40251W        W41116  18.708  13.576  24.258
40252W        W41117  18.275  14.422  22.490
40253W        W41118  20.174  11.692  24.296
40254W        W41119  19.537  13.715  22.145
40255W        W41120  21.442  14.097  22.331
40256W        W41121  20.417  12.750  22.345
40257W        W41122  19.260  11.941  22.862
40258W        W41123  20.092  11.851  21.914
40259W        W41124  20.676  13.416  25.092
40260W        W41125  21.029  11.322  22.709
40261W        W41126  18.359  11.170  22.157
40262W        W41127  19.645  13.489  24.447
40263W        W41128  19.444  13.405  23.539
40264W        W41129  19.186  13.357  21.937
40265W        W41130  18.427  13.598  22.705
40266W        W41131  18.931  12.668  25.147
40267W        W41132  19.635  11.228  25.333
40268W        W41133  20.344  11.370  24.689
40269W        W41134  19.539  11.138  22.970
40270W        W41135  20.598  11.215  22.475
40271W        W41136  18.543  11.147  24.052
40272W        W41137  18.591  12.110  23.422
40273W        W41138  21.280  11.218  23.828
40274W        W41139  18.702  11.716  22.642
40275W        W41140  21.273  11.404  24.258
40276W        W41141  21.669  12.607  21.943
40277W        W41142  18.961  11.365  23.762
40278W        W41143  20.075  11.937  24.702
40279W        W41144  18.223  11.627  22.180
40280W        W41145  19.009  13.016  24.741
40281W        W41146  20.367  12.414  23.920
40282W        W41147  20.234  14.493  22.216
40283W        W41148  18.380  13.000  21.913
40284W        W41149  19.115  13.411  25.039
40285W        W41150  18.636  12.578  24.670
40286W        W41151  19.627  12.683  24.464
40287W        W41152  21.395  11.042  24.726
40288W        W41153  21.793  12.652  24.717
40289W        W41154  21.781  12.852  22.403
40290W        W41155  20.644  13.184  22.502
40291W        W41156  21.118  14.484  22.197
40292W        W41157  20.295  12.474  25.339
40293W        W41158  18.625  13.441  25.379
40294W        W41159  21.831  11.363  25.331
40295W        W41160  21.549  12.291  23.952
40296W        W41161  19.857  14.421  25.429
40297W        W41162  19.712  11.050  22.156
40298W        W41163  21.251  13.649  22.099
40299W        W41164  19.020  11.742  24.985
40300W        W41165  19.454  13.736  24.847
40301W        W41166  21.580  11.727  24.645
40302W        W41167  20.791  14.386  22.613
40303W        W41168  21.030  13.005  23.980
40304W        W41169  19.280  11.421  24.647
40305W        W41170  19.749  12.490  25.404
40306W        W41171  19.252  13.669  22.598
40307W        W41172  21.007  13.167  22.862
40308W        W41173  18.775  11.793  24.586
40309W        W41174  20.104  13.855  23.050
40310W        W41175  21.854  12.415  23.231
40311W        W41176  20.076  11.048  24.950
40312W        W41177  20.856  13.753  24.029
40313W        W41178  21.159  14.097  23.737
40314W        W41179  20.378  13.899  22.165
40315W        W41180  18.388  13.791  25.007
40316W        W41181  19.131  11.783  24.245
40317W        W41182  19.101  11.131  23.355
40318W        W41183  20.722  11.973  24.047
40319W        W41184  19.520  13.144  22.247
40320W        W41185  21.518  13.086  23.746
40321W        W41186  18.845  13.844  25.169
40322W        W41187  21.232  14.526  22.966
40323W        W41188  19.331  11.546  23.411
40324W        W41189  19.100  13.039  23.501
40325W        W41190  19.413  14.450  24.251
40326W        W41191  21.480  14.546  25.283
40327W        W41192  20.639  12.734  24.216
40328W        W41193  18.488  12.532  22.131
40329W        W41194  21.622  14.190  22.828
40330W        W41195  21.459  11.514  22.447
40331W        W41196  19.598  11.033  24.850
40332W        W41197  21.304  13.835  23.308
40333W        W41198  21.333  12.391  23.213
40334W        W41199  19.450  12.064  23.429
40335W        W41200  19.695  12.326  24.753
40336W        W41201  20.806  13.479  24.616
40337W        W41202  19.456  11.933  24.728
40338W        W41203  19.435  14.399  23.344
40339W        W41204  18.752  14.358  24.978
40340W        W41205  18.864  13.719  22.108
40341W        W41206  21.381  13.477  22.918
40342W        W41207  18.985  12.269  24.804
40343W        W41208  21.758  12.199  22.285
40344W        W41209  19.503  13.256  22.756
40345W        W41210  20.602  12.638  24.837
40346W        W41211  20.493  12.266  24.381
40347W        W41212  19.053  12.638  24.410
40348W        W41213  21.263  14.526  24.239
40349W        W41214  21.054  11.160  25.233
40350W        W41215  18.718  11.310  24.820
40351W        W41216  19.057  12.333  23.873
40352W        W41217  19.426  12.147  21.995
40353W        W41218  18.229  13.906  24.540
40354W        W41219  19.814  12.615  23.983
40355W        W41220  19.637  11.640  22.088
40356W        W41221  18.772  12.456  22.869
40357W        W41222  18.543  14.308  24.306
40358W        W41223  21.338  12.534  22.414
40359W        W41224  21.433  11.450  25.100
40360W        W41225  20.869  13.659  23.063
40361W        W41226  18.467  12.583  25.240
40362W        W41227  21.433  11.047  22.536
40363W        W41228  20.953  13.522  22.547
40364W        W41229  19.855  12.580  22.632
40365W        W41230  21.042  11.384  22.155
40366W        W41231  21.107  11.991  24.341
40367W        W41232  18.816  12.584  23.548
40368W        W41233  19.110  13.523  23.197
40369W        W41234  20.873  12.143  23.162
40370W        W41235  19.896  11.522  23.858
40371W        W41236  21.858  13.433  24.369
40372W        W41237  21.776  11.420  23.930
40373W        W41238  18.315  14.250  23.306
40374W        W41239  18.824  13.437  22.842
40375W        W41240  18.739  11.054  25.395
40376W        W41241  19.858  13.907  25.497
40377W        W41242  21.613  12.875  23.287
40378W        W41243  20.967  13.052  22.167
40379W        W41244  20.262  14.573  24.379
40380W        W41245  21.119  13.295  25.416
40381W        W41246  19.934  11.005  22.696
40382W        W41247  20.647  11.874  23.555
40383W        W41248  18.333  13.461  23.887
40384W        W41249  19.586  11.423  22.528
40385W        W41250  19.390  12.907  25.377
40386W        W41251  20.384  11.888  23.091
40387W        W41252  20.589  13.298  24.213
40388W        W41253  18.743  13.903  24.648
40389W        W41254  19.334  13.886  25.371
40390W        W41255  19.185  11.683  22.385
40391W        W41256  20.702  11.825  22.710
40392W        W41257  20.660  13.933  24.947
40393W        W41258  19.345  12.525  23.546
40394W        W41259  19.000  14.223  24.411
40395W        W41260  21.745  14.340  22.012
40396W        W41261  18.608  13.012  25.008
40397W        W41262  20.603  13.274  23.696
40398W        W41263  19.039  12.923  22.938
40399W        W41264  19.410  13.930  24.333
40400W        W41265  19.788  11.349  23.374
40401W        W41266  18.399  13.333  22.304
40402W        W41267  19.918  12.284  22.174
40403W        W41268  18.564  12.833  23.193
40404W        W41269  19.854  11.475  24.657
40405W        W41270  21.526  11.184  22.084
40406W        W41271  21.619  12.930  25.183
40407W        W41272  20.273  14.187  25.335
40408W        W41273  21.831  13.281  24.857
40409W        W41274  21.239  14.079  25.468
40410W        W41275  18.978  14.535  23.946
40411W        W41276  21.837  13.157  22.820
40412W        W41277  20.367  12.424  23.333
40413W        W41278  20.134  11.036  23.223
40414W        W41279  19.193  14.020  23.060
40415W        W41280  19.692  11.761  24.285
40416W        W41281  19.392  11.130  23.754
40417W        W41282  18.455  13.952  22.302
40418W        W41283  20.271  13.316  23.020
40419W        W41284  19.146  14.111  24.899
40420W        W41285  18.623  12.934  22.595
40421W        W41286  18.508  11.477  23.594
40422W        W41287  20.056  13.442  23.651
40423W        W41288  18.308  11.296  22.671
40424W        W41289  20.972  12.502  24.598
40425W        W41290  20.849  11.888  22.170
40426W        W41291  21.366  13.560  23.818
40427W        W41292  20.027  14.044  23.649
40428W        W41293  19.439  14.148  22.560
40429W        W41294  20.721  11.051  21.990
40430W        W41295  18.521  14.311  23.731
40431W        W41296  20.718  12.069  25.366
40432W        W41297  18.701  11.599  25.365
40433W        W41298  18.432  12.199  22.698
40434W        W41299  19.123  12.188  22.423
40435W        W41300  20.886  12.515  25.240
40436W        W41301  19.229  12.796  23.949
40437W        W41302  20.703  11.082  23.069
40438W        W41303  19.834  14.513  23.572
40439W        W41304  21.048  13.975  24.509
40440W        W41305  20.632  14.124  23.620
40441W        W41306  20.651  13.104  23.214
40442W        W41307  20.113  11.329  22.285
40443W        W41308  21.794  10.957  23.007
40444W        W41309  19.482  12.592  22.170
40445W        W41310  21.648  11.929  23.160
40446W        W41311  20.340  13.099  22.037
40447W        W41312  21.276  13.299  24.785
40448W        W41313  20.930  14.000  22.252
40449W        W41314  19.545  11.675  25.158
40450W        W41315  19.365  12.259  24.399
40451W        W41316  21.457  13.754  24.676
40452W        W41317  20.557  11.704  25.053
40453W        W41318  18.401  12.175  24.830
40454W        W41319  20.161  12.652  24.556
40455W        W41320  18.518  13.410  23.213
40456W        W41321  18.665  12.707  24.103
40457W        W41322  20.982  12.993  24.453
40458W        W41323  20.754  14.373  25.264
40459W        W41324  20.650  12.112  24.817
40460W        W41325  20.927  14.166  23.222
40461W        W41326  19.929  13.886  24.545
40462W        W41327  19.414  14.241  23.814
40463W        W41328  21.219  13.412  24.233
40464W        W41329  20.269  13.484  25.370
40465W        W41330  18.874  13.437  23.709
40466W        W41331  21.220  13.196  23.354
40467W        W41332  20.861  14.262  24.105
40468W        W41333  18.839  13.991  23.975
40469W        W41334  19.860  12.043  25.185
40470W        W41335  20.311  14.209  22.696
40471W        W41336  19.619  13.464  25.334
40472W        W41337  19.745  13.702  22.711
40473W        W41338  18.966  12.442  21.970
40474W        W41339  18.305  14.528  28.869
40475W        W41340  18.681  13.421  28.392
40476W        W41341  21.386  13.151  26.162
40477W        W41342  21.516  14.236  28.189
40478W        W41343  19.434  14.227  25.715
40479W        W41344  19.517  12.379  26.698
40480W        W41345  19.032  12.227  26.862
40481W        W41346  20.023  13.042  26.296
40482W        W41347  19.698  14.134  28.651
40483W        W41348  18.347  11.695  28.614
40484W        W41349  19.109  10.975  28.416
40485W        W41350  20.803  11.363  27.303
40486W        W41351  20.452  12.234  25.873
40487W        W41352  21.022  11.668  28.964
40488W        W41353  18.388  11.460  28.089
40489W        W41354  18.487  14.079  29.110
40490W        W41355  20.009  13.469  25.842
40491W        W41356  18.441  12.252  27.535
40492W        W41357  19.334  12.143  28.772
40493W        W41358  21.793  12.002  27.271
40494W        W41359  21.557  13.045  28.130
40495W        W41360  19.865  12.378  27.157
40496W        W41361  20.411  13.717  27.526
40497W        W41362  18.911  13.151  27.758
40498W        W41363  18.270  12.679  27.329
40499W        W41364  19.306  12.651  28.521
40500W        W41365  21.577  12.434  28.775
40501W        W41366  19.193  13.878  27.220
40502W        W41367  20.314  13.567  28.354
40503W        W41368  19.534  12.207  27.579
40504W        W41369  19.826  12.991  27.222
40505W        W41370  20.823  13.764  29.070
40506W        W41371  19.902  13.084  29.080
40507W        W41372  19.883  12.800  28.558
40508W        W41373  18.292  12.191  29.080
40509W        W41374  21.124  13.726  28.679
40510W        W41375  18.705  11.308  26.677
40511W        W41376  19.232  13.566  27.676
40512W        W41377  21.695  13.349  26.966
40513W        W41378  21.108  11.749  27.533
40514W        W41379  21.393  11.702  25.628
40515W        W41380  21.858  12.503  27.934
40516W        W41381  19.825  14.210  27.687
40517W        W41382  21.599  13.676  26.125
40518W        W41383  18.728  14.462  25.879
40519W        W41384  19.121  14.508  26.555
40520W        W41385  18.918  11.262  27.981
40521W        W41386  21.541  12.280  28.256
40522W        W41387  20.946  12.702  26.715
40523W        W41388  20.912  12.390  25.742
40524W        W41389  20.120  13.534  27.882
40525W        W41390  19.926  11.864  27.081
40526W        W41391  20.526  13.951  28.075
40527W        W41392  21.397  12.742  26.497
40528W        W41393  20.299  11.400  26.513
40529W        W41394  18.956  14.094  26.196
40530W        W41395  18.327  11.593  26.795
40531W        W41396  21.113  12.200  27.269
40532W        W41397  18.571  13.817  27.184
40533W        W41398  19.912  14.167  26.054
40534W        W41399  21.304  12.193  25.518
40535W        W41400  18.327  13.951  27.682
40536W        W41401  19.118  13.523  28.162
40537W        W41402  19.491  12.883  26.781
40538W        W41403  19.513  11.288  27.874
40539W        W41404  21.742  11.050  27.171
40540W        W41405  18.961  12.922  25.639
40541W        W41406  18.616  11.955  25.818
40542W        W41407  18.678  13.911  26.612
40543W        W41408  19.809  13.394  26.860
40544W        W41409  21.141  14.253  28.574
40545W        W41410  20.067  11.895  26.258
40546W        W41411  21.450  14.293  27.030
40547W        W41412  21.127  12.146  28.628
40548W        W41413  21.840  13.802  26.762
40549W        W41414  20.467  13.094  28.246
40550W        W41415  18.233  12.645  26.452
40551W        W41416  19.344  13.060  28.025
40552W        W41417  20.548  12.324  26.403
40553W        W41418  20.425  12.814  26.507
40554W        W41419  18.768  12.234  27.981
40555W        W41420  18.753  12.110  28.903
40556W        W41421  18.643  11.027  27.062
40557W        W41422  20.411  11.374  27.623
40558W        W41423  20.059  11.559  28.786
40559W        W41424  20.414  11.708  25.964
40560W        W41425  21.597  14.101  28.718
40561W        W41426  20.564  11.182  28.757
40562W        W41427  21.583  13.483  28.879
40563W        W41428  21.013  11.650  28.475
40564W        W41429  20.813  11.588  26.745
40565W        W41430  21.206  12.722  29.149
40566W        W41431  18.946  14.298  27.135
40567W        W41432  19.604  12.015  26.121
40568W        W41433  19.173  11.299  28.785
40569W        W41434  21.225  11.783  26.466
40570W        W41435  21.592  12.265  26.411
40571W        W41436  19.335  14.482  28.882
40572W        W41437  19.261  11.018  26.117
40573W        W41438  21.582  11.552  27.152
40574W        W41439  21.732  13.801  25.597
40575W        W41440  18.639  13.004  27.299
40576W        W41441  20.556  11.591  25.529
40577W        W41442  21.690  13.923  27.249
40578W        W41443  21.729  11.117  27.999
40579W        W41444  20.174  12.329  28.553
40580W        W41445  20.267  13.668  26.256
40581W        W41446  20.667  12.962  28.996
40582W        W41447  20.341  10.939  27.305
40583W        W41448  18.953  11.842  27.368
40584W        W41449  18.507  13.042  28.142
40585W        W41450  20.366  14.235  26.848
40586W        W41451  21.560  11.832  27.720
40587W        W41452  20.197  14.179  28.487
40588W        W41453  21.540  13.238  25.692
40589W        W41454  19.975  12.721  26.753
40590W        W41455  21.827  11.232  28.494
40591W        W41456  19.976  13.067  28.088
40592W        W41457  20.193  11.953  27.533
40593W        W41458  21.045  12.251  26.371
40594W        W41459  21.332  11.984  26.013
40595W        W41460  21.141  14.024  26.402
40596W        W41461  20.975  13.627  27.198
40597W        W41462  20.871  12.706  26.176
40598W        W41463  20.304  12.916  27.162
40599W        W41464  21.185  12.704  27.229
40600W        W41465  18.560  11.719  27.653
40601W        W41466  21.338  12.771  28.480
40602W        W41467  21.689  14.389  27.626
40603W        W41468  19.619  13.833  27.028
40604W        W41469  20.626  14.366  28.352
40605W        W41470  20.620  11.696  28.116
40606W        W41471  19.827  14.404  28.177
40607W        W41472  21.524  11.358  26.643
40608W        W41473  21.315  12.677  27.944
40609W        W41474  18.298  11.998  27.982
40610W        W41475  21.158  11.793  27.000
40611W        W41476  21.569  11.944  28.777
40612W        W41477  20.454  13.643  26.995
40613W        W41478  19.710  14.234  26.608
40614W        W41479  18.825  11.414  25.866
40615W        W41480  19.929  11.068  27.676
40616W        W41481  18.957  14.188  25.524
40617W        W41482  19.331  12.654  26.275
40618W        W41483  19.985  13.283  28.588
40619W        W41484  19.815  11.641  26.578
40620W        W41485  21.171  11.238  27.006
40621W        W41486  20.891  14.520  27.334
40622W        W41487  20.303  14.168  27.674
40623W        W41488  19.699  13.205  27.635
40624W        W41489  21.469  13.928  27.761
40625W        W41490  19.163  11.431  26.530
40626W        W41491  19.685  13.728  27.490
40627W        W41492  19.168  11.659  25.555
40628W        W41493  19.969  12.268  27.949
40629W        W41494  20.817  11.134  27.819
40630W        W41495  18.237  12.977  27.704
40631W        W41496  19.941  12.795  25.862
40632W        W41497  19.209  11.110  25.632
40633W        W41498  19.947  12.191  26.683
40634W        W41499  20.917  11.167  28.382
40635W        W41500  19.505  13.179  28.491
40636W        W41501  20.309  12.961  28.708
40637W        W41502  20.926  12.991  28.601
40638W        W41503  20.210  11.131  29.106
40639W        W41504  19.432  11.747  27.499
40640W        W41505  18.858  11.703  26.897
40641W        W41506  18.644  14.415  26.573
40642W        W41507  19.976  13.745  28.698
40643W        W41508  19.011  13.230  26.057
40644W        W41509  20.691  12.615  27.278
40645W        W41510  20.971  12.414  27.677
40646W        W41511  20.176  13.088  27.611
40647W        W41512  20.646  13.462  25.743
40648W        W41513  20.318  11.483  27.071
40649W        W41514  21.797  11.761  26.339
40650W        W41515  18.291  14.350  28.370
40651W        W41516  18.708  13.576  27.902
40652W        W41517  18.275  14.422  26.134
40653W        W41518  20.174  11.692  27.940
40654W        W41519  19.537  13.715  25.789
40655W        W41520  21.442  14.097  25.975
40656W        W41521  20.417  12.750  25.989
40657W        W41522  19.260  11.941  26.506
40658W        W41523  20.092  11.851  25.558
40659W        W41524  20.676  13.416  28.736
40660W        W41525  21.029  11.322  26.353
40661W        W41526  18.359  11.170  25.801
40662W        W41527  19.645  13.489  28.091
40663W        W41528  19.444  13.405  27.183
40664W        W41529  19.186  13.357  25.581
40665W        W41530  18.427  13.598  26.349
40666W        W41531  18.931  12.668  28.791
40667W        W41532  19.635  11.228  28.977
40668W        W41533  20.344  11.370  28.333
40669W        W41534  19.539  11.138  26.614
40670W        W41535  20.598  11.215  26.119
40671W        W41536  18.543  11.147  27.696
40672W        W41537  18.591  12.110  27.066
40673W        W41538  21.280  11.218  27.472
40674W        W41539  18.702  11.716  26.286
40675W        W41540  21.273  11.404  27.902
40676W        W41541  21.669  12.607  25.587
40677W        W41542  18.961  11.365  27.406
40678W        W41543  20.075  11.937  28.346
40679W        W41544  18.223  11.627  25.824
40680W        W41545  19.009  13.016  28.385
40681W        W41546  20.367  12.414  27.564
40682W        W41547  20.234  14.493  25.860
40683W        W41548  18.380  13.000  25.557
40684W        W41549  19.115  13.411  28.683
40685W        W41550  18.636  12.578  28.314
40686W        W41551  19.627  12.683  28.108
40687W        W41552  21.395  11.042  28.370
40688W        W41553  21.793  12.652  28.361
40689W        W41554  21.781  12.852  26.047
40690W        W41555  20.644  13.184  26.146
40691W        W41556  21.118  14.484  25.841
40692W        W41557  20.295  12.474  28.983
40693W        W41558  18.625  13.441  29.023
40694W        W41559  21.831  11.363  28.975
40695W        W41560  21.549  12.291  27.596
40696W        W41561  19.857  14.421  29.073
40697W        W41562  19.712  11.050  25.800
40698W        W41563  21.251  13.649  25.743
40699W        W41564  19.020  11.742  28.629
40700W        W41565  19.454  13.736  28.491
40701W        W41566  21.580  11.727  28.289
40702W        W41567  20.791  14.386  26.257
40703W        W41568  21.030  13.005  27.624
40704W        W41569  19.280  11.421  28.291
40705W        W41570  19.749  12.490  29.048
40706W        W41571  19.252  13.669  26.242
40707W        W41572  21.007  13.167  26.506
40708W        W41573  18.775  11.793  28.230
40709W        W41574  20.104  13.855  26.694
40710W        W41575  21.854  12.415  26.875
40711W        W41576  20.076  11.048  28.594
40712W        W41577  20.856  13.753  27.673
40713W        W41578  21.159  14.097  27.381
40714W        W41579  20.378  13.899  25.809
40715W        W41580  18.388  13.791  28.651
40716W        W41581  19.131  11.783  27.889
40717W        W41582  19.101  11.131  26.999
40718W        W41583  20.722  11.973  27.691
40719W        W41584  19.520  13.144  25.891
40720W        W41585  21.518  13.086  27.390
40721W        W41586  18.845  13.844  28.813
40722W        W41587  21.232  14.526  26.610
40723W        W41588  19.331  11.546  27.055
40724W        W41589  19.100  13.039  27.145
40725W        W41590  19.413  14.450  27.895
40726W        W41591  21.480  14.546  28.927
40727W        W41592  20.639  12.734  27.860
40728W        W41593  18.488  12.532  25.775
40729W        W41594  21.622  14.190  26.472
40730W        W41595  21.459  11.514  26.091
40731W        W41596  19.598  11.033  28.494
40732W        W41597  21.304  13.835  26.952
40733W        W41598  21.333  12.391  26.857
40734W        W41599  19.450  12.064  27.073
40735W        W41600  19.695  12.326  28.397
40736W        W41601  20.806  13.479  28.260
40737W        W41602  19.456  11.933  28.372
40738W        W41603  19.435  14.399  26.988
40739W        W41604  18.752  14.358  28.622
40740W        W41605  18.864  13.719  25.752
40741W        W41606  21.381  13.477  26.562
40742W        W41607  18.985  12.269  28.448
40743W        W41608  21.758  12.199  25.929
40744W        W41609  19.503  13.256  26.400
40745W        W41610  20.602  12.638  28.481
40746W        W41611  20.493  12.266  28.025
40747W        W41612  19.053  12.638  28.054
40748W        W41613  21.263  14.526  27.883
40749W        W41614  21.054  11.160  28.877
40750W        W41615  18.718  11.310  28.464
40751W        W41616  19.057  12.333  27.517
40752W        W41617  19.426  12.147  25.639
40753W        W41618  18.229  13.906  28.184
40754W        W41619  19.814  12.615  27.627
40755W        W41620  19.637  11.640  25.732
40756W        W41621  18.772  12.456  26.513
40757W        W41622  18.543  14.308  27.950
40758W        W41623  21.338  12.534  26.058
40759W        W41624  21.433  11.450  28.744
40760W        W41625  20.869  13.659  26.707
40761W        W41626  18.467  12.583  28.884
40762W        W41627  21.433  11.047  26.180
40763W        W41628  20.953  13.522  26.191
40764W        W41629  19.855  12.580  26.276
40765W        W41630  21.042  11.384  25.799
40766W        W41631  21.107  11.991  27.985
40767W        W41632  18.816  12.584  27.192
40768W        W41633  19.110  13.523  26.841
40769W        W41634  20.873  12.143  26.806
40770W        W41635  19.896  11.522  27.502
40771W        W41636  21.858  13.433  28.013
40772W        W41637  21.776  11.420  27.574
40773W        W41638  18.315  14.250  26.950
40774W        W41639  18.824  13.437  26.486
40775W        W41640  18.739  11.054  29.039
40776W        W41641  19.858  13.907  29.141
40777W        W41642  21.613  12.875  26.931
40778W        W41643  20.967  13.052  25.811
40779W        W41644  20.262  14.573  28.023
40780W        W41645  21.119  13.295  29.060
40781W        W41646  19.934  11.005  26.340
40782W        W41647  20.647  11.874  27.199
40783W        W41648  18.333  13.461  27.531
40784W        W41649  19.586  11.423  26.172
40785W        W41650  19.390  12.907  29.021
40786W        W41651  20.384  11.888  26.735
40787W        W41652  20.589  13.298  27.857
40788W        W41653  18.743  13.903  28.292
40789W        W41654  19.334  13.886  29.015
40790W        W41655  19.185  11.683  26.029
40791W        W41656  20.702  11.825  26.354
40792W        W41657  20.660  13.933  28.591
40793W        W41658  19.345  12.525  27.190
40794W        W41659  19.000  14.223  28.055
40795W        W41660  21.745  14.340  25.656
40796W        W41661  18.608  13.012  28.652
40797W        W41662  20.603  13.274  27.340
40798W        W41663  19.039  12.923  26.582
40799W        W41664  19.410  13.930  27.977
40800W        W41665  19.788  11.349  27.018
40801W        W41666  18.399  13.333  25.948
40802W        W41667  19.918  12.284  25.818
40803W        W41668  18.564  12.833  26.837
40804W        W41669  19.854  11.475  28.301
40805W        W41670  21.526  11.184  25.728
40806W        W41671  21.619  12.930  28.827
40807W        W41672  20.273  14.187  28.979
40808W        W41673  21.831  13.281  28.501
40809W        W41674  21.239  14.079  29.112
40810W        W41675  18.978  14.535  27.590
40811W        W41676  21.837  13.157  26.464
40812W        W41677  20.367  12.424  26.977
40813W        W41678  20.134  11.036  26.867
40814W        W41679  19.193  14.020  26.704
40815W        W41680  19.692  11.761  27.929
40816W        W41681  19.392  11.130  27.398
40817W        W41682  18.455  13.952  25.946
40818W        W41683  20.271  13.316  26.664
40819W        W41684  19.146  14.111  28.543
40820W        W41685  18.623  12.934  26.239
40821W        W41686  18.508  11.477  27.238
40822W        W41687  20.056  13.442  27.295
40823W        W41688  18.308  11.296  26.315
40824W        W41689  20.972  12.502  28.242
40825W        W41690  20.849  11.888  25.814
40826W        W41691  21.366  13.560  27.462
40827W        W41692  20.027  14.044  27.293
40828W        W41693  19.439  14.148  26.204
40829W        W41694  20.721  11.051  25.634
40830W        W41695  18.521  14.311  27.375
40831W        W41696  20.718  12.069  29.010
40832W        W41697  18.701  11.599  29.009
40833W        W41698  18.432  12.199  26.342
40834W        W41699  19.123  12.188  26.067
40835W        W41700  20.886  12.515  28.884
40836W        W41701  19.229  12.796  27.593
40837W        W41702  20.703  11.082  26.713
40838W        W41703  19.834  14.513  27.216
40839W        W41704  21.048  13.975  28.153
40840W        W41705  20.632  14.124  27.264
40841W        W41706  20.651  13.104  26.858
40842W        W41707  20.113  11.329  25.929
40843W        W41708  21.794  10.957  26.651
40844W        W41709  19.482  12.592  25.814
40845W        W41710  21.648  11.929  26.804
40846W        W41711  20.340  13.099  25.681
40847W        W41712  21.276  13.299  28.429
40848W        W41713  20.930  14.000  25.896
40849W        W41714  19.545  11.675  28.802
40850W        W41715  19.365  12.259  28.043
40851W        W41716  21.457  13.754  28.320
40852W        W41717  20.557  11.704  28.697
40853W        W41718  18.401  12.175  28.474
40854W        W41719  20.161  12.652  28.200
40855W        W41720  18.518  13.410  26.857
40856W        W41721  18.665  12.707  27.747
40857W        W41722  20.982  12.993  28.097
40858W        W41723  20.754  14.373  28.908
40859W        W41724  20.650  12.112  28.461
40860W        W41725  20.927  14.166  26.866
40861W        W41726  19.929  13.886  28.189
40862W        W41727  19.414  14.241  27.458
40863W        W41728  21.219  13.412  27.877
40864W        W41729  20.269  13.484  29.014
40865W        W41730  18.874  13.437  27.353
40866W        W41731  21.220  13.196  26.998
40867W        W41732  20.861  14.262  27.749
40868W        W41733  18.839  13.991  27.619
40869W        W41734  19.860  12.043  28.829
40870W        W41735  20.311  14.209  26.340
40871W        W41736  19.619  13.464  28.978
40872W        W41737  19.745  13.702  26.355
40873W        W41738  18.966  12.442  25.614
40874W        W41739  18.305  18.172   3.359
40875W        W41740  18.681  17.065   2.882
40876W        W41741  21.386  16.795   0.652
40877W        W41742  21.516  17.880   2.679
40878W        W41743  19.434  17.871   0.205
40879W        W41744  19.517  16.023   1.188
40880W        W41745  19.032  15.871   1.352
40881W        W41746  20.023  16.686   0.786
40882W        W41747  19.698  17.778   3.141
40883W        W41748  18.347  15.339   3.104
40884W        W41749  19.109  14.619   2.906
40885W        W41750  20.803  15.007   1.793
40886W        W41751  20.452  15.878   0.363
40887W        W41752  21.022  15.312   3.454
40888W        W41753  18.388  15.104   2.579
40889W        W41754  18.487  17.723   3.600
40890W        W41755  20.009  17.113   0.332
40891W        W41756  18.441  15.896   2.025
40892W        W41757  19.334  15.787   3.262
40893W        W41758  21.793  15.646   1.761
40894W        W41759  21.557  16.689   2.620
40895W        W41760  19.865  16.022   1.647
40896W        W41761  20.411  17.361   2.016
40897W        W41762  18.911  16.795   2.248
40898W        W41763  18.270  16.323   1.819
40899W        W41764  19.306  16.295   3.011
40900W        W41765  21.577  16.078   3.265
40901W        W41766  19.193  17.522   1.710
40902W        W41767  20.314  17.211   2.844
40903W        W41768  19.534  15.851   2.069
40904W        W41769  19.826  16.635   1.712
40905W        W41770  20.823  17.408   3.560
40906W        W41771  19.902  16.728   3.570
40907W        W41772  19.883  16.444   3.048
40908W        W41773  18.292  15.835   3.570
40909W        W41774  21.124  17.370   3.169
40910W        W41775  18.705  14.952   1.167
40911W        W41776  19.232  17.210   2.166
40912W        W41777  21.695  16.993   1.456
40913W        W41778  21.108  15.393   2.023
40914W        W41779  21.393  15.346   0.118
40915W        W41780  21.858  16.147   2.424
40916W        W41781  19.825  17.854   2.177
40917W        W41782  21.599  17.320   0.615
40918W        W41783  18.728  18.106   0.369
40919W        W41784  19.121  18.152   1.045
40920W        W41785  18.918  14.906   2.471
40921W        W41786  21.541  15.924   2.746
40922W        W41787  20.946  16.346   1.205
40923W        W41788  20.912  16.034   0.232
40924W        W41789  20.120  17.178   2.372
40925W        W41790  19.926  15.508   1.571
40926W        W41791  20.526  17.595   2.565
40927W        W41792  21.397  16.386   0.987
40928W        W41793  20.299  15.044   1.003
40929W        W41794  18.956  17.738   0.686
40930W        W41795  18.327  15.237   1.285
40931W        W41796  21.113  15.844   1.759
40932W        W41797  18.571  17.461   1.674
40933W        W41798  19.912  17.811   0.544
40934W        W41799  21.304  15.837   0.008
40935W        W41800  18.327  17.595   2.172
40936W        W41801  19.118  17.167   2.652
40937W        W41802  19.491  16.527   1.271
40938W        W41803  19.513  14.932   2.364
40939W        W41804  21.742  14.694   1.661
40940W        W41805  18.961  16.566   0.129
40941W        W41806  18.616  15.599   0.308
40942W        W41807  18.678  17.555   1.102
40943W        W41808  19.809  17.038   1.350
40944W        W41809  21.141  17.897   3.064
40945W        W41810  20.067  15.539   0.748
40946W        W41811  21.450  17.937   1.520
40947W        W41812  21.127  15.790   3.118
40948W        W41813  21.840  17.446   1.252
40949W        W41814  20.467  16.738   2.736
40950W        W41815  18.233  16.289   0.942
40951W        W41816  19.344  16.704   2.515
40952W        W41817  20.548  15.968   0.893
40953W        W41818  20.425  16.458   0.997
40954W        W41819  18.768  15.878   2.471
40955W        W41820  18.753  15.754   3.393
40956W        W41821  18.643  14.671   1.552
40957W        W41822  20.411  15.018   2.113
40958W        W41823  20.059  15.203   3.276
40959W        W41824  20.414  15.352   0.454
40960W        W41825  21.597  17.745   3.208
40961W        W41826  20.564  14.826   3.247
40962W        W41827  21.583  17.127   3.369
40963W        W41828  21.013  15.294   2.965
40964W        W41829  20.813  15.232   1.235
40965W        W41830  21.206  16.366   3.639
40966W        W41831  18.946  17.942   1.625
40967W        W41832  19.604  15.659   0.611
40968W        W41833  19.173  14.943   3.275
40969W        W41834  21.225  15.427   0.956
40970W        W41835  21.592  15.909   0.901
40971W        W41836  19.335  18.126   3.372
40972W        W41837  19.261  14.662   0.607
40973W        W41838  21.582  15.196   1.642
40974W        W41839  21.732  17.445   0.087
40975W        W41840  18.639  16.648   1.789
40976W        W41841  20.556  15.235   0.019
40977W        W41842  21.690  17.567   1.739
40978W        W41843  21.729  14.761   2.489
40979W        W41844  20.174  15.973   3.043
40980W        W41845  20.267  17.312   0.746
40981W        W41846  20.667  16.606   3.486
40982W        W41847  20.341  14.583   1.795
40983W        W41848  18.953  15.486   1.858
40984W        W41849  18.507  16.686   2.632
40985W        W41850  20.366  17.879   1.338
40986W        W41851  21.560  15.476   2.210
40987W        W41852  20.197  17.823   2.977
40988W        W41853  21.540  16.882   0.182
40989W        W41854  19.975  16.365   1.243
40990W        W41855  21.827  14.876   2.984
40991W        W41856  19.976  16.711   2.578
40992W        W41857  20.193  15.597   2.023
40993W        W41858  21.045  15.895   0.861
40994W        W41859  21.332  15.628   0.503
40995W        W41860  21.141  17.668   0.892
40996W        W41861  20.975  17.271   1.688
40997W        W41862  20.871  16.350   0.666
40998W        W41863  20.304  16.560   1.652
40999W        W41864  21.185  16.348   1.719
41000W        W41865  18.560  15.363   2.143
41001W        W41866  21.338  16.415   2.970
41002W        W41867  21.689  18.033   2.116
41003W        W41868  19.619  17.477   1.518
41004W        W41869  20.626  18.010   2.842
41005W        W41870  20.620  15.340   2.606
41006W        W41871  19.827  18.048   2.667
41007W        W41872  21.524  15.002   1.133
41008W        W41873  21.315  16.321   2.434
41009W        W41874  18.298  15.642   2.472
41010W        W41875  21.158  15.437   1.490
41011W        W41876  21.569  15.588   3.267
41012W        W41877  20.454  17.287   1.485
41013W        W41878  19.710  17.878   1.098
41014W        W41879  18.825  15.058   0.356
41015W        W41880  19.929  14.712   2.166
41016W        W41881  18.957  17.832   0.014
41017W        W41882  19.331  16.298   0.765
41018W        W41883  19.985  16.927   3.078
41019W        W41884  19.815  15.285   1.068
41020W        W41885  21.171  14.882   1.496
41021W        W41886  20.891  18.164   1.824
41022W        W41887  20.303  17.812   2.164
41023W        W41888  19.699  16.849   2.125
41024W        W41889  21.469  17.572   2.251
41025W        W41890  19.163  15.075   1.020
41026W        W41891  19.685  17.372   1.980
41027W        W41892  19.168  15.303   0.045
41028W        W41893  19.969  15.912   2.439
41029W        W41894  20.817  14.778   2.309
41030W        W41895  18.237  16.621   2.194
41031W        W41896  19.941  16.439   0.352
41032W        W41897  19.209  14.754   0.122
41033W        W41898  19.947  15.835   1.173
41034W        W41899  20.917  14.811   2.872
41035W        W41900  19.505  16.823   2.981
41036W        W41901  20.309  16.605   3.198
41037W        W41902  20.926  16.635   3.091
41038W        W41903  20.210  14.775   3.596
41039W        W41904  19.432  15.391   1.989
41040W        W41905  18.858  15.347   1.387
41041W        W41906  18.644  18.059   1.063
41042W        W41907  19.976  17.389   3.188
41043W        W41908  19.011  16.874   0.547
41044W        W41909  20.691  16.259   1.768
41045W        W41910  20.971  16.058   2.167
41046W        W41911  20.176  16.732   2.101
41047W        W41912  20.646  17.106   0.233
41048W        W41913  20.318  15.127   1.561
41049W        W41914  21.797  15.405   0.829
41050W        W41915  18.291  17.994   2.860
41051W        W41916  18.708  17.220   2.392
41052W        W41917  18.275  18.066   0.624
41053W        W41918  20.174  15.336   2.430
41054W        W41919  19.537  17.359   0.279
41055W        W41920  21.442  17.741   0.465
41056W        W41921  20.417  16.394   0.479
41057W        W41922  19.260  15.585   0.996
41058W        W41923  20.092  15.495   0.048
41059W        W41924  20.676  17.060   3.226
41060W        W41925  21.029  14.966   0.843
41061W        W41926  18.359  14.814   0.291
41062W        W41927  19.645  17.133   2.581
41063W        W41928  19.444  17.049   1.673
41064W        W41929  19.186  17.001   0.071
41065W        W41930  18.427  17.242   0.839
41066W        W41931  18.931  16.312   3.281
41067W        W41932  19.635  14.872   3.467
41068W        W41933  20.344  15.014   2.823
41069W        W41934  19.539  14.782   1.104
41070W        W41935  20.598  14.859   0.609
41071W        W41936  18.543  14.791   2.186
41072W        W41937  18.591  15.754   1.556
41073W        W41938  21.280  14.862   1.962
41074W        W41939  18.702  15.360   0.776
41075W        W41940  21.273  15.048   2.392
41076W        W41941  21.669  16.251   0.077
41077W        W41942  18.961  15.009   1.896
41078W        W41943  20.075  15.581   2.836
41079W        W41944  18.223  15.271   0.314
41080W        W41945  19.009  16.660   2.875
41081W        W41946  20.367  16.058   2.054
41082W        W41947  20.234  18.137   0.350
41083W        W41948  18.380  16.644   0.047
41084W        W41949  19.115  17.055   3.173
41085W        W41950  18.636  16.222   2.804
41086W        W41951  19.627  16.327   2.598
41087W        W41952  21.395  14.686   2.860
41088W        W41953  21.793  16.296   2.851
41089W        W41954  21.781  16.496   0.537
41090W        W41955  20.644  16.828   0.636
41091W        W41956  21.118  18.128   0.331
41092W        W41957  20.295  16.118   3.473
41093W        W41958  18.625  17.085   3.513
41094W        W41959  21.831  15.007   3.465
41095W        W41960  21.549  15.935   2.086
41096W        W41961  19.857  18.065   3.563
41097W        W41962  19.712  14.694   0.290
41098W        W41963  21.251  17.293   0.233
41099W        W41964  19.020  15.386   3.119
41100W        W41965  19.454  17.380   2.981
41101W        W41966  21.580  15.371   2.779
41102W        W41967  20.791  18.030   0.747
41103W        W41968  21.030  16.649   2.114
41104W        W41969  19.280  15.065   2.781
41105W        W41970  19.749  16.134   3.538
41106W        W41971  19.252  17.313   0.732
41107W        W41972  21.007  16.811   0.996
41108W        W41973  18.775  15.437   2.720
41109W        W41974  20.104  17.499   1.184
41110W        W41975  21.854  16.059   1.365
41111W        W41976  20.076  14.692   3.084
41112W        W41977  20.856  17.397   2.163
41113W        W41978  21.159  17.741   1.871
41114W        W41979  20.378  17.543   0.299
41115W        W41980  18.388  17.435   3.141
41116W        W41981  19.131  15.427   2.379
41117W        W41982  19.101  14.775   1.489
41118W        W41983  20.722  15.617   2.181
41119W        W41984  19.520  16.788   0.381
41120W        W41985  21.518  16.730   1.880
41121W        W41986  18.845  17.488   3.303
41122W        W41987  21.232  18.170   1.100
41123W        W41988  19.331  15.190   1.545
41124W        W41989  19.100  16.683   1.635
41125W        W41990  19.413  18.094   2.385
41126W        W41991  21.480  18.190   3.417
41127W        W41992  20.639  16.378   2.350
41128W        W41993  18.488  16.176   0.265
41129W        W41994  21.622  17.834   0.962
41130W        W41995  21.459  15.158   0.581
41131W        W41996  19.598  14.677   2.984
41132W        W41997  21.304  17.479   1.442
41133W        W41998  21.333  16.035   1.347
41134W        W41999  19.450  15.708   1.563
41135W        W42000  19.695  15.970   2.887
41136W        W42001  20.806  17.123   2.750
41137W        W42002  19.456  15.577   2.862
41138W        W42003  19.435  18.043   1.478
41139W        W42004  18.752  18.002   3.112
41140W        W42005  18.864  17.363   0.242
41141W        W42006  21.381  17.121   1.052
41142W        W42007  18.985  15.913   2.938
41143W        W42008  21.758  15.843   0.419
41144W        W42009  19.503  16.900   0.890
41145W        W42010  20.602  16.282   2.971
41146W        W42011  20.493  15.910   2.515
41147W        W42012  19.053  16.282   2.544
41148W        W42013  21.263  18.170   2.373
41149W        W42014  21.054  14.804   3.367
41150W        W42015  18.718  14.954   2.954
41151W        W42016  19.057  15.977   2.007
41152W        W42017  19.426  15.791   0.129
41153W        W42018  18.229  17.550   2.674
41154W        W42019  19.814  16.259   2.117
41155W        W42020  19.637  15.284   0.222
41156W        W42021  18.772  16.100   1.003
41157W        W42022  18.543  17.952   2.440
41158W        W42023  21.338  16.178   0.548
41159W        W42024  21.433  15.094   3.234
41160W        W42025  20.869  17.303   1.197
41161W        W42026  18.467  16.227   3.374
41162W        W42027  21.433  14.691   0.670
41163W        W42028  20.953  17.166   0.681
41164W        W42029  19.855  16.224   0.766
41165W        W42030  21.042  15.028   0.289
41166W        W42031  21.107  15.635   2.475
41167W        W42032  18.816  16.228   1.682
41168W        W42033  19.110  17.167   1.331
41169W        W42034  20.873  15.787   1.296
41170W        W42035  19.896  15.166   1.992
41171W        W42036  21.858  17.077   2.503
41172W        W42037  21.776  15.064   2.064
41173W        W42038  18.315  17.894   1.440
41174W        W42039  18.824  17.081   0.976
41175W        W42040  18.739  14.698   3.529
41176W        W42041  19.858  17.551   3.631
41177W        W42042  21.613  16.519   1.421
41178W        W42043  20.967  16.696   0.301
41179W        W42044  20.262  18.217   2.513
41180W        W42045  21.119  16.939   3.550
41181W        W42046  19.934  14.649   0.830
41182W        W42047  20.647  15.518   1.689
41183W        W42048  18.333  17.105   2.021
41184W        W42049  19.586  15.067   0.662
41185W        W42050  19.390  16.551   3.511
41186W        W42051  20.384  15.532   1.225
41187W        W42052  20.589  16.942   2.347
41188W        W42053  18.743  17.547   2.782
41189W        W42054  19.334  17.530   3.505
41190W        W42055  19.185  15.327   0.519
41191W        W42056  20.702  15.469   0.844
41192W        W42057  20.660  17.577   3.081
41193W        W42058  19.345  16.169   1.680
41194W        W42059  19.000  17.867   2.545
41195W        W42060  21.745  17.984   0.146
41196W        W42061  18.608  16.656   3.142
41197W        W42062  20.603  16.918   1.830
41198W        W42063  19.039  16.567   1.072
41199W        W42064  19.410  17.574   2.467
41200W        W42065  19.788  14.993   1.508
41201W        W42066  18.399  16.977   0.438
41202W        W42067  19.918  15.928   0.308
41203W        W42068  18.564  16.477   1.327
41204W        W42069  19.854  15.119   2.791
41205W        W42070  21.526  14.828   0.218
41206W        W42071  21.619  16.574   3.317
41207W        W42072  20.273  17.831   3.469
41208W        W42073  21.831  16.925   2.991
41209W        W42074  21.239  17.723   3.602
41210W        W42075  18.978  18.179   2.080
41211W        W42076  21.837  16.801   0.954
41212W        W42077  20.367  16.068   1.467
41213W        W42078  20.134  14.680   1.357
41214W        W42079  19.193  17.664   1.194
41215W        W42080  19.692  15.405   2.419
41216W        W42081  19.392  14.774   1.888
41217W        W42082  18.455  17.596   0.436
41218W        W42083  20.271  16.960   1.154
41219W        W42084  19.146  17.755   3.033
41220W        W42085  18.623  16.578   0.729
41221W        W42086  18.508  15.121   1.728
41222W        W42087  20.056  17.086   1.785
41223W        W42088  18.308  14.940   0.805
41224W        W42089  20.972  16.146   2.732
41225W        W42090  20.849  15.532   0.304
41226W        W42091  21.366  17.204   1.952
41227W        W42092  20.027  17.688   1.783
41228W        W42093  19.439  17.792   0.694
41229W        W42094  20.721  14.695   0.124
41230W        W42095  18.521  17.955   1.865
41231W        W42096  20.718  15.713   3.500
41232W        W42097  18.701  15.243   3.499
41233W        W42098  18.432  15.843   0.832
41234W        W42099  19.123  15.832   0.557
41235W        W42100  20.886  16.159   3.374
41236W        W42101  19.229  16.440   2.083
41237W        W42102  20.703  14.726   1.203
41238W        W42103  19.834  18.157   1.706
41239W        W42104  21.048  17.619   2.643
41240W        W42105  20.632  17.768   1.754
41241W        W42106  20.651  16.748   1.348
41242W        W42107  20.113  14.973   0.419
41243W        W42108  21.794  14.601   1.141
41244W        W42109  19.482  16.236   0.304
41245W        W42110  21.648  15.573   1.294
41246W        W42111  20.340  16.743   0.171
41247W        W42112  21.276  16.943   2.919
41248W        W42113  20.930  17.644   0.386
41249W        W42114  19.545  15.319   3.292
41250W        W42115  19.365  15.903   2.533
41251W        W42116  21.457  17.398   2.810
41252W        W42117  20.557  15.348   3.187
41253W        W42118  18.401  15.819   2.964
41254W        W42119  20.161  16.296   2.690
41255W        W42120  18.518  17.054   1.347
41256W        W42121  18.665  16.351   2.237
41257W        W42122  20.982  16.637   2.587
41258W        W42123  20.754  18.017   3.398
41259W        W42124  20.650  15.756   2.951
41260W        W42125  20.927  17.810   1.356
41261W        W42126  19.929  17.530   2.679
41262W        W42127  19.414  17.885   1.948
41263W        W42128  21.219  17.056   2.367
41264W        W42129  20.269  17.128   3.504
41265W        W42130  18.874  17.081   1.843
41266W        W42131  21.220  16.840   1.488
41267W        W42132  20.861  17.906   2.239
41268W        W42133  18.839  17.635   2.109
41269W        W42134  19.860  15.687   3.319
41270W        W42135  20.311  17.853   0.830
41271W        W42136  19.619  17.108   3.468
41272W        W42137  19.745  17.346   0.845
41273W        W42138  18.966  16.086   0.104
41274W        W42139  18.305  18.172   7.003
41275W        W42140  18.681  17.065   6.526
41276W        W42141  21.386  16.795   4.296
41277W        W42142  21.516  17.880   6.323
41278W        W42143  19.434  17.871   3.849
41279W        W42144  19.517  16.023   4.832
41280W        W42145  19.032  15.871   4.996
41281W        W42146  20.023  16.686   4.430
41282W        W42147  19.698  17.778   6.785
41283W        W42148  18.347  15.339   6.748
41284W        W42149  19.109  14.619   6.550
41285W        W42150  20.803  15.007   5.437
41286W        W42151  20.452  15.878   4.007
41287W        W42152  21.022  15.312   7.098
41288W        W42153  18.388  15.104   6.223
41289W        W42154  18.487  17.723   7.244
41290W        W42155  20.009  17.113   3.976
41291W        W42156  18.441  15.896   5.669
41292W        W42157  19.334  15.787   6.906
41293W        W42158  21.793  15.646   5.405
41294W        W42159  21.557  16.689   6.264
41295W        W42160  19.865  16.022   5.291
41296W        W42161  20.411  17.361   5.660
41297W        W42162  18.911  16.795   5.892
41298W        W42163  18.270  16.323   5.463
41299W        W42164  19.306  16.295   6.655
41300W        W42165  21.577  16.078   6.909
41301W        W42166  19.193  17.522   5.354
41302W        W42167  20.314  17.211   6.488
41303W        W42168  19.534  15.851   5.713
41304W        W42169  19.826  16.635   5.356
41305W        W42170  20.823  17.408   7.204
41306W        W42171  19.902  16.728   7.214
41307W        W42172  19.883  16.444   6.692
41308W        W42173  18.292  15.835   7.214
41309W        W42174  21.124  17.370   6.813
41310W        W42175  18.705  14.952   4.811
41311W        W42176  19.232  17.210   5.810
41312W        W42177  21.695  16.993   5.100
41313W        W42178  21.108  15.393   5.667
41314W        W42179  21.393  15.346   3.762
41315W        W42180  21.858  16.147   6.068
41316W        W42181  19.825  17.854   5.821
41317W        W42182  21.599  17.320   4.259
41318W        W42183  18.728  18.106   4.013
41319W        W42184  19.121  18.152   4.689
41320W        W42185  18.918  14.906   6.115
41321W        W42186  21.541  15.924   6.390
41322W        W42187  20.946  16.346   4.849
41323W        W42188  20.912  16.034   3.876
41324W        W42189  20.120  17.178   6.016
41325W        W42190  19.926  15.508   5.215
41326W        W42191  20.526  17.595   6.209
41327W        W42192  21.397  16.386   4.631
41328W        W42193  20.299  15.044   4.647
41329W        W42194  18.956  17.738   4.330
41330W        W42195  18.327  15.237   4.929
41331W        W42196  21.113  15.844   5.403
41332W        W42197  18.571  17.461   5.318
41333W        W42198  19.912  17.811   4.188
41334W        W42199  21.304  15.837   3.652
41335W        W42200  18.327  17.595   5.816
41336W        W42201  19.118  17.167   6.296
41337W        W42202  19.491  16.527   4.915
41338W        W42203  19.513  14.932   6.008
41339W        W42204  21.742  14.694   5.305
41340W        W42205  18.961  16.566   3.773
41341W        W42206  18.616  15.599   3.952
41342W        W42207  18.678  17.555   4.746
41343W        W42208  19.809  17.038   4.994
41344W        W42209  21.141  17.897   6.708
41345W        W42210  20.067  15.539   4.392
41346W        W42211  21.450  17.937   5.164
41347W        W42212  21.127  15.790   6.762
41348W        W42213  21.840  17.446   4.896
41349W        W42214  20.467  16.738   6.380
41350W        W42215  18.233  16.289   4.586
41351W        W42216  19.344  16.704   6.159
41352W        W42217  20.548  15.968   4.537
41353W        W42218  20.425  16.458   4.641
41354W        W42219  18.768  15.878   6.115
41355W        W42220  18.753  15.754   7.037
41356W        W42221  18.643  14.671   5.196
41357W        W42222  20.411  15.018   5.757
41358W        W42223  20.059  15.203   6.920
41359W        W42224  20.414  15.352   4.098
41360W        W42225  21.597  17.745   6.852
41361W        W42226  20.564  14.826   6.891
41362W        W42227  21.583  17.127   7.013
41363W        W42228  21.013  15.294   6.609
41364W        W42229  20.813  15.232   4.879
41365W        W42230  21.206  16.366   7.283
41366W        W42231  18.946  17.942   5.269
41367W        W42232  19.604  15.659   4.255
41368W        W42233  19.173  14.943   6.919
41369W        W42234  21.225  15.427   4.600
41370W        W42235  21.592  15.909   4.545
41371W        W42236  19.335  18.126   7.016
41372W        W42237  19.261  14.662   4.251
41373W        W42238  21.582  15.196   5.286
41374W        W42239  21.732  17.445   3.731
41375W        W42240  18.639  16.648   5.433
41376W        W42241  20.556  15.235   3.663
41377W        W42242  21.690  17.567   5.383
41378W        W42243  21.729  14.761   6.133
41379W        W42244  20.174  15.973   6.687
41380W        W42245  20.267  17.312   4.390
41381W        W42246  20.667  16.606   7.130
41382W        W42247  20.341  14.583   5.439
41383W        W42248  18.953  15.486   5.502
41384W        W42249  18.507  16.686   6.276
41385W        W42250  20.366  17.879   4.982
41386W        W42251  21.560  15.476   5.854
41387W        W42252  20.197  17.823   6.621
41388W        W42253  21.540  16.882   3.826
41389W        W42254  19.975  16.365   4.887
41390W        W42255  21.827  14.876   6.628
41391W        W42256  19.976  16.711   6.222
41392W        W42257  20.193  15.597   5.667
41393W        W42258  21.045  15.895   4.505
41394W        W42259  21.332  15.628   4.147
41395W        W42260  21.141  17.668   4.536
41396W        W42261  20.975  17.271   5.332
41397W        W42262  20.871  16.350   4.310
41398W        W42263  20.304  16.560   5.296
41399W        W42264  21.185  16.348   5.363
41400W        W42265  18.560  15.363   5.787
41401W        W42266  21.338  16.415   6.614
41402W        W42267  21.689  18.033   5.760
41403W        W42268  19.619  17.477   5.162
41404W        W42269  20.626  18.010   6.486
41405W        W42270  20.620  15.340   6.250
41406W        W42271  19.827  18.048   6.311
41407W        W42272  21.524  15.002   4.777
41408W        W42273  21.315  16.321   6.078
41409W        W42274  18.298  15.642   6.116
41410W        W42275  21.158  15.437   5.134
41411W        W42276  21.569  15.588   6.911
41412W        W42277  20.454  17.287   5.129
41413W        W42278  19.710  17.878   4.742
41414W        W42279  18.825  15.058   4.000
41415W        W42280  19.929  14.712   5.810
41416W        W42281  18.957  17.832   3.658
41417W        W42282  19.331  16.298   4.409
41418W        W42283  19.985  16.927   6.722
41419W        W42284  19.815  15.285   4.712
41420W        W42285  21.171  14.882   5.140
41421W        W42286  20.891  18.164   5.468
41422W        W42287  20.303  17.812   5.808
41423W        W42288  19.699  16.849   5.769
41424W        W42289  21.469  17.572   5.895
41425W        W42290  19.163  15.075   4.664
41426W        W42291  19.685  17.372   5.624
41427W        W42292  19.168  15.303   3.689
41428W        W42293  19.969  15.912   6.083
41429W        W42294  20.817  14.778   5.953
41430W        W42295  18.237  16.621   5.838
41431W        W42296  19.941  16.439   3.996
41432W        W42297  19.209  14.754   3.766
41433W        W42298  19.947  15.835   4.817
41434W        W42299  20.917  14.811   6.516
41435W        W42300  19.505  16.823   6.625
41436W        W42301  20.309  16.605   6.842
41437W        W42302  20.926  16.635   6.735
41438W        W42303  20.210  14.775   7.240
41439W        W42304  19.432  15.391   5.633
41440W        W42305  18.858  15.347   5.031
41441W        W42306  18.644  18.059   4.707
41442W        W42307  19.976  17.389   6.832
41443W        W42308  19.011  16.874   4.191
41444W        W42309  20.691  16.259   5.412
41445W        W42310  20.971  16.058   5.811
41446W        W42311  20.176  16.732   5.745
41447W        W42312  20.646  17.106   3.877
41448W        W42313  20.318  15.127   5.205
41449W        W42314  21.797  15.405   4.473
41450W        W42315  18.291  17.994   6.504
41451W        W42316  18.708  17.220   6.036
41452W        W42317  18.275  18.066   4.268
41453W        W42318  20.174  15.336   6.074
41454W        W42319  19.537  17.359   3.923
41455W        W42320  21.442  17.741   4.109
41456W        W42321  20.417  16.394   4.123
41457W        W42322  19.260  15.585   4.640
41458W        W42323  20.092  15.495   3.692
41459W        W42324  20.676  17.060   6.870
41460W        W42325  21.029  14.966   4.487
41461W        W42326  18.359  14.814   3.935
41462W        W42327  19.645  17.133   6.225
41463W        W42328  19.444  17.049   5.317
41464W        W42329  19.186  17.001   3.715
41465W        W42330  18.427  17.242   4.483
41466W        W42331  18.931  16.312   6.925
41467W        W42332  19.635  14.872   7.111
41468W        W42333  20.344  15.014   6.467
41469W        W42334  19.539  14.782   4.748
41470W        W42335  20.598  14.859   4.253
41471W        W42336  18.543  14.791   5.830
41472W        W42337  18.591  15.754   5.200
41473W        W42338  21.280  14.862   5.606
41474W        W42339  18.702  15.360   4.420
41475W        W42340  21.273  15.048   6.036
41476W        W42341  21.669  16.251   3.721
41477W        W42342  18.961  15.009   5.540
41478W        W42343  20.075  15.581   6.480
41479W        W42344  18.223  15.271   3.958
41480W        W42345  19.009  16.660   6.519
41481W        W42346  20.367  16.058   5.698
41482W        W42347  20.234  18.137   3.994
41483W        W42348  18.380  16.644   3.691
41484W        W42349  19.115  17.055   6.817
41485W        W42350  18.636  16.222   6.448
41486W        W42351  19.627  16.327   6.242
41487W        W42352  21.395  14.686   6.504
41488W        W42353  21.793  16.296   6.495
41489W        W42354  21.781  16.496   4.181
41490W        W42355  20.644  16.828   4.280
41491W        W42356  21.118  18.128   3.975
41492W        W42357  20.295  16.118   7.117
41493W        W42358  18.625  17.085   7.157
41494W        W42359  21.831  15.007   7.109
41495W        W42360  21.549  15.935   5.730
41496W        W42361  19.857  18.065   7.207
41497W        W42362  19.712  14.694   3.934
41498W        W42363  21.251  17.293   3.877
41499W        W42364  19.020  15.386   6.763
41500W        W42365  19.454  17.380   6.625
41501W        W42366  21.580  15.371   6.423
41502W        W42367  20.791  18.030   4.391
41503W        W42368  21.030  16.649   5.758
41504W        W42369  19.280  15.065   6.425
41505W        W42370  19.749  16.134   7.182
41506W        W42371  19.252  17.313   4.376
41507W        W42372  21.007  16.811   4.640
41508W        W42373  18.775  15.437   6.364
41509W        W42374  20.104  17.499   4.828
41510W        W42375  21.854  16.059   5.009
41511W        W42376  20.076  14.692   6.728
41512W        W42377  20.856  17.397   5.807
41513W        W42378  21.159  17.741   5.515
41514W        W42379  20.378  17.543   3.943
41515W        W42380  18.388  17.435   6.785
41516W        W42381  19.131  15.427   6.023
41517W        W42382  19.101  14.775   5.133
41518W        W42383  20.722  15.617   5.825
41519W        W42384  19.520  16.788   4.025
41520W        W42385  21.518  16.730   5.524
41521W        W42386  18.845  17.488   6.947
41522W        W42387  21.232  18.170   4.744
41523W        W42388  19.331  15.190   5.189
41524W        W42389  19.100  16.683   5.279
41525W        W42390  19.413  18.094   6.029
41526W        W42391  21.480  18.190   7.061
41527W        W42392  20.639  16.378   5.994
41528W        W42393  18.488  16.176   3.909
41529W        W42394  21.622  17.834   4.606
41530W        W42395  21.459  15.158   4.225
41531W        W42396  19.598  14.677   6.628
41532W        W42397  21.304  17.479   5.086
41533W        W42398  21.333  16.035   4.991
41534W        W42399  19.450  15.708   5.207
41535W        W42400  19.695  15.970   6.531
41536W        W42401  20.806  17.123   6.394
41537W        W42402  19.456  15.577   6.506
41538W        W42403  19.435  18.043   5.122
41539W        W42404  18.752  18.002   6.756
41540W        W42405  18.864  17.363   3.886
41541W        W42406  21.381  17.121   4.696
41542W        W42407  18.985  15.913   6.582
41543W        W42408  21.758  15.843   4.063
41544W        W42409  19.503  16.900   4.534
41545W        W42410  20.602  16.282   6.615
41546W        W42411  20.493  15.910   6.159
41547W        W42412  19.053  16.282   6.188
41548W        W42413  21.263  18.170   6.017
41549W        W42414  21.054  14.804   7.011
41550W        W42415  18.718  14.954   6.598
41551W        W42416  19.057  15.977   5.651
41552W        W42417  19.426  15.791   3.773
41553W        W42418  18.229  17.550   6.318
41554W        W42419  19.814  16.259   5.761
41555W        W42420  19.637  15.284   3.866
41556W        W42421  18.772  16.100   4.647
41557W        W42422  18.543  17.952   6.084
41558W        W42423  21.338  16.178   4.192
41559W        W42424  21.433  15.094   6.878
41560W        W42425  20.869  17.303   4.841
41561W        W42426  18.467  16.227   7.018
41562W        W42427  21.433  14.691   4.314
41563W        W42428  20.953  17.166   4.325
41564W        W42429  19.855  16.224   4.410
41565W        W42430  21.042  15.028   3.933
41566W        W42431  21.107  15.635   6.119
41567W        W42432  18.816  16.228   5.326
41568W        W42433  19.110  17.167   4.975
41569W        W42434  20.873  15.787   4.940
41570W        W42435  19.896  15.166   5.636
41571W        W42436  21.858  17.077   6.147
41572W        W42437  21.776  15.064   5.708
41573W        W42438  18.315  17.894   5.084
41574W        W42439  18.824  17.081   4.620
41575W        W42440  18.739  14.698   7.173
41576W        W42441  19.858  17.551   7.275
41577W        W42442  21.613  16.519   5.065
41578W        W42443  20.967  16.696   3.945
41579W        W42444  20.262  18.217   6.157
41580W        W42445  21.119  16.939   7.194
41581W        W42446  19.934  14.649   4.474
41582W        W42447  20.647  15.518   5.333
41583W        W42448  18.333  17.105   5.665
41584W        W42449  19.586  15.067   4.306
41585W        W42450  19.390  16.551   7.155
41586W        W42451  20.384  15.532   4.869
41587W        W42452  20.589  16.942   5.991
41588W        W42453  18.743  17.547   6.426
41589W        W42454  19.334  17.530   7.149
41590W        W42455  19.185  15.327   4.163
41591W        W42456  20.702  15.469   4.488
41592W        W42457  20.660  17.577   6.725
41593W        W42458  19.345  16.169   5.324
41594W        W42459  19.000  17.867   6.189
41595W        W42460  21.745  17.984   3.790
41596W        W42461  18.608  16.656   6.786
41597W        W42462  20.603  16.918   5.474
41598W        W42463  19.039  16.567   4.716
41599W        W42464  19.410  17.574   6.111
41600W        W42465  19.788  14.993   5.152
41601W        W42466  18.399  16.977   4.082
41602W        W42467  19.918  15.928   3.952
41603W        W42468  18.564  16.477   4.971
41604W        W42469  19.854  15.119   6.435
41605W        W42470  21.526  14.828   3.862
41606W        W42471  21.619  16.574   6.961
41607W        W42472  20.273  17.831   7.113
41608W        W42473  21.831  16.925   6.635
41609W        W42474  21.239  17.723   7.246
41610W        W42475  18.978  18.179   5.724
41611W        W42476  21.837  16.801   4.598
41612W        W42477  20.367  16.068   5.111
41613W        W42478  20.134  14.680   5.001
41614W        W42479  19.193  17.664   4.838
41615W        W42480  19.692  15.405   6.063
41616W        W42481  19.392  14.774   5.532
41617W        W42482  18.455  17.596   4.080
41618W        W42483  20.271  16.960   4.798
41619W        W42484  19.146  17.755   6.677
41620W        W42485  18.623  16.578   4.373
41621W        W42486  18.508  15.121   5.372
41622W        W42487  20.056  17.086   5.429
41623W        W42488  18.308  14.940   4.449
41624W        W42489  20.972  16.146   6.376
41625W        W42490  20.849  15.532   3.948
41626W        W42491  21.366  17.204   5.596
41627W        W42492  20.027  17.688   5.427
41628W        W42493  19.439  17.792   4.338
41629W        W42494  20.721  14.695   3.768
41630W        W42495  18.521  17.955   5.509
41631W        W42496  20.718  15.713   7.144
41632W        W42497  18.701  15.243   7.143
41633W        W42498  18.432  15.843   4.476
41634W        W42499  19.123  15.832   4.201
41635W        W42500  20.886  16.159   7.018
41636W        W42501  19.229  16.440   5.727
41637W        W42502  20.703  14.726   4.847
41638W        W42503  19.834  18.157   5.350
41639W        W42504  21.048  17.619   6.287
41640W        W42505  20.632  17.768   5.398
41641W        W42506  20.651  16.748   4.992
41642W        W42507  20.113  14.973   4.063
41643W        W42508  21.794  14.601   4.785
41644W        W42509  19.482  16.236   3.948
41645W        W42510  21.648  15.573   4.938
41646W        W42511  20.340  16.743   3.815
41647W        W42512  21.276  16.943   6.563
41648W        W42513  20.930  17.644   4.030
41649W        W42514  19.545  15.319   6.936
41650W        W42515  19.365  15.903   6.177
41651W        W42516  21.457  17.398   6.454
41652W        W42517  20.557  15.348   6.831
41653W        W42518  18.401  15.819   6.608
41654W        W42519  20.161  16.296   6.334
41655W        W42520  18.518  17.054   4.991
41656W        W42521  18.665  16.351   5.881
41657W        W42522  20.982  16.637   6.231
41658W        W42523  20.754  18.017   7.042
41659W        W42524  20.650  15.756   6.595
41660W        W42525  20.927  17.810   5.000
41661W        W42526  19.929  17.530   6.323
41662W        W42527  19.414  17.885   5.592
41663W        W42528  21.219  17.056   6.011
41664W        W42529  20.269  17.128   7.148
41665W        W42530  18.874  17.081   5.487
41666W        W42531  21.220  16.840   5.132
41667W        W42532  20.861  17.906   5.883
41668W        W42533  18.839  17.635   5.753
41669W        W42534  19.860  15.687   6.963
41670W        W42535  20.311  17.853   4.474
41671W        W42536  19.619  17.108   7.112
41672W        W42537  19.745  17.346   4.489
41673W        W42538  18.966  16.086   3.748
41674W        W42539  18.305  18.172  10.648
41675W        W42540  18.681  17.065  10.171
41676W        W42541  21.386  16.795   7.941
41677W        W42542  21.516  17.880   9.968
41678W        W42543  19.434  17.871   7.494
41679W        W42544  19.517  16.023   8.477
41680W        W42545  19.032  15.871   8.641
41681W        W42546  20.023  16.686   8.075
41682W        W42547  19.698  17.778  10.430
41683W        W42548  18.347  15.339  10.393
41684W        W42549  19.109  14.619  10.195
41685W        W42550  20.803  15.007   9.082
41686W        W42551  20.452  15.878   7.652
41687W        W42552  21.022  15.312  10.743
41688W        W42553  18.388  15.104   9.868
41689W        W42554  18.487  17.723  10.889
41690W        W42555  20.009  17.113   7.621
41691W        W42556  18.441  15.896   9.314
41692W        W42557  19.334  15.787  10.551
41693W        W42558  21.793  15.646   9.050
41694W        W42559  21.557  16.689   9.909
41695W        W42560  19.865  16.022   8.936
41696W        W42561  20.411  17.361   9.305
41697W        W42562  18.911  16.795   9.537
41698W        W42563  18.270  16.323   9.108
41699W        W42564  19.306  16.295  10.300
41700W        W42565  21.577  16.078  10.554
41701W        W42566  19.193  17.522   8.999
41702W        W42567  20.314  17.211  10.133
41703W        W42568  19.534  15.851   9.358
41704W        W42569  19.826  16.635   9.001
41705W        W42570  20.823  17.408  10.849
41706W        W42571  19.902  16.728  10.859
41707W        W42572  19.883  16.444  10.337
41708W        W42573  18.292  15.835  10.859
41709W        W42574  21.124  17.370  10.458
41710W        W42575  18.705  14.952   8.456
41711W        W42576  19.232  17.210   9.455
41712W        W42577  21.695  16.993   8.745
41713W        W42578  21.108  15.393   9.312
41714W        W42579  21.393  15.346   7.407
41715W        W42580  21.858  16.147   9.713
41716W        W42581  19.825  17.854   9.466
41717W        W42582  21.599  17.320   7.904
41718W        W42583  18.728  18.106   7.658
41719W        W42584  19.121  18.152   8.334
41720W        W42585  18.918  14.906   9.760
41721W        W42586  21.541  15.924  10.035
41722W        W42587  20.946  16.346   8.494
41723W        W42588  20.912  16.034   7.521
41724W        W42589  20.120  17.178   9.661
41725W        W42590  19.926  15.508   8.860
41726W        W42591  20.526  17.595   9.854
41727W        W42592  21.397  16.386   8.276
41728W        W42593  20.299  15.044   8.292
41729W        W42594  18.956  17.738   7.975
41730W        W42595  18.327  15.237   8.574
41731W        W42596  21.113  15.844   9.048
41732W        W42597  18.571  17.461   8.963
41733W        W42598  19.912  17.811   7.833
41734W        W42599  21.304  15.837   7.297
41735W        W42600  18.327  17.595   9.461
41736W        W42601  19.118  17.167   9.941
41737W        W42602  19.491  16.527   8.560
41738W        W42603  19.513  14.932   9.653
41739W        W42604  21.742  14.694   8.950
41740W        W42605  18.961  16.566   7.418
41741W        W42606  18.616  15.599   7.597
41742W        W42607  18.678  17.555   8.391
41743W        W42608  19.809  17.038   8.639
41744W        W42609  21.141  17.897  10.353
41745W        W42610  20.067  15.539   8.037
41746W        W42611  21.450  17.937   8.809
41747W        W42612  21.127  15.790  10.407
41748W        W42613  21.840  17.446   8.541
41749W        W42614  20.467  16.738  10.025
41750W        W42615  18.233  16.289   8.231
41751W        W42616  19.344  16.704   9.804
41752W        W42617  20.548  15.968   8.182
41753W        W42618  20.425  16.458   8.286
41754W        W42619  18.768  15.878   9.760
41755W        W42620  18.753  15.754  10.682
41756W        W42621  18.643  14.671   8.841
41757W        W42622  20.411  15.018   9.402
41758W        W42623  20.059  15.203  10.565
41759W        W42624  20.414  15.352   7.743
41760W        W42625  21.597  17.745  10.497
41761W        W42626  20.564  14.826  10.536
41762W        W42627  21.583  17.127  10.658
41763W        W42628  21.013  15.294  10.254
41764W        W42629  20.813  15.232   8.524
41765W        W42630  21.206  16.366  10.928
41766W        W42631  18.946  17.942   8.914
41767W        W42632  19.604  15.659   7.900
41768W        W42633  19.173  14.943  10.564
41769W        W42634  21.225  15.427   8.245
41770W        W42635  21.592  15.909   8.190
41771W        W42636  19.335  18.126  10.661
41772W        W42637  19.261  14.662   7.896
41773W        W42638  21.582  15.196   8.931
41774W        W42639  21.732  17.445   7.376
41775W        W42640  18.639  16.648   9.078
41776W        W42641  20.556  15.235   7.308
41777W        W42642  21.690  17.567   9.028
41778W        W42643  21.729  14.761   9.778
41779W        W42644  20.174  15.973  10.332
41780W        W42645  20.267  17.312   8.035
41781W        W42646  20.667  16.606  10.775
41782W        W42647  20.341  14.583   9.084
41783W        W42648  18.953  15.486   9.147
41784W        W42649  18.507  16.686   9.921
41785W        W42650  20.366  17.879   8.627
41786W        W42651  21.560  15.476   9.499
41787W        W42652  20.197  17.823  10.266
41788W        W42653  21.540  16.882   7.471
41789W        W42654  19.975  16.365   8.532
41790W        W42655  21.827  14.876  10.273
41791W        W42656  19.976  16.711   9.867
41792W        W42657  20.193  15.597   9.312
41793W        W42658  21.045  15.895   8.150
41794W        W42659  21.332  15.628   7.792
41795W        W42660  21.141  17.668   8.181
41796W        W42661  20.975  17.271   8.977
41797W        W42662  20.871  16.350   7.955
41798W        W42663  20.304  16.560   8.941
41799W        W42664  21.185  16.348   9.008
41800W        W42665  18.560  15.363   9.432
41801W        W42666  21.338  16.415  10.259
41802W        W42667  21.689  18.033   9.405
41803W        W42668  19.619  17.477   8.807
41804W        W42669  20.626  18.010  10.131
41805W        W42670  20.620  15.340   9.895
41806W        W42671  19.827  18.048   9.956
41807W        W42672  21.524  15.002   8.422
41808W        W42673  21.315  16.321   9.723
41809W        W42674  18.298  15.642   9.761
41810W        W42675  21.158  15.437   8.779
41811W        W42676  21.569  15.588  10.556
41812W        W42677  20.454  17.287   8.774
41813W        W42678  19.710  17.878   8.387
41814W        W42679  18.825  15.058   7.645
41815W        W42680  19.929  14.712   9.455
41816W        W42681  18.957  17.832   7.303
41817W        W42682  19.331  16.298   8.054
41818W        W42683  19.985  16.927  10.367
41819W        W42684  19.815  15.285   8.357
41820W        W42685  21.171  14.882   8.785
41821W        W42686  20.891  18.164   9.113
41822W        W42687  20.303  17.812   9.453
41823W        W42688  19.699  16.849   9.414
41824W        W42689  21.469  17.572   9.540
41825W        W42690  19.163  15.075   8.309
41826W        W42691  19.685  17.372   9.269
41827W        W42692  19.168  15.303   7.334
41828W        W42693  19.969  15.912   9.728
41829W        W42694  20.817  14.778   9.598
41830W        W42695  18.237  16.621   9.483
41831W        W42696  19.941  16.439   7.641
41832W        W42697  19.209  14.754   7.411
41833W        W42698  19.947  15.835   8.462
41834W        W42699  20.917  14.811  10.161
41835W        W42700  19.505  16.823  10.270
41836W        W42701  20.309  16.605  10.487
41837W        W42702  20.926  16.635  10.380
41838W        W42703  20.210  14.775  10.885
41839W        W42704  19.432  15.391   9.278
41840W        W42705  18.858  15.347   8.676
41841W        W42706  18.644  18.059   8.352
41842W        W42707  19.976  17.389  10.477
41843W        W42708  19.011  16.874   7.836
41844W        W42709  20.691  16.259   9.057
41845W        W42710  20.971  16.058   9.456
41846W        W42711  20.176  16.732   9.390
41847W        W42712  20.646  17.106   7.522
41848W        W42713  20.318  15.127   8.850
41849W        W42714  21.797  15.405   8.118
41850W        W42715  18.291  17.994  10.149
41851W        W42716  18.708  17.220   9.681
41852W        W42717  18.275  18.066   7.913
41853W        W42718  20.174  15.336   9.719
41854W        W42719  19.537  17.359   7.568
41855W        W42720  21.442  17.741   7.754
41856W        W42721  20.417  16.394   7.768
41857W        W42722  19.260  15.585   8.285
41858W        W42723  20.092  15.495   7.337
41859W        W42724  20.676  17.060  10.515
41860W        W42725  21.029  14.966   8.132
41861W        W42726  18.359  14.814   7.580
41862W        W42727  19.645  17.133   9.870
41863W        W42728  19.444  17.049   8.962
41864W        W42729  19.186  17.001   7.360
41865W        W42730  18.427  17.242   8.128
41866W        W42731  18.931  16.312  10.570
41867W        W42732  19.635  14.872  10.756
41868W        W42733  20.344  15.014  10.112
41869W        W42734  19.539  14.782   8.393
41870W        W42735  20.598  14.859   7.898
41871W        W42736  18.543  14.791   9.475
41872W        W42737  18.591  15.754   8.845
41873W        W42738  21.280  14.862   9.251
41874W        W42739  18.702  15.360   8.065
41875W        W42740  21.273  15.048   9.681
41876W        W42741  21.669  16.251   7.366
41877W        W42742  18.961  15.009   9.185
41878W        W42743  20.075  15.581  10.125
41879W        W42744  18.223  15.271   7.603
41880W        W42745  19.009  16.660  10.164
41881W        W42746  20.367  16.058   9.343
41882W        W42747  20.234  18.137   7.639
41883W        W42748  18.380  16.644   7.336
41884W        W42749  19.115  17.055  10.462
41885W        W42750  18.636  16.222  10.093
41886W        W42751  19.627  16.327   9.887
41887W        W42752  21.395  14.686  10.149
41888W        W42753  21.793  16.296  10.140
41889W        W42754  21.781  16.496   7.826
41890W        W42755  20.644  16.828   7.925
41891W        W42756  21.118  18.128   7.620
41892W        W42757  20.295  16.118  10.762
41893W        W42758  18.625  17.085  10.802
41894W        W42759  21.831  15.007  10.754
41895W        W42760  21.549  15.935   9.375
41896W        W42761  19.857  18.065  10.852
41897W        W42762  19.712  14.694   7.579
41898W        W42763  21.251  17.293   7.522
41899W        W42764  19.020  15.386  10.408
41900W        W42765  19.454  17.380  10.270
41901W        W42766  21.580  15.371  10.068
41902W        W42767  20.791  18.030   8.036
41903W        W42768  21.030  16.649   9.403
41904W        W42769  19.280  15.065  10.070
41905W        W42770  19.749  16.134  10.827
41906W        W42771  19.252  17.313   8.021
41907W        W42772  21.007  16.811   8.285
41908W        W42773  18.775  15.437  10.009
41909W        W42774  20.104  17.499   8.473
41910W        W42775  21.854  16.059   8.654
41911W        W42776  20.076  14.692  10.373
41912W        W42777  20.856  17.397   9.452
41913W        W42778  21.159  17.741   9.160
41914W        W42779  20.378  17.543   7.588
41915W        W42780  18.388  17.435  10.430
41916W        W42781  19.131  15.427   9.668
41917W        W42782  19.101  14.775   8.778
41918W        W42783  20.722  15.617   9.470
41919W        W42784  19.520  16.788   7.670
41920W        W42785  21.518  16.730   9.169
41921W        W42786  18.845  17.488  10.592
41922W        W42787  21.232  18.170   8.389
41923W        W42788  19.331  15.190   8.834
41924W        W42789  19.100  16.683   8.924
41925W        W42790  19.413  18.094   9.674
41926W        W42791  21.480  18.190  10.706
41927W        W42792  20.639  16.378   9.639
41928W        W42793  18.488  16.176   7.554
41929W        W42794  21.622  17.834   8.251
41930W        W42795  21.459  15.158   7.870
41931W        W42796  19.598  14.677  10.273
41932W        W42797  21.304  17.479   8.731
41933W        W42798  21.333  16.035   8.636
41934W        W42799  19.450  15.708   8.852
41935W        W42800  19.695  15.970  10.176
41936W        W42801  20.806  17.123  10.039
41937W        W42802  19.456  15.577  10.151
41938W        W42803  19.435  18.043   8.767
41939W        W42804  18.752  18.002  10.401
41940W        W42805  18.864  17.363   7.531
41941W        W42806  21.381  17.121   8.341
41942W        W42807  18.985  15.913  10.227
41943W        W42808  21.758  15.843   7.708
41944W        W42809  19.503  16.900   8.179
41945W        W42810  20.602  16.282  10.260
41946W        W42811  20.493  15.910   9.804
41947W        W42812  19.053  16.282   9.833
41948W        W42813  21.263  18.170   9.662
41949W        W42814  21.054  14.804  10.656
41950W        W42815  18.718  14.954  10.243
41951W        W42816  19.057  15.977   9.296
41952W        W42817  19.426  15.791   7.418
41953W        W42818  18.229  17.550   9.963
41954W        W42819  19.814  16.259   9.406
41955W        W42820  19.637  15.284   7.511
41956W        W42821  18.772  16.100   8.292
41957W        W42822  18.543  17.952   9.729
41958W        W42823  21.338  16.178   7.837
41959W        W42824  21.433  15.094  10.523
41960W        W42825  20.869  17.303   8.486
41961W        W42826  18.467  16.227  10.663
41962W        W42827  21.433  14.691   7.959
41963W        W42828  20.953  17.166   7.970
41964W        W42829  19.855  16.224   8.055
41965W        W42830  21.042  15.028   7.578
41966W        W42831  21.107  15.635   9.764
41967W        W42832  18.816  16.228   8.971
41968W        W42833  19.110  17.167   8.620
41969W        W42834  20.873  15.787   8.585
41970W        W42835  19.896  15.166   9.281
41971W        W42836  21.858  17.077   9.792
41972W        W42837  21.776  15.064   9.353
41973W        W42838  18.315  17.894   8.729
41974W        W42839  18.824  17.081   8.265
41975W        W42840  18.739  14.698  10.818
41976W        W42841  19.858  17.551  10.920
41977W        W42842  21.613  16.519   8.710
41978W        W42843  20.967  16.696   7.590
41979W        W42844  20.262  18.217   9.802
41980W        W42845  21.119  16.939  10.839
41981W        W42846  19.934  14.649   8.119
41982W        W42847  20.647  15.518   8.978
41983W        W42848  18.333  17.105   9.310
41984W        W42849  19.586  15.067   7.951
41985W        W42850  19.390  16.551  10.800
41986W        W42851  20.384  15.532   8.514
41987W        W42852  20.589  16.942   9.636
41988W        W42853  18.743  17.547  10.071
41989W        W42854  19.334  17.530  10.794
41990W        W42855  19.185  15.327   7.808
41991W        W42856  20.702  15.469   8.133
41992W        W42857  20.660  17.577  10.370
41993W        W42858  19.345  16.169   8.969
41994W        W42859  19.000  17.867   9.834
41995W        W42860  21.745  17.984   7.435
41996W        W42861  18.608  16.656  10.431
41997W        W42862  20.603  16.918   9.119
41998W        W42863  19.039  16.567   8.361
41999W        W42864  19.410  17.574   9.756
42000W        W42865  19.788  14.993   8.797
42001W        W42866  18.399  16.977   7.727
42002W        W42867  19.918  15.928   7.597
42003W        W42868  18.564  16.477   8.616
42004W        W42869  19.854  15.119  10.080
42005W        W42870  21.526  14.828   7.507
42006W        W42871  21.619  16.574  10.606
42007W        W42872  20.273  17.831  10.758
42008W        W42873  21.831  16.925  10.280
42009W        W42874  21.239  17.723  10.891
42010W        W42875  18.978  18.179   9.369
42011W        W42876  21.837  16.801   8.243
42012W        W42877  20.367  16.068   8.756
42013W        W42878  20.134  14.680   8.646
42014W        W42879  19.193  17.664   8.483
42015W        W42880  19.692  15.405   9.708
42016W        W42881  19.392  14.774   9.177
42017W        W42882  18.455  17.596   7.725
42018W        W42883  20.271  16.960   8.443
42019W        W42884  19.146  17.755  10.322
42020W        W42885  18.623  16.578   8.018
42021W        W42886  18.508  15.121   9.017
42022W        W42887  20.056  17.086   9.074
42023W        W42888  18.308  14.940   8.094
42024W        W42889  20.972  16.146  10.021
42025W        W42890  20.849  15.532   7.593
42026W        W42891  21.366  17.204   9.241
42027W        W42892  20.027  17.688   9.072
42028W        W42893  19.439  17.792   7.983
42029W        W42894  20.721  14.695   7.413
42030W        W42895  18.521  17.955   9.154
42031W        W42896  20.718  15.713  10.789
42032W        W42897  18.701  15.243  10.788
42033W        W42898  18.432  15.843   8.121
42034W        W42899  19.123  15.832   7.846
42035W        W42900  20.886  16.159  10.663
42036W        W42901  19.229  16.440   9.372
42037W        W42902  20.703  14.726   8.492
42038W        W42903  19.834  18.157   8.995
42039W        W42904  21.048  17.619   9.932
42040W        W42905  20.632  17.768   9.043
42041W        W42906  20.651  16.748   8.637
42042W        W42907  20.113  14.973   7.708
42043W        W42908  21.794  14.601   8.430
42044W        W42909  19.482  16.236   7.593
42045W        W42910  21.648  15.573   8.583
42046W        W42911  20.340  16.743   7.460
42047W        W42912  21.276  16.943  10.208
42048W        W42913  20.930  17.644   7.675
42049W        W42914  19.545  15.319  10.581
42050W        W42915  19.365  15.903   9.822
42051W        W42916  21.457  17.398  10.099
42052W        W42917  20.557  15.348  10.476
42053W        W42918  18.401  15.819  10.253
42054W        W42919  20.161  16.296   9.979
42055W        W42920  18.518  17.054   8.636
42056W        W42921  18.665  16.351   9.526
42057W        W42922  20.982  16.637   9.876
42058W        W42923  20.754  18.017  10.687
42059W        W42924  20.650  15.756  10.240
42060W        W42925  20.927  17.810   8.645
42061W        W42926  19.929  17.530   9.968
42062W        W42927  19.414  17.885   9.237
42063W        W42928  21.219  17.056   9.656
42064W        W42929  20.269  17.128  10.793
42065W        W42930  18.874  17.081   9.132
42066W        W42931  21.220  16.840   8.777
42067W        W42932  20.861  17.906   9.528
42068W        W42933  18.839  17.635   9.398
42069W        W42934  19.860  15.687  10.608
42070W        W42935  20.311  17.853   8.119
42071W        W42936  19.619  17.108  10.757
42072W        W42937  19.745  17.346   8.134
42073W        W42938  18.966  16.086   7.393
42074W        W42939  18.305  18.172  14.292
42075W        W42940  18.681  17.065  13.815
42076W        W42941  21.386  16.795  11.585
42077W        W42942  21.516  17.880  13.612
42078W        W42943  19.434  17.871  11.138
42079W        W42944  19.517  16.023  12.121
42080W        W42945  19.032  15.871  12.285
42081W        W42946  20.023  16.686  11.719
42082W        W42947  19.698  17.778  14.074
42083W        W42948  18.347  15.339  14.037
42084W        W42949  19.109  14.619  13.839
42085W        W42950  20.803  15.007  12.726
42086W        W42951  20.452  15.878  11.296
42087W        W42952  21.022  15.312  14.387
42088W        W42953  18.388  15.104  13.512
42089W        W42954  18.487  17.723  14.533
42090W        W42955  20.009  17.113  11.265
42091W        W42956  18.441  15.896  12.958
42092W        W42957  19.334  15.787  14.195
42093W        W42958  21.793  15.646  12.694
42094W        W42959  21.557  16.689  13.553
42095W        W42960  19.865  16.022  12.580
42096W        W42961  20.411  17.361  12.949
42097W        W42962  18.911  16.795  13.181
42098W        W42963  18.270  16.323  12.752
42099W        W42964  19.306  16.295  13.944
42100W        W42965  21.577  16.078  14.198
42101W        W42966  19.193  17.522  12.643
42102W        W42967  20.314  17.211  13.777
42103W        W42968  19.534  15.851  13.002
42104W        W42969  19.826  16.635  12.645
42105W        W42970  20.823  17.408  14.493
42106W        W42971  19.902  16.728  14.503
42107W        W42972  19.883  16.444  13.981
42108W        W42973  18.292  15.835  14.503
42109W        W42974  21.124  17.370  14.102
42110W        W42975  18.705  14.952  12.100
42111W        W42976  19.232  17.210  13.099
42112W        W42977  21.695  16.993  12.389
42113W        W42978  21.108  15.393  12.956
42114W        W42979  21.393  15.346  11.051
42115W        W42980  21.858  16.147  13.357
42116W        W42981  19.825  17.854  13.110
42117W        W42982  21.599  17.320  11.548
42118W        W42983  18.728  18.106  11.302
42119W        W42984  19.121  18.152  11.978
42120W        W42985  18.918  14.906  13.404
42121W        W42986  21.541  15.924  13.679
42122W        W42987  20.946  16.346  12.138
42123W        W42988  20.912  16.034  11.165
42124W        W42989  20.120  17.178  13.305
42125W        W42990  19.926  15.508  12.504
42126W        W42991  20.526  17.595  13.498
42127W        W42992  21.397  16.386  11.920
42128W        W42993  20.299  15.044  11.936
42129W        W42994  18.956  17.738  11.619
42130W        W42995  18.327  15.237  12.218
42131W        W42996  21.113  15.844  12.692
42132W        W42997  18.571  17.461  12.607
42133W        W42998  19.912  17.811  11.477
42134W        W42999  21.304  15.837  10.941
42135W        W43000  18.327  17.595  13.105
42136W        W43001  19.118  17.167  13.585
42137W        W43002  19.491  16.527  12.204
42138W        W43003  19.513  14.932  13.297
42139W        W43004  21.742  14.694  12.594
42140W        W43005  18.961  16.566  11.062
42141W        W43006  18.616  15.599  11.241
42142W        W43007  18.678  17.555  12.035
42143W        W43008  19.809  17.038  12.283
42144W        W43009  21.141  17.897  13.997
42145W        W43010  20.067  15.539  11.681
42146W        W43011  21.450  17.937  12.453
42147W        W43012  21.127  15.790  14.051
42148W        W43013  21.840  17.446  12.185
42149W        W43014  20.467  16.738  13.669
42150W        W43015  18.233  16.289  11.875
42151W        W43016  19.344  16.704  13.448
42152W        W43017  20.548  15.968  11.826
42153W        W43018  20.425  16.458  11.930
42154W        W43019  18.768  15.878  13.404
42155W        W43020  18.753  15.754  14.326
42156W        W43021  18.643  14.671  12.485
42157W        W43022  20.411  15.018  13.046
42158W        W43023  20.059  15.203  14.209
42159W        W43024  20.414  15.352  11.387
42160W        W43025  21.597  17.745  14.141
42161W        W43026  20.564  14.826  14.180
42162W        W43027  21.583  17.127  14.302
42163W        W43028  21.013  15.294  13.898
42164W        W43029  20.813  15.232  12.168
42165W        W43030  21.206  16.366  14.572
42166W        W43031  18.946  17.942  12.558
42167W        W43032  19.604  15.659  11.544
42168W        W43033  19.173  14.943  14.208
42169W        W43034  21.225  15.427  11.889
42170W        W43035  21.592  15.909  11.834
42171W        W43036  19.335  18.126  14.305
42172W        W43037  19.261  14.662  11.540
42173W        W43038  21.582  15.196  12.575
42174W        W43039  21.732  17.445  11.020
42175W        W43040  18.639  16.648  12.722
42176W        W43041  20.556  15.235  10.952
42177W        W43042  21.690  17.567  12.672
42178W        W43043  21.729  14.761  13.422
42179W        W43044  20.174  15.973  13.976
42180W        W43045  20.267  17.312  11.679
42181W        W43046  20.667  16.606  14.419
42182W        W43047  20.341  14.583  12.728
42183W        W43048  18.953  15.486  12.791
42184W        W43049  18.507  16.686  13.565
42185W        W43050  20.366  17.879  12.271
42186W        W43051  21.560  15.476  13.143
42187W        W43052  20.197  17.823  13.910
42188W        W43053  21.540  16.882  11.115
42189W        W43054  19.975  16.365  12.176
42190W        W43055  21.827  14.876  13.917
42191W        W43056  19.976  16.711  13.511
42192W        W43057  20.193  15.597  12.956
42193W        W43058  21.045  15.895  11.794
42194W        W43059  21.332  15.628  11.436
42195W        W43060  21.141  17.668  11.825
42196W        W43061  20.975  17.271  12.621
42197W        W43062  20.871  16.350  11.599
42198W        W43063  20.304  16.560  12.585
42199W        W43064  21.185  16.348  12.652
42200W        W43065  18.560  15.363  13.076
42201W        W43066  21.338  16.415  13.903
42202W        W43067  21.689  18.033  13.049
42203W        W43068  19.619  17.477  12.451
42204W        W43069  20.626  18.010  13.775
42205W        W43070  20.620  15.340  13.539
42206W        W43071  19.827  18.048  13.600
42207W        W43072  21.524  15.002  12.066
42208W        W43073  21.315  16.321  13.367
42209W        W43074  18.298  15.642  13.405
42210W        W43075  21.158  15.437  12.423
42211W        W43076  21.569  15.588  14.200
42212W        W43077  20.454  17.287  12.418
42213W        W43078  19.710  17.878  12.031
42214W        W43079  18.825  15.058  11.289
42215W        W43080  19.929  14.712  13.099
42216W        W43081  18.957  17.832  10.947
42217W        W43082  19.331  16.298  11.698
42218W        W43083  19.985  16.927  14.011
42219W        W43084  19.815  15.285  12.001
42220W        W43085  21.171  14.882  12.429
42221W        W43086  20.891  18.164  12.757
42222W        W43087  20.303  17.812  13.097
42223W        W43088  19.699  16.849  13.058
42224W        W43089  21.469  17.572  13.184
42225W        W43090  19.163  15.075  11.953
42226W        W43091  19.685  17.372  12.913
42227W        W43092  19.168  15.303  10.978
42228W        W43093  19.969  15.912  13.372
42229W        W43094  20.817  14.778  13.242
42230W        W43095  18.237  16.621  13.127
42231W        W43096  19.941  16.439  11.285
42232W        W43097  19.209  14.754  11.055
42233W        W43098  19.947  15.835  12.106
42234W        W43099  20.917  14.811  13.805
42235W        W43100  19.505  16.823  13.914
42236W        W43101  20.309  16.605  14.131
42237W        W43102  20.926  16.635  14.024
42238W        W43103  20.210  14.775  14.529
42239W        W43104  19.432  15.391  12.922
42240W        W43105  18.858  15.347  12.320
42241W        W43106  18.644  18.059  11.996
42242W        W43107  19.976  17.389  14.121
42243W        W43108  19.011  16.874  11.480
42244W        W43109  20.691  16.259  12.701
42245W        W43110  20.971  16.058  13.100
42246W        W43111  20.176  16.732  13.034
42247W        W43112  20.646  17.106  11.166
42248W        W43113  20.318  15.127  12.494
42249W        W43114  21.797  15.405  11.762
42250W        W43115  18.291  17.994  13.793
42251W        W43116  18.708  17.220  13.325
42252W        W43117  18.275  18.066  11.557
42253W        W43118  20.174  15.336  13.363
42254W        W43119  19.537  17.359  11.212
42255W        W43120  21.442  17.741  11.398
42256W        W43121  20.417  16.394  11.412
42257W        W43122  19.260  15.585  11.929
42258W        W43123  20.092  15.495  10.981
42259W        W43124  20.676  17.060  14.159
42260W        W43125  21.029  14.966  11.776
42261W        W43126  18.359  14.814  11.224
42262W        W43127  19.645  17.133  13.514
42263W        W43128  19.444  17.049  12.606
42264W        W43129  19.186  17.001  11.004
42265W        W43130  18.427  17.242  11.772
42266W        W43131  18.931  16.312  14.214
42267W        W43132  19.635  14.872  14.400
42268W        W43133  20.344  15.014  13.756
42269W        W43134  19.539  14.782  12.037
42270W        W43135  20.598  14.859  11.542
42271W        W43136  18.543  14.791  13.119
42272W        W43137  18.591  15.754  12.489
42273W        W43138  21.280  14.862  12.895
42274W        W43139  18.702  15.360  11.709
42275W        W43140  21.273  15.048  13.325
42276W        W43141  21.669  16.251  11.010
42277W        W43142  18.961  15.009  12.829
42278W        W43143  20.075  15.581  13.769
42279W        W43144  18.223  15.271  11.247
42280W        W43145  19.009  16.660  13.808
42281W        W43146  20.367  16.058  12.987
42282W        W43147  20.234  18.137  11.283
42283W        W43148  18.380  16.644  10.980
42284W        W43149  19.115  17.055  14.106
42285W        W43150  18.636  16.222  13.737
42286W        W43151  19.627  16.327  13.531
42287W        W43152  21.395  14.686  13.793
42288W        W43153  21.793  16.296  13.784
42289W        W43154  21.781  16.496  11.470
42290W        W43155  20.644  16.828  11.569
42291W        W43156  21.118  18.128  11.264
42292W        W43157  20.295  16.118  14.406
42293W        W43158  18.625  17.085  14.446
42294W        W43159  21.831  15.007  14.398
42295W        W43160  21.549  15.935  13.019
42296W        W43161  19.857  18.065  14.496
42297W        W43162  19.712  14.694  11.223
42298W        W43163  21.251  17.293  11.166
42299W        W43164  19.020  15.386  14.052
42300W        W43165  19.454  17.380  13.914
42301W        W43166  21.580  15.371  13.712
42302W        W43167  20.791  18.030  11.680
42303W        W43168  21.030  16.649  13.047
42304W        W43169  19.280  15.065  13.714
42305W        W43170  19.749  16.134  14.471
42306W        W43171  19.252  17.313  11.665
42307W        W43172  21.007  16.811  11.929
42308W        W43173  18.775  15.437  13.653
42309W        W43174  20.104  17.499  12.117
42310W        W43175  21.854  16.059  12.298
42311W        W43176  20.076  14.692  14.017
42312W        W43177  20.856  17.397  13.096
42313W        W43178  21.159  17.741  12.804
42314W        W43179  20.378  17.543  11.232
42315W        W43180  18.388  17.435  14.074
42316W        W43181  19.131  15.427  13.312
42317W        W43182  19.101  14.775  12.422
42318W        W43183  20.722  15.617  13.114
42319W        W43184  19.520  16.788  11.314
42320W        W43185  21.518  16.730  12.813
42321W        W43186  18.845  17.488  14.236
42322W        W43187  21.232  18.170  12.033
42323W        W43188  19.331  15.190  12.478
42324W        W43189  19.100  16.683  12.568
42325W        W43190  19.413  18.094  13.318
42326W        W43191  21.480  18.190  14.350
42327W        W43192  20.639  16.378  13.283
42328W        W43193  18.488  16.176  11.198
42329W        W43194  21.622  17.834  11.895
42330W        W43195  21.459  15.158  11.514
42331W        W43196  19.598  14.677  13.917
42332W        W43197  21.304  17.479  12.375
42333W        W43198  21.333  16.035  12.280
42334W        W43199  19.450  15.708  12.496
42335W        W43200  19.695  15.970  13.820
42336W        W43201  20.806  17.123  13.683
42337W        W43202  19.456  15.577  13.795
42338W        W43203  19.435  18.043  12.411
42339W        W43204  18.752  18.002  14.045
42340W        W43205  18.864  17.363  11.175
42341W        W43206  21.381  17.121  11.985
42342W        W43207  18.985  15.913  13.871
42343W        W43208  21.758  15.843  11.352
42344W        W43209  19.503  16.900  11.823
42345W        W43210  20.602  16.282  13.904
42346W        W43211  20.493  15.910  13.448
42347W        W43212  19.053  16.282  13.477
42348W        W43213  21.263  18.170  13.306
42349W        W43214  21.054  14.804  14.300
42350W        W43215  18.718  14.954  13.887
42351W        W43216  19.057  15.977  12.940
42352W        W43217  19.426  15.791  11.062
42353W        W43218  18.229  17.550  13.607
42354W        W43219  19.814  16.259  13.050
42355W        W43220  19.637  15.284  11.155
42356W        W43221  18.772  16.100  11.936
42357W        W43222  18.543  17.952  13.373
42358W        W43223  21.338  16.178  11.481
42359W        W43224  21.433  15.094  14.167
42360W        W43225  20.869  17.303  12.130
42361W        W43226  18.467  16.227  14.307
42362W        W43227  21.433  14.691  11.603
42363W        W43228  20.953  17.166  11.614
42364W        W43229  19.855  16.224  11.699
42365W        W43230  21.042  15.028  11.222
42366W        W43231  21.107  15.635  13.408
42367W        W43232  18.816  16.228  12.615
42368W        W43233  19.110  17.167  12.264
42369W        W43234  20.873  15.787  12.229
42370W        W43235  19.896  15.166  12.925
42371W        W43236  21.858  17.077  13.436
42372W        W43237  21.776  15.064  12.997
42373W        W43238  18.315  17.894  12.373
42374W        W43239  18.824  17.081  11.909
42375W        W43240  18.739  14.698  14.462
42376W        W43241  19.858  17.551  14.564
42377W        W43242  21.613  16.519  12.354
42378W        W43243  20.967  16.696  11.234
42379W        W43244  20.262  18.217  13.446
42380W        W43245  21.119  16.939  14.483
42381W        W43246  19.934  14.649  11.763
42382W        W43247  20.647  15.518  12.622
42383W        W43248  18.333  17.105  12.954
42384W        W43249  19.586  15.067  11.595
42385W        W43250  19.390  16.551  14.444
42386W        W43251  20.384  15.532  12.158
42387W        W43252  20.589  16.942  13.280
42388W        W43253  18.743  17.547  13.715
42389W        W43254  19.334  17.530  14.438
42390W        W43255  19.185  15.327  11.452
42391W        W43256  20.702  15.469  11.777
42392W        W43257  20.660  17.577  14.014
42393W        W43258  19.345  16.169  12.613
42394W        W43259  19.000  17.867  13.478
42395W        W43260  21.745  17.984  11.079
42396W        W43261  18.608  16.656  14.075
42397W        W43262  20.603  16.918  12.763
42398W        W43263  19.039  16.567  12.005
42399W        W43264  19.410  17.574  13.400
42400W        W43265  19.788  14.993  12.441
42401W        W43266  18.399  16.977  11.371
42402W        W43267  19.918  15.928  11.241
42403W        W43268  18.564  16.477  12.260
42404W        W43269  19.854  15.119  13.724
42405W        W43270  21.526  14.828  11.151
42406W        W43271  21.619  16.574  14.250
42407W        W43272  20.273  17.831  14.402
42408W        W43273  21.831  16.925  13.924
42409W        W43274  21.239  17.723  14.535
42410W        W43275  18.978  18.179  13.013
42411W        W43276  21.837  16.801  11.887
42412W        W43277  20.367  16.068  12.400
42413W        W43278  20.134  14.680  12.290
42414W        W43279  19.193  17.664  12.127
42415W        W43280  19.692  15.405  13.352
42416W        W43281  19.392  14.774  12.821
42417W        W43282  18.455  17.596  11.369
42418W        W43283  20.271  16.960  12.087
42419W        W43284  19.146  17.755  13.966
42420W        W43285  18.623  16.578  11.662
42421W        W43286  18.508  15.121  12.661
42422W        W43287  20.056  17.086  12.718
42423W        W43288  18.308  14.940  11.738
42424W        W43289  20.972  16.146  13.665
42425W        W43290  20.849  15.532  11.237
42426W        W43291  21.366  17.204  12.885
42427W        W43292  20.027  17.688  12.716
42428W        W43293  19.439  17.792  11.627
42429W        W43294  20.721  14.695  11.057
42430W        W43295  18.521  17.955  12.798
42431W        W43296  20.718  15.713  14.433
42432W        W43297  18.701  15.243  14.432
42433W        W43298  18.432  15.843  11.765
42434W        W43299  19.123  15.832  11.490
42435W        W43300  20.886  16.159  14.307
42436W        W43301  19.229  16.440  13.016
42437W        W43302  20.703  14.726  12.136
42438W        W43303  19.834  18.157  12.639
42439W        W43304  21.048  17.619  13.576
42440W        W43305  20.632  17.768  12.687
42441W        W43306  20.651  16.748  12.281
42442W        W43307  20.113  14.973  11.352
42443W        W43308  21.794  14.601  12.074
42444W        W43309  19.482  16.236  11.237
42445W        W43310  21.648  15.573  12.227
42446W        W43311  20.340  16.743  11.104
42447W        W43312  21.276  16.943  13.852
42448W        W43313  20.930  17.644  11.319
42449W        W43314  19.545  15.319  14.225
42450W        W43315  19.365  15.903  13.466
42451W        W43316  21.457  17.398  13.743
42452W        W43317  20.557  15.348  14.120
42453W        W43318  18.401  15.819  13.897
42454W        W43319  20.161  16.296  13.623
42455W        W43320  18.518  17.054  12.280
42456W        W43321  18.665  16.351  13.170
42457W        W43322  20.982  16.637  13.520
42458W        W43323  20.754  18.017  14.331
42459W        W43324  20.650  15.756  13.884
42460W        W43325  20.927  17.810  12.289
42461W        W43326  19.929  17.530  13.612
42462W        W43327  19.414  17.885  12.881
42463W        W43328  21.219  17.056  13.300
42464W        W43329  20.269  17.128  14.437
42465W        W43330  18.874  17.081  12.776
42466W        W43331  21.220  16.840  12.421
42467W        W43332  20.861  17.906  13.172
42468W        W43333  18.839  17.635  13.042
42469W        W43334  19.860  15.687  14.252
42470W        W43335  20.311  17.853  11.763
42471W        W43336  19.619  17.108  14.401
42472W        W43337  19.745  17.346  11.778
42473W        W43338  18.966  16.086  11.037
42474W        W43339  18.305  18.172  17.936
42475W        W43340  18.681  17.065  17.459
42476W        W43341  21.386  16.795  15.229
42477W        W43342  21.516  17.880  17.256
42478W        W43343  19.434  17.871  14.782
42479W        W43344  19.517  16.023  15.765
42480W        W43345  19.032  15.871  15.929
42481W        W43346  20.023  16.686  15.363
42482W        W43347  19.698  17.778  17.718
42483W        W43348  18.347  15.339  17.681
42484W        W43349  19.109  14.619  17.483
42485W        W43350  20.803  15.007  16.370
42486W        W43351  20.452  15.878  14.940
42487W        W43352  21.022  15.312  18.031
42488W        W43353  18.388  15.104  17.156
42489W        W43354  18.487  17.723  18.177
42490W        W43355  20.009  17.113  14.909
42491W        W43356  18.441  15.896  16.602
42492W        W43357  19.334  15.787  17.839
42493W        W43358  21.793  15.646  16.338
42494W        W43359  21.557  16.689  17.197
42495W        W43360  19.865  16.022  16.224
42496W        W43361  20.411  17.361  16.593
42497W        W43362  18.911  16.795  16.825
42498W        W43363  18.270  16.323  16.396
42499W        W43364  19.306  16.295  17.588
42500W        W43365  21.577  16.078  17.842
42501W        W43366  19.193  17.522  16.287
42502W        W43367  20.314  17.211  17.421
42503W        W43368  19.534  15.851  16.646
42504W        W43369  19.826  16.635  16.289
42505W        W43370  20.823  17.408  18.137
42506W        W43371  19.902  16.728  18.147
42507W        W43372  19.883  16.444  17.625
42508W        W43373  18.292  15.835  18.147
42509W        W43374  21.124  17.370  17.746
42510W        W43375  18.705  14.952  15.744
42511W        W43376  19.232  17.210  16.743
42512W        W43377  21.695  16.993  16.033
42513W        W43378  21.108  15.393  16.600
42514W        W43379  21.393  15.346  14.695
42515W        W43380  21.858  16.147  17.001
42516W        W43381  19.825  17.854  16.754
42517W        W43382  21.599  17.320  15.192
42518W        W43383  18.728  18.106  14.946
42519W        W43384  19.121  18.152  15.622
42520W        W43385  18.918  14.906  17.048
42521W        W43386  21.541  15.924  17.323
42522W        W43387  20.946  16.346  15.782
42523W        W43388  20.912  16.034  14.809
42524W        W43389  20.120  17.178  16.949
42525W        W43390  19.926  15.508  16.148
42526W        W43391  20.526  17.595  17.142
42527W        W43392  21.397  16.386  15.564
42528W        W43393  20.299  15.044  15.580
42529W        W43394  18.956  17.738  15.263
42530W        W43395  18.327  15.237  15.862
42531W        W43396  21.113  15.844  16.336
42532W        W43397  18.571  17.461  16.251
42533W        W43398  19.912  17.811  15.121
42534W        W43399  21.304  15.837  14.585
42535W        W43400  18.327  17.595  16.749
42536W        W43401  19.118  17.167  17.229
42537W        W43402  19.491  16.527  15.848
42538W        W43403  19.513  14.932  16.941
42539W        W43404  21.742  14.694  16.238
42540W        W43405  18.961  16.566  14.706
42541W        W43406  18.616  15.599  14.885
42542W        W43407  18.678  17.555  15.679
42543W        W43408  19.809  17.038  15.927
42544W        W43409  21.141  17.897  17.641
42545W        W43410  20.067  15.539  15.325
42546W        W43411  21.450  17.937  16.097
42547W        W43412  21.127  15.790  17.695
42548W        W43413  21.840  17.446  15.829
42549W        W43414  20.467  16.738  17.313
42550W        W43415  18.233  16.289  15.519
42551W        W43416  19.344  16.704  17.092
42552W        W43417  20.548  15.968  15.470
42553W        W43418  20.425  16.458  15.574
42554W        W43419  18.768  15.878  17.048
42555W        W43420  18.753  15.754  17.970
42556W        W43421  18.643  14.671  16.129
42557W        W43422  20.411  15.018  16.690
42558W        W43423  20.059  15.203  17.853
42559W        W43424  20.414  15.352  15.031
42560W        W43425  21.597  17.745  17.785
42561W        W43426  20.564  14.826  17.824
42562W        W43427  21.583  17.127  17.946
42563W        W43428  21.013  15.294  17.542
42564W        W43429  20.813  15.232  15.812
42565W        W43430  21.206  16.366  18.216
42566W        W43431  18.946  17.942  16.202
42567W        W43432  19.604  15.659  15.188
42568W        W43433  19.173  14.943  17.852
42569W        W43434  21.225  15.427  15.533
42570W        W43435  21.592  15.909  15.478
42571W        W43436  19.335  18.126  17.949
42572W        W43437  19.261  14.662  15.184
42573W        W43438  21.582  15.196  16.219
42574W        W43439  21.732  17.445  14.664
42575W        W43440  18.639  16.648  16.366
42576W        W43441  20.556  15.235  14.596
42577W        W43442  21.690  17.567  16.316
42578W        W43443  21.729  14.761  17.066
42579W        W43444  20.174  15.973  17.620
42580W        W43445  20.267  17.312  15.323
42581W        W43446  20.667  16.606  18.063
42582W        W43447  20.341  14.583  16.372
42583W        W43448  18.953  15.486  16.435
42584W        W43449  18.507  16.686  17.209
42585W        W43450  20.366  17.879  15.915
42586W        W43451  21.560  15.476  16.787
42587W        W43452  20.197  17.823  17.554
42588W        W43453  21.540  16.882  14.759
42589W        W43454  19.975  16.365  15.820
42590W        W43455  21.827  14.876  17.561
42591W        W43456  19.976  16.711  17.155
42592W        W43457  20.193  15.597  16.600
42593W        W43458  21.045  15.895  15.438
42594W        W43459  21.332  15.628  15.080
42595W        W43460  21.141  17.668  15.469
42596W        W43461  20.975  17.271  16.265
42597W        W43462  20.871  16.350  15.243
42598W        W43463  20.304  16.560  16.229
42599W        W43464  21.185  16.348  16.296
42600W        W43465  18.560  15.363  16.720
42601W        W43466  21.338  16.415  17.547
42602W        W43467  21.689  18.033  16.693
42603W        W43468  19.619  17.477  16.095
42604W        W43469  20.626  18.010  17.419
42605W        W43470  20.620  15.340  17.183
42606W        W43471  19.827  18.048  17.244
42607W        W43472  21.524  15.002  15.710
42608W        W43473  21.315  16.321  17.011
42609W        W43474  18.298  15.642  17.049
42610W        W43475  21.158  15.437  16.067
42611W        W43476  21.569  15.588  17.844
42612W        W43477  20.454  17.287  16.062
42613W        W43478  19.710  17.878  15.675
42614W        W43479  18.825  15.058  14.933
42615W        W43480  19.929  14.712  16.743
42616W        W43481  18.957  17.832  14.591
42617W        W43482  19.331  16.298  15.342
42618W        W43483  19.985  16.927  17.655
42619W        W43484  19.815  15.285  15.645
42620W        W43485  21.171  14.882  16.073
42621W        W43486  20.891  18.164  16.401
42622W        W43487  20.303  17.812  16.741
42623W        W43488  19.699  16.849  16.702
42624W        W43489  21.469  17.572  16.828
42625W        W43490  19.163  15.075  15.597
42626W        W43491  19.685  17.372  16.557
42627W        W43492  19.168  15.303  14.622
42628W        W43493  19.969  15.912  17.016
42629W        W43494  20.817  14.778  16.886
42630W        W43495  18.237  16.621  16.771
42631W        W43496  19.941  16.439  14.929
42632W        W43497  19.209  14.754  14.699
42633W        W43498  19.947  15.835  15.750
42634W        W43499  20.917  14.811  17.449
42635W        W43500  19.505  16.823  17.558
42636W        W43501  20.309  16.605  17.775
42637W        W43502  20.926  16.635  17.668
42638W        W43503  20.210  14.775  18.173
42639W        W43504  19.432  15.391  16.566
42640W        W43505  18.858  15.347  15.964
42641W        W43506  18.644  18.059  15.640
42642W        W43507  19.976  17.389  17.765
42643W        W43508  19.011  16.874  15.124
42644W        W43509  20.691  16.259  16.345
42645W        W43510  20.971  16.058  16.744
42646W        W43511  20.176  16.732  16.678
42647W        W43512  20.646  17.106  14.810
42648W        W43513  20.318  15.127  16.138
42649W        W43514  21.797  15.405  15.406
42650W        W43515  18.291  17.994  17.437
42651W        W43516  18.708  17.220  16.969
42652W        W43517  18.275  18.066  15.201
42653W        W43518  20.174  15.336  17.007
42654W        W43519  19.537  17.359  14.856
42655W        W43520  21.442  17.741  15.042
42656W        W43521  20.417  16.394  15.056
42657W        W43522  19.260  15.585  15.573
42658W        W43523  20.092  15.495  14.625
42659W        W43524  20.676  17.060  17.803
42660W        W43525  21.029  14.966  15.420
42661W        W43526  18.359  14.814  14.868
42662W        W43527  19.645  17.133  17.158
42663W        W43528  19.444  17.049  16.250
42664W        W43529  19.186  17.001  14.648
42665W        W43530  18.427  17.242  15.416
42666W        W43531  18.931  16.312  17.858
42667W        W43532  19.635  14.872  18.044
42668W        W43533  20.344  15.014  17.400
42669W        W43534  19.539  14.782  15.681
42670W        W43535  20.598  14.859  15.186
42671W        W43536  18.543  14.791  16.763
42672W        W43537  18.591  15.754  16.133
42673W        W43538  21.280  14.862  16.539
42674W        W43539  18.702  15.360  15.353
42675W        W43540  21.273  15.048  16.969
42676W        W43541  21.669  16.251  14.654
42677W        W43542  18.961  15.009  16.473
42678W        W43543  20.075  15.581  17.413
42679W        W43544  18.223  15.271  14.891
42680W        W43545  19.009  16.660  17.452
42681W        W43546  20.367  16.058  16.631
42682W        W43547  20.234  18.137  14.927
42683W        W43548  18.380  16.644  14.624
42684W        W43549  19.115  17.055  17.750
42685W        W43550  18.636  16.222  17.381
42686W        W43551  19.627  16.327  17.175
42687W        W43552  21.395  14.686  17.437
42688W        W43553  21.793  16.296  17.428
42689W        W43554  21.781  16.496  15.114
42690W        W43555  20.644  16.828  15.213
42691W        W43556  21.118  18.128  14.908
42692W        W43557  20.295  16.118  18.050
42693W        W43558  18.625  17.085  18.090
42694W        W43559  21.831  15.007  18.042
42695W        W43560  21.549  15.935  16.663
42696W        W43561  19.857  18.065  18.140
42697W        W43562  19.712  14.694  14.867
42698W        W43563  21.251  17.293  14.810
42699W        W43564  19.020  15.386  17.696
42700W        W43565  19.454  17.380  17.558
42701W        W43566  21.580  15.371  17.356
42702W        W43567  20.791  18.030  15.324
42703W        W43568  21.030  16.649  16.691
42704W        W43569  19.280  15.065  17.358
42705W        W43570  19.749  16.134  18.115
42706W        W43571  19.252  17.313  15.309
42707W        W43572  21.007  16.811  15.573
42708W        W43573  18.775  15.437  17.297
42709W        W43574  20.104  17.499  15.761
42710W        W43575  21.854  16.059  15.942
42711W        W43576  20.076  14.692  17.661
42712W        W43577  20.856  17.397  16.740
42713W        W43578  21.159  17.741  16.448
42714W        W43579  20.378  17.543  14.876
42715W        W43580  18.388  17.435  17.718
42716W        W43581  19.131  15.427  16.956
42717W        W43582  19.101  14.775  16.066
42718W        W43583  20.722  15.617  16.758
42719W        W43584  19.520  16.788  14.958
42720W        W43585  21.518  16.730  16.457
42721W        W43586  18.845  17.488  17.880
42722W        W43587  21.232  18.170  15.677
42723W        W43588  19.331  15.190  16.122
42724W        W43589  19.100  16.683  16.212
42725W        W43590  19.413  18.094  16.962
42726W        W43591  21.480  18.190  17.994
42727W        W43592  20.639  16.378  16.927
42728W        W43593  18.488  16.176  14.842
42729W        W43594  21.622  17.834  15.539
42730W        W43595  21.459  15.158  15.158
42731W        W43596  19.598  14.677  17.561
42732W        W43597  21.304  17.479  16.019
42733W        W43598  21.333  16.035  15.924
42734W        W43599  19.450  15.708  16.140
42735W        W43600  19.695  15.970  17.464
42736W        W43601  20.806  17.123  17.327
42737W        W43602  19.456  15.577  17.439
42738W        W43603  19.435  18.043  16.055
42739W        W43604  18.752  18.002  17.689
42740W        W43605  18.864  17.363  14.819
42741W        W43606  21.381  17.121  15.629
42742W        W43607  18.985  15.913  17.515
42743W        W43608  21.758  15.843  14.996
42744W        W43609  19.503  16.900  15.467
42745W        W43610  20.602  16.282  17.548
42746W        W43611  20.493  15.910  17.092
42747W        W43612  19.053  16.282  17.121
42748W        W43613  21.263  18.170  16.950
42749W        W43614  21.054  14.804  17.944
42750W        W43615  18.718  14.954  17.531
42751W        W43616  19.057  15.977  16.584
42752W        W43617  19.426  15.791  14.706
42753W        W43618  18.229  17.550  17.251
42754W        W43619  19.814  16.259  16.694
42755W        W43620  19.637  15.284  14.799
42756W        W43621  18.772  16.100  15.580
42757W        W43622  18.543  17.952  17.017
42758W        W43623  21.338  16.178  15.125
42759W        W43624  21.433  15.094  17.811
42760W        W43625  20.869  17.303  15.774
42761W        W43626  18.467  16.227  17.951
42762W        W43627  21.433  14.691  15.247
42763W        W43628  20.953  17.166  15.258
42764W        W43629  19.855  16.224  15.343
42765W        W43630  21.042  15.028  14.866
42766W        W43631  21.107  15.635  17.052
42767W        W43632  18.816  16.228  16.259
42768W        W43633  19.110  17.167  15.908
42769W        W43634  20.873  15.787  15.873
42770W        W43635  19.896  15.166  16.569
42771W        W43636  21.858  17.077  17.080
42772W        W43637  21.776  15.064  16.641
42773W        W43638  18.315  17.894  16.017
42774W        W43639  18.824  17.081  15.553
42775W        W43640  18.739  14.698  18.106
42776W        W43641  19.858  17.551  18.208
42777W        W43642  21.613  16.519  15.998
42778W        W43643  20.967  16.696  14.878
42779W        W43644  20.262  18.217  17.090
42780W        W43645  21.119  16.939  18.127
42781W        W43646  19.934  14.649  15.407
42782W        W43647  20.647  15.518  16.266
42783W        W43648  18.333  17.105  16.598
42784W        W43649  19.586  15.067  15.239
42785W        W43650  19.390  16.551  18.088
42786W        W43651  20.384  15.532  15.802
42787W        W43652  20.589  16.942  16.924
42788W        W43653  18.743  17.547  17.359
42789W        W43654  19.334  17.530  18.082
42790W        W43655  19.185  15.327  15.096
42791W        W43656  20.702  15.469  15.421
42792W        W43657  20.660  17.577  17.658
42793W        W43658  19.345  16.169  16.257
42794W        W43659  19.000  17.867  17.122
42795W        W43660  21.745  17.984  14.723
42796W        W43661  18.608  16.656  17.719
42797W        W43662  20.603  16.918  16.407
42798W        W43663  19.039  16.567  15.649
42799W        W43664  19.410  17.574  17.044
42800W        W43665  19.788  14.993  16.085
42801W        W43666  18.399  16.977  15.015
42802W        W43667  19.918  15.928  14.885
42803W        W43668  18.564  16.477  15.904
42804W        W43669  19.854  15.119  17.368
42805W        W43670  21.526  14.828  14.795
42806W        W43671  21.619  16.574  17.894
42807W        W43672  20.273  17.831  18.046
42808W        W43673  21.831  16.925  17.568
42809W        W43674  21.239  17.723  18.179
42810W        W43675  18.978  18.179  16.657
42811W        W43676  21.837  16.801  15.531
42812W        W43677  20.367  16.068  16.044
42813W        W43678  20.134  14.680  15.934
42814W        W43679  19.193  17.664  15.771
42815W        W43680  19.692  15.405  16.996
42816W        W43681  19.392  14.774  16.465
42817W        W43682  18.455  17.596  15.013
42818W        W43683  20.271  16.960  15.731
42819W        W43684  19.146  17.755  17.610
42820W        W43685  18.623  16.578  15.306
42821W        W43686  18.508  15.121  16.305
42822W        W43687  20.056  17.086  16.362
42823W        W43688  18.308  14.940  15.382
42824W        W43689  20.972  16.146  17.309
42825W        W43690  20.849  15.532  14.881
42826W        W43691  21.366  17.204  16.529
42827W        W43692  20.027  17.688  16.360
42828W        W43693  19.439  17.792  15.271
42829W        W43694  20.721  14.695  14.701
42830W        W43695  18.521  17.955  16.442
42831W        W43696  20.718  15.713  18.077
42832W        W43697  18.701  15.243  18.076
42833W        W43698  18.432  15.843  15.409
42834W        W43699  19.123  15.832  15.134
42835W        W43700  20.886  16.159  17.951
42836W        W43701  19.229  16.440  16.660
42837W        W43702  20.703  14.726  15.780
42838W        W43703  19.834  18.157  16.283
42839W        W43704  21.048  17.619  17.220
42840W        W43705  20.632  17.768  16.331
42841W        W43706  20.651  16.748  15.925
42842W        W43707  20.113  14.973  14.996
42843W        W43708  21.794  14.601  15.718
42844W        W43709  19.482  16.236  14.881
42845W        W43710  21.648  15.573  15.871
42846W        W43711  20.340  16.743  14.748
42847W        W43712  21.276  16.943  17.496
42848W        W43713  20.930  17.644  14.963
42849W        W43714  19.545  15.319  17.869
42850W        W43715  19.365  15.903  17.110
42851W        W43716  21.457  17.398  17.387
42852W        W43717  20.557  15.348  17.764
42853W        W43718  18.401  15.819  17.541
42854W        W43719  20.161  16.296  17.267
42855W        W43720  18.518  17.054  15.924
42856W        W43721  18.665  16.351  16.814
42857W        W43722  20.982  16.637  17.164
42858W        W43723  20.754  18.017  17.975
42859W        W43724  20.650  15.756  17.528
42860W        W43725  20.927  17.810  15.933
42861W        W43726  19.929  17.530  17.256
42862W        W43727  19.414  17.885  16.525
42863W        W43728  21.219  17.056  16.944
42864W        W43729  20.269  17.128  18.081
42865W        W43730  18.874  17.081  16.420
42866W        W43731  21.220  16.840  16.065
42867W        W43732  20.861  17.906  16.816
42868W        W43733  18.839  17.635  16.686
42869W        W43734  19.860  15.687  17.896
42870W        W43735  20.311  17.853  15.407
42871W        W43736  19.619  17.108  18.045
42872W        W43737  19.745  17.346  15.422
42873W        W43738  18.966  16.086  14.681
42874W        W43739  18.305  18.172  21.580
42875W        W43740  18.681  17.065  21.103
42876W        W43741  21.386  16.795  18.873
42877W        W43742  21.516  17.880  20.900
42878W        W43743  19.434  17.871  18.426
42879W        W43744  19.517  16.023  19.409
42880W        W43745  19.032  15.871  19.573
42881W        W43746  20.023  16.686  19.007
42882W        W43747  19.698  17.778  21.362
42883W        W43748  18.347  15.339  21.325
42884W        W43749  19.109  14.619  21.127
42885W        W43750  20.803  15.007  20.014
42886W        W43751  20.452  15.878  18.584
42887W        W43752  21.022  15.312  21.675
42888W        W43753  18.388  15.104  20.800
42889W        W43754  18.487  17.723  21.821
42890W        W43755  20.009  17.113  18.553
42891W        W43756  18.441  15.896  20.246
42892W        W43757  19.334  15.787  21.483
42893W        W43758  21.793  15.646  19.982
42894W        W43759  21.557  16.689  20.841
42895W        W43760  19.865  16.022  19.868
42896W        W43761  20.411  17.361  20.237
42897W        W43762  18.911  16.795  20.469
42898W        W43763  18.270  16.323  20.040
42899W        W43764  19.306  16.295  21.232
42900W        W43765  21.577  16.078  21.486
42901W        W43766  19.193  17.522  19.931
42902W        W43767  20.314  17.211  21.065
42903W        W43768  19.534  15.851  20.290
42904W        W43769  19.826  16.635  19.933
42905W        W43770  20.823  17.408  21.781
42906W        W43771  19.902  16.728  21.791
42907W        W43772  19.883  16.444  21.269
42908W        W43773  18.292  15.835  21.791
42909W        W43774  21.124  17.370  21.390
42910W        W43775  18.705  14.952  19.388
42911W        W43776  19.232  17.210  20.387
42912W        W43777  21.695  16.993  19.677
42913W        W43778  21.108  15.393  20.244
42914W        W43779  21.393  15.346  18.339
42915W        W43780  21.858  16.147  20.645
42916W        W43781  19.825  17.854  20.398
42917W        W43782  21.599  17.320  18.836
42918W        W43783  18.728  18.106  18.590
42919W        W43784  19.121  18.152  19.266
42920W        W43785  18.918  14.906  20.692
42921W        W43786  21.541  15.924  20.967
42922W        W43787  20.946  16.346  19.426
42923W        W43788  20.912  16.034  18.453
42924W        W43789  20.120  17.178  20.593
42925W        W43790  19.926  15.508  19.792
42926W        W43791  20.526  17.595  20.786
42927W        W43792  21.397  16.386  19.208
42928W        W43793  20.299  15.044  19.224
42929W        W43794  18.956  17.738  18.907
42930W        W43795  18.327  15.237  19.506
42931W        W43796  21.113  15.844  19.980
42932W        W43797  18.571  17.461  19.895
42933W        W43798  19.912  17.811  18.765
42934W        W43799  21.304  15.837  18.229
42935W        W43800  18.327  17.595  20.393
42936W        W43801  19.118  17.167  20.873
42937W        W43802  19.491  16.527  19.492
42938W        W43803  19.513  14.932  20.585
42939W        W43804  21.742  14.694  19.882
42940W        W43805  18.961  16.566  18.350
42941W        W43806  18.616  15.599  18.529
42942W        W43807  18.678  17.555  19.323
42943W        W43808  19.809  17.038  19.571
42944W        W43809  21.141  17.897  21.285
42945W        W43810  20.067  15.539  18.969
42946W        W43811  21.450  17.937  19.741
42947W        W43812  21.127  15.790  21.339
42948W        W43813  21.840  17.446  19.473
42949W        W43814  20.467  16.738  20.957
42950W        W43815  18.233  16.289  19.163
42951W        W43816  19.344  16.704  20.736
42952W        W43817  20.548  15.968  19.114
42953W        W43818  20.425  16.458  19.218
42954W        W43819  18.768  15.878  20.692
42955W        W43820  18.753  15.754  21.614
42956W        W43821  18.643  14.671  19.773
42957W        W43822  20.411  15.018  20.334
42958W        W43823  20.059  15.203  21.497
42959W        W43824  20.414  15.352  18.675
42960W        W43825  21.597  17.745  21.429
42961W        W43826  20.564  14.826  21.468
42962W        W43827  21.583  17.127  21.590
42963W        W43828  21.013  15.294  21.186
42964W        W43829  20.813  15.232  19.456
42965W        W43830  21.206  16.366  21.860
42966W        W43831  18.946  17.942  19.846
42967W        W43832  19.604  15.659  18.832
42968W        W43833  19.173  14.943  21.496
42969W        W43834  21.225  15.427  19.177
42970W        W43835  21.592  15.909  19.122
42971W        W43836  19.335  18.126  21.593
42972W        W43837  19.261  14.662  18.828
42973W        W43838  21.582  15.196  19.863
42974W        W43839  21.732  17.445  18.308
42975W        W43840  18.639  16.648  20.010
42976W        W43841  20.556  15.235  18.240
42977W        W43842  21.690  17.567  19.960
42978W        W43843  21.729  14.761  20.710
42979W        W43844  20.174  15.973  21.264
42980W        W43845  20.267  17.312  18.967
42981W        W43846  20.667  16.606  21.707
42982W        W43847  20.341  14.583  20.016
42983W        W43848  18.953  15.486  20.079
42984W        W43849  18.507  16.686  20.853
42985W        W43850  20.366  17.879  19.559
42986W        W43851  21.560  15.476  20.431
42987W        W43852  20.197  17.823  21.198
42988W        W43853  21.540  16.882  18.403
42989W        W43854  19.975  16.365  19.464
42990W        W43855  21.827  14.876  21.205
42991W        W43856  19.976  16.711  20.799
42992W        W43857  20.193  15.597  20.244
42993W        W43858  21.045  15.895  19.082
42994W        W43859  21.332  15.628  18.724
42995W        W43860  21.141  17.668  19.113
42996W        W43861  20.975  17.271  19.909
42997W        W43862  20.871  16.350  18.887
42998W        W43863  20.304  16.560  19.873
42999W        W43864  21.185  16.348  19.940
43000W        W43865  18.560  15.363  20.364
43001W        W43866  21.338  16.415  21.191
43002W        W43867  21.689  18.033  20.337
43003W        W43868  19.619  17.477  19.739
43004W        W43869  20.626  18.010  21.063
43005W        W43870  20.620  15.340  20.827
43006W        W43871  19.827  18.048  20.888
43007W        W43872  21.524  15.002  19.354
43008W        W43873  21.315  16.321  20.655
43009W        W43874  18.298  15.642  20.693
43010W        W43875  21.158  15.437  19.711
43011W        W43876  21.569  15.588  21.488
43012W        W43877  20.454  17.287  19.706
43013W        W43878  19.710  17.878  19.319
43014W        W43879  18.825  15.058  18.577
43015W        W43880  19.929  14.712  20.387
43016W        W43881  18.957  17.832  18.235
43017W        W43882  19.331  16.298  18.986
43018W        W43883  19.985  16.927  21.299
43019W        W43884  19.815  15.285  19.289
43020W        W43885  21.171  14.882  19.717
43021W        W43886  20.891  18.164  20.045
43022W        W43887  20.303  17.812  20.385
43023W        W43888  19.699  16.849  20.346
43024W        W43889  21.469  17.572  20.472
43025W        W43890  19.163  15.075  19.241
43026W        W43891  19.685  17.372  20.201
43027W        W43892  19.168  15.303  18.266
43028W        W43893  19.969  15.912  20.660
43029W        W43894  20.817  14.778  20.530
43030W        W43895  18.237  16.621  20.415
43031W        W43896  19.941  16.439  18.573
43032W        W43897  19.209  14.754  18.343
43033W        W43898  19.947  15.835  19.394
43034W        W43899  20.917  14.811  21.093
43035W        W43900  19.505  16.823  21.202
43036W        W43901  20.309  16.605  21.419
43037W        W43902  20.926  16.635  21.312
43038W        W43903  20.210  14.775  21.817
43039W        W43904  19.432  15.391  20.210
43040W        W43905  18.858  15.347  19.608
43041W        W43906  18.644  18.059  19.284
43042W        W43907  19.976  17.389  21.409
43043W        W43908  19.011  16.874  18.768
43044W        W43909  20.691  16.259  19.989
43045W        W43910  20.971  16.058  20.388
43046W        W43911  20.176  16.732  20.322
43047W        W43912  20.646  17.106  18.454
43048W        W43913  20.318  15.127  19.782
43049W        W43914  21.797  15.405  19.050
43050W        W43915  18.291  17.994  21.081
43051W        W43916  18.708  17.220  20.613
43052W        W43917  18.275  18.066  18.845
43053W        W43918  20.174  15.336  20.651
43054W        W43919  19.537  17.359  18.500
43055W        W43920  21.442  17.741  18.686
43056W        W43921  20.417  16.394  18.700
43057W        W43922  19.260  15.585  19.217
43058W        W43923  20.092  15.495  18.269
43059W        W43924  20.676  17.060  21.447
43060W        W43925  21.029  14.966  19.064
43061W        W43926  18.359  14.814  18.512
43062W        W43927  19.645  17.133  20.802
43063W        W43928  19.444  17.049  19.894
43064W        W43929  19.186  17.001  18.292
43065W        W43930  18.427  17.242  19.060
43066W        W43931  18.931  16.312  21.502
43067W        W43932  19.635  14.872  21.688
43068W        W43933  20.344  15.014  21.044
43069W        W43934  19.539  14.782  19.325
43070W        W43935  20.598  14.859  18.830
43071W        W43936  18.543  14.791  20.407
43072W        W43937  18.591  15.754  19.777
43073W        W43938  21.280  14.862  20.183
43074W        W43939  18.702  15.360  18.997
43075W        W43940  21.273  15.048  20.613
43076W        W43941  21.669  16.251  18.298
43077W        W43942  18.961  15.009  20.117
43078W        W43943  20.075  15.581  21.057
43079W        W43944  18.223  15.271  18.535
43080W        W43945  19.009  16.660  21.096
43081W        W43946  20.367  16.058  20.275
43082W        W43947  20.234  18.137  18.571
43083W        W43948  18.380  16.644  18.268
43084W        W43949  19.115  17.055  21.394
43085W        W43950  18.636  16.222  21.025
43086W        W43951  19.627  16.327  20.819
43087W        W43952  21.395  14.686  21.081
43088W        W43953  21.793  16.296  21.072
43089W        W43954  21.781  16.496  18.758
43090W        W43955  20.644  16.828  18.857
43091W        W43956  21.118  18.128  18.552
43092W        W43957  20.295  16.118  21.694
43093W        W43958  18.625  17.085  21.734
43094W        W43959  21.831  15.007  21.686
43095W        W43960  21.549  15.935  20.307
43096W        W43961  19.857  18.065  21.784
43097W        W43962  19.712  14.694  18.511
43098W        W43963  21.251  17.293  18.454
43099W        W43964  19.020  15.386  21.340
43100W        W43965  19.454  17.380  21.202
43101W        W43966  21.580  15.371  21.000
43102W        W43967  20.791  18.030  18.968
43103W        W43968  21.030  16.649  20.335
43104W        W43969  19.280  15.065  21.002
43105W        W43970  19.252  17.313  18.953
43106W        W43971  21.007  16.811  19.217
43107W        W43972  18.775  15.437  20.941
43108W        W43973  20.104  17.499  19.405
43109W        W43974  21.854  16.059  19.586
43110W        W43975  20.076  14.692  21.305
43111W        W43976  20.856  17.397  20.384
43112W        W43977  21.159  17.741  20.092
43113W        W43978  20.378  17.543  18.520
43114W        W43979  18.388  17.435  21.362
43115W        W43980  19.131  15.427  20.600
43116W        W43981  19.101  14.775  19.710
43117W        W43982  20.722  15.617  20.402
43118W        W43983  19.520  16.788  18.602
43119W        W43984  21.518  16.730  20.101
43120W        W43985  18.845  17.488  21.524
43121W        W43986  21.232  18.170  19.321
43122W        W43987  19.331  15.190  19.766
43123W        W43988  19.100  16.683  19.856
43124W        W43989  19.413  18.094  20.606
43125W        W43990  21.480  18.190  21.638
43126W        W43991  20.639  16.378  20.571
43127W        W43992  18.488  16.176  18.486
43128W        W43993  21.622  17.834  19.183
43129W        W43994  21.459  15.158  18.802
43130W        W43995  19.598  14.677  21.205
43131W        W43996  21.304  17.479  19.663
43132W        W43997  21.333  16.035  19.568
43133W        W43998  19.450  15.708  19.784
43134W        W43999  19.695  15.970  21.108
43135W        W44000  20.806  17.123  20.971
43136W        W44001  19.456  15.577  21.083
43137W        W44002  19.435  18.043  19.699
43138W        W44003  18.752  18.002  21.333
43139W        W44004  18.864  17.363  18.463
43140W        W44005  21.381  17.121  19.273
43141W        W44006  18.985  15.913  21.159
43142W        W44007  21.758  15.843  18.640
43143W        W44008  19.503  16.900  19.111
43144W        W44009  20.602  16.282  21.192
43145W        W44010  20.493  15.910  20.736
43146W        W44011  19.053  16.282  20.765
43147W        W44012  21.263  18.170  20.594
43148W        W44013  21.054  14.804  21.588
43149W        W44014  18.718  14.954  21.175
43150W        W44015  19.057  15.977  20.228
43151W        W44016  19.426  15.791  18.350
43152W        W44017  18.229  17.550  20.895
43153W        W44018  19.814  16.259  20.338
43154W        W44019  19.637  15.284  18.443
43155W        W44020  18.772  16.100  19.224
43156W        W44021  18.543  17.952  20.661
43157W        W44022  21.338  16.178  18.769
43158W        W44023  21.433  15.094  21.455
43159W        W44024  20.869  17.303  19.418
43160W        W44025  18.467  16.227  21.595
43161W        W44026  21.433  14.691  18.891
43162W        W44027  20.953  17.166  18.902
43163W        W44028  19.855  16.224  18.987
43164W        W44029  21.042  15.028  18.510
43165W        W44030  21.107  15.635  20.696
43166W        W44031  18.816  16.228  19.903
43167W        W44032  19.110  17.167  19.552
43168W        W44033  20.873  15.787  19.517
43169W        W44034  19.896  15.166  20.213
43170W        W44035  21.858  17.077  20.724
43171W        W44036  21.776  15.064  20.285
43172W        W44037  18.315  17.894  19.661
43173W        W44038  18.824  17.081  19.197
43174W        W44039  18.739  14.698  21.750
43175W        W44040  19.858  17.551  21.852
43176W        W44041  21.613  16.519  19.642
43177W        W44042  20.967  16.696  18.522
43178W        W44043  20.262  18.217  20.734
43179W        W44044  21.119  16.939  21.771
43180W        W44045  19.934  14.649  19.051
43181W        W44046  20.647  15.518  19.910
43182W        W44047  18.333  17.105  20.242
43183W        W44048  19.586  15.067  18.883
43184W        W44049  19.390  16.551  21.732
43185W        W44050  20.384  15.532  19.446
43186W        W44051  20.589  16.942  20.568
43187W        W44052  18.743  17.547  21.003
43188W        W44053  19.334  17.530  21.726
43189W        W44054  19.185  15.327  18.740
43190W        W44055  20.702  15.469  19.065
43191W        W44056  20.660  17.577  21.302
43192W        W44057  19.345  16.169  19.901
43193W        W44058  19.000  17.867  20.766
43194W        W44059  21.745  17.984  18.367
43195W        W44060  18.608  16.656  21.363
43196W        W44061  20.603  16.918  20.051
43197W        W44062  19.039  16.567  19.293
43198W        W44063  19.410  17.574  20.688
43199W        W44064  19.788  14.993  19.729
43200W        W44065  18.399  16.977  18.659
43201W        W44066  19.918  15.928  18.529
43202W        W44067  18.564  16.477  19.548
43203W        W44068  19.854  15.119  21.012
43204W        W44069  21.526  14.828  18.439
43205W        W44070  21.619  16.574  21.538
43206W        W44071  20.273  17.831  21.690
43207W        W44072  21.831  16.925  21.212
43208W        W44073  21.239  17.723  21.823
43209W        W44074  18.978  18.179  20.301
43210W        W44075  21.837  16.801  19.175
43211W        W44076  20.367  16.068  19.688
43212W        W44077  20.134  14.680  19.578
43213W        W44078  19.193  17.664  19.415
43214W        W44079  19.692  15.405  20.640
43215W        W44080  19.392  14.774  20.109
43216W        W44081  18.455  17.596  18.657
43217W        W44082  20.271  16.960  19.375
43218W        W44083  19.146  17.755  21.254
43219W        W44084  18.623  16.578  18.950
43220W        W44085  18.508  15.121  19.949
43221W        W44086  20.056  17.086  20.006
43222W        W44087  18.308  14.940  19.026
43223W        W44088  20.972  16.146  20.953
43224W        W44089  20.849  15.532  18.525
43225W        W44090  21.366  17.204  20.173
43226W        W44091  20.027  17.688  20.004
43227W        W44092  19.439  17.792  18.915
43228W        W44093  20.721  14.695  18.345
43229W        W44094  18.521  17.955  20.086
43230W        W44095  20.718  15.713  21.721
43231W        W44096  18.701  15.243  21.720
43232W        W44097  18.432  15.843  19.053
43233W        W44098  19.123  15.832  18.778
43234W        W44099  20.886  16.159  21.595
43235W        W44100  19.229  16.440  20.304
43236W        W44101  20.703  14.726  19.424
43237W        W44102  19.834  18.157  19.927
43238W        W44103  21.048  17.619  20.864
43239W        W44104  20.632  17.768  19.975
43240W        W44105  20.651  16.748  19.569
43241W        W44106  20.113  14.973  18.640
43242W        W44107  21.794  14.601  19.362
43243W        W44108  19.482  16.236  18.525
43244W        W44109  21.648  15.573  19.515
43245W        W44110  20.340  16.743  18.392
43246W        W44111  21.276  16.943  21.140
43247W        W44112  20.930  17.644  18.607
43248W        W44113  19.545  15.319  21.513
43249W        W44114  19.365  15.903  20.754
43250W        W44115  21.457  17.398  21.031
43251W        W44116  20.557  15.348  21.408
43252W        W44117  18.401  15.819  21.185
43253W        W44118  20.161  16.296  20.911
43254W        W44119  18.518  17.054  19.568
43255W        W44120  18.665  16.351  20.458
43256W        W44121  20.982  16.637  20.808
43257W        W44122  20.754  18.017  21.619
43258W        W44123  20.650  15.756  21.172
43259W        W44124  20.927  17.810  19.577
43260W        W44125  19.929  17.530  20.900
43261W        W44126  19.414  17.885  20.169
43262W        W44127  21.219  17.056  20.588
43263W        W44128  20.269  17.128  21.725
43264W        W44129  18.874  17.081  20.064
43265W        W44130  21.220  16.840  19.709
43266W        W44131  20.861  17.906  20.460
43267W        W44132  18.839  17.635  20.330
43268W        W44133  19.860  15.687  21.540
43269W        W44134  20.311  17.853  19.051
43270W        W44135  19.619  17.108  21.689
43271W        W44136  19.745  17.346  19.066
43272W        W44137  18.966  16.086  18.325
43273W        W44138  18.305  18.172  25.225
43274W        W44139  18.681  17.065  24.748
43275W        W44140  21.386  16.795  22.518
43276W        W44141  21.516  17.880  24.545
43277W        W44142  19.434  17.871  22.071
43278W        W44143  19.517  16.023  23.054
43279W        W44144  19.032  15.871  23.218
43280W        W44145  20.023  16.686  22.652
43281W        W44146  19.698  17.778  25.007
43282W        W44147  18.347  15.339  24.970
43283W        W44148  19.109  14.619  24.772
43284W        W44149  20.803  15.007  23.659
43285W        W44150  20.452  15.878  22.229
43286W        W44151  21.022  15.312  25.320
43287W        W44152  18.388  15.104  24.445
43288W        W44153  18.487  17.723  25.466
43289W        W44154  20.009  17.113  22.198
43290W        W44155  18.441  15.896  23.891
43291W        W44156  19.334  15.787  25.128
43292W        W44157  21.793  15.646  23.627
43293W        W44158  21.557  16.689  24.486
43294W        W44159  19.865  16.022  23.513
43295W        W44160  20.411  17.361  23.882
43296W        W44161  18.911  16.795  24.114
43297W        W44162  18.270  16.323  23.685
43298W        W44163  19.306  16.295  24.877
43299W        W44164  21.577  16.078  25.131
43300W        W44165  19.193  17.522  23.576
43301W        W44166  20.314  17.211  24.710
43302W        W44167  19.534  15.851  23.935
43303W        W44168  19.826  16.635  23.578
43304W        W44169  20.823  17.408  25.426
43305W        W44170  19.902  16.728  25.436
43306W        W44171  19.883  16.444  24.914
43307W        W44172  18.292  15.835  25.436
43308W        W44173  21.124  17.370  25.035
43309W        W44174  18.705  14.952  23.033
43310W        W44175  19.232  17.210  24.032
43311W        W44176  21.695  16.993  23.322
43312W        W44177  21.108  15.393  23.889
43313W        W44178  21.393  15.346  21.984
43314W        W44179  21.858  16.147  24.290
43315W        W44180  19.825  17.854  24.043
43316W        W44181  21.599  17.320  22.481
43317W        W44182  18.728  18.106  22.235
43318W        W44183  19.121  18.152  22.911
43319W        W44184  18.918  14.906  24.337
43320W        W44185  21.541  15.924  24.612
43321W        W44186  20.946  16.346  23.071
43322W        W44187  20.912  16.034  22.098
43323W        W44188  20.120  17.178  24.238
43324W        W44189  19.926  15.508  23.437
43325W        W44190  20.526  17.595  24.431
43326W        W44191  21.397  16.386  22.853
43327W        W44192  20.299  15.044  22.869
43328W        W44193  18.956  17.738  22.552
43329W        W44194  18.327  15.237  23.151
43330W        W44195  21.113  15.844  23.625
43331W        W44196  18.571  17.461  23.540
43332W        W44197  19.912  17.811  22.410
43333W        W44198  21.304  15.837  21.874
43334W        W44199  18.327  17.595  24.038
43335W        W44200  19.118  17.167  24.518
43336W        W44201  19.491  16.527  23.137
43337W        W44202  19.513  14.932  24.230
43338W        W44203  21.742  14.694  23.527
43339W        W44204  18.961  16.566  21.995
43340W        W44205  18.616  15.599  22.174
43341W        W44206  18.678  17.555  22.968
43342W        W44207  19.809  17.038  23.216
43343W        W44208  21.141  17.897  24.930
43344W        W44209  20.067  15.539  22.614
43345W        W44210  21.450  17.937  23.386
43346W        W44211  21.127  15.790  24.984
43347W        W44212  21.840  17.446  23.118
43348W        W44213  20.467  16.738  24.602
43349W        W44214  18.233  16.289  22.808
43350W        W44215  19.344  16.704  24.381
43351W        W44216  20.548  15.968  22.759
43352W        W44217  20.425  16.458  22.863
43353W        W44218  18.768  15.878  24.337
43354W        W44219  18.753  15.754  25.259
43355W        W44220  18.643  14.671  23.418
43356W        W44221  20.411  15.018  23.979
43357W        W44222  20.059  15.203  25.142
43358W        W44223  20.414  15.352  22.320
43359W        W44224  21.597  17.745  25.074
43360W        W44225  20.564  14.826  25.113
43361W        W44226  21.583  17.127  25.235
43362W        W44227  21.013  15.294  24.831
43363W        W44228  20.813  15.232  23.101
43364W        W44229  21.206  16.366  25.505
43365W        W44230  18.946  17.942  23.491
43366W        W44231  19.604  15.659  22.477
43367W        W44232  19.173  14.943  25.141
43368W        W44233  21.225  15.427  22.822
43369W        W44234  21.592  15.909  22.767
43370W        W44235  19.335  18.126  25.238
43371W        W44236  19.261  14.662  22.473
43372W        W44237  21.582  15.196  23.508
43373W        W44238  21.732  17.445  21.953
43374W        W44239  18.639  16.648  23.655
43375W        W44240  20.556  15.235  21.885
43376W        W44241  21.690  17.567  23.605
43377W        W44242  21.729  14.761  24.355
43378W        W44243  20.174  15.973  24.909
43379W        W44244  20.267  17.312  22.612
43380W        W44245  20.667  16.606  25.352
43381W        W44246  20.341  14.583  23.661
43382W        W44247  18.953  15.486  23.724
43383W        W44248  18.507  16.686  24.498
43384W        W44249  20.366  17.879  23.204
43385W        W44250  21.560  15.476  24.076
43386W        W44251  20.197  17.823  24.843
43387W        W44252  21.540  16.882  22.048
43388W        W44253  19.975  16.365  23.109
43389W        W44254  21.827  14.876  24.850
43390W        W44255  19.976  16.711  24.444
43391W        W44256  20.193  15.597  23.889
43392W        W44257  21.045  15.895  22.727
43393W        W44258  21.332  15.628  22.369
43394W        W44259  21.141  17.668  22.758
43395W        W44260  20.975  17.271  23.554
43396W        W44261  20.871  16.350  22.532
43397W        W44262  20.304  16.560  23.518
43398W        W44263  21.185  16.348  23.585
43399W        W44264  18.560  15.363  24.009
43400W        W44265  21.338  16.415  24.836
43401W        W44266  21.689  18.033  23.982
43402W        W44267  19.619  17.477  23.384
43403W        W44268  20.626  18.010  24.708
43404W        W44269  20.620  15.340  24.472
43405W        W44270  19.827  18.048  24.533
43406W        W44271  21.524  15.002  22.999
43407W        W44272  21.315  16.321  24.300
43408W        W44273  18.298  15.642  24.338
43409W        W44274  21.158  15.437  23.356
43410W        W44275  21.569  15.588  25.133
43411W        W44276  20.454  17.287  23.351
43412W        W44277  19.710  17.878  22.964
43413W        W44278  18.825  15.058  22.222
43414W        W44279  19.929  14.712  24.032
43415W        W44280  18.957  17.832  21.880
43416W        W44281  19.331  16.298  22.631
43417W        W44282  19.985  16.927  24.944
43418W        W44283  19.815  15.285  22.934
43419W        W44284  21.171  14.882  23.362
43420W        W44285  20.891  18.164  23.690
43421W        W44286  20.303  17.812  24.030
43422W        W44287  19.699  16.849  23.991
43423W        W44288  21.469  17.572  24.117
43424W        W44289  19.163  15.075  22.886
43425W        W44290  19.685  17.372  23.846
43426W        W44291  19.168  15.303  21.911
43427W        W44292  19.969  15.912  24.305
43428W        W44293  20.817  14.778  24.175
43429W        W44294  18.237  16.621  24.060
43430W        W44295  19.941  16.439  22.218
43431W        W44296  19.209  14.754  21.988
43432W        W44297  19.947  15.835  23.039
43433W        W44298  20.917  14.811  24.738
43434W        W44299  19.505  16.823  24.847
43435W        W44300  20.309  16.605  25.064
43436W        W44301  20.926  16.635  24.957
43437W        W44302  20.210  14.775  25.462
43438W        W44303  19.432  15.391  23.855
43439W        W44304  18.858  15.347  23.253
43440W        W44305  18.644  18.059  22.929
43441W        W44306  19.976  17.389  25.054
43442W        W44307  19.011  16.874  22.413
43443W        W44308  20.691  16.259  23.634
43444W        W44309  20.971  16.058  24.033
43445W        W44310  20.176  16.732  23.967
43446W        W44311  20.646  17.106  22.099
43447W        W44312  20.318  15.127  23.427
43448W        W44313  21.797  15.405  22.695
43449W        W44314  18.291  17.994  24.726
43450W        W44315  18.708  17.220  24.258
43451W        W44316  18.275  18.066  22.490
43452W        W44317  20.174  15.336  24.296
43453W        W44318  19.537  17.359  22.145
43454W        W44319  21.442  17.741  22.331
43455W        W44320  20.417  16.394  22.345
43456W        W44321  19.260  15.585  22.862
43457W        W44322  20.092  15.495  21.914
43458W        W44323  20.676  17.060  25.092
43459W        W44324  21.029  14.966  22.709
43460W        W44325  18.359  14.814  22.157
43461W        W44326  19.645  17.133  24.447
43462W        W44327  19.444  17.049  23.539
43463W        W44328  19.186  17.001  21.937
43464W        W44329  18.427  17.242  22.705
43465W        W44330  18.931  16.312  25.147
43466W        W44331  19.635  14.872  25.333
43467W        W44332  20.344  15.014  24.689
43468W        W44333  19.539  14.782  22.970
43469W        W44334  20.598  14.859  22.475
43470W        W44335  18.543  14.791  24.052
43471W        W44336  18.591  15.754  23.422
43472W        W44337  21.280  14.862  23.828
43473W        W44338  18.702  15.360  22.642
43474W        W44339  21.273  15.048  24.258
43475W        W44340  21.669  16.251  21.943
43476W        W44341  18.961  15.009  23.762
43477W        W44342  20.075  15.581  24.702
43478W        W44343  18.223  15.271  22.180
43479W        W44344  19.009  16.660  24.741
43480W        W44345  20.367  16.058  23.920
43481W        W44346  20.234  18.137  22.216
43482W        W44347  18.380  16.644  21.913
43483W        W44348  19.115  17.055  25.039
43484W        W44349  18.636  16.222  24.670
43485W        W44350  19.627  16.327  24.464
43486W        W44351  21.395  14.686  24.726
43487W        W44352  21.793  16.296  24.717
43488W        W44353  21.781  16.496  22.403
43489W        W44354  20.644  16.828  22.502
43490W        W44355  21.118  18.128  22.197
43491W        W44356  20.295  16.118  25.339
43492W        W44357  18.625  17.085  25.379
43493W        W44358  21.831  15.007  25.331
43494W        W44359  21.549  15.935  23.952
43495W        W44360  19.857  18.065  25.429
43496W        W44361  19.712  14.694  22.156
43497W        W44362  21.251  17.293  22.099
43498W        W44363  19.020  15.386  24.985
43499W        W44364  19.454  17.380  24.847
43500W        W44365  21.580  15.371  24.645
43501W        W44366  20.791  18.030  22.613
43502W        W44367  21.030  16.649  23.980
43503W        W44368  19.280  15.065  24.647
43504W        W44369  19.749  16.134  25.404
43505W        W44370  19.252  17.313  22.598
43506W        W44371  21.007  16.811  22.862
43507W        W44372  18.775  15.437  24.586
43508W        W44373  20.104  17.499  23.050
43509W        W44374  21.854  16.059  23.231
43510W        W44375  20.076  14.692  24.950
43511W        W44376  20.856  17.397  24.029
43512W        W44377  21.159  17.741  23.737
43513W        W44378  20.378  17.543  22.165
43514W        W44379  18.388  17.435  25.007
43515W        W44380  19.131  15.427  24.245
43516W        W44381  19.101  14.775  23.355
43517W        W44382  20.722  15.617  24.047
43518W        W44383  19.520  16.788  22.247
43519W        W44384  21.518  16.730  23.746
43520W        W44385  18.845  17.488  25.169
43521W        W44386  21.232  18.170  22.966
43522W        W44387  19.331  15.190  23.411
43523W        W44388  19.100  16.683  23.501
43524W        W44389  19.413  18.094  24.251
43525W        W44390  21.480  18.190  25.283
43526W        W44391  20.639  16.378  24.216
43527W        W44392  18.488  16.176  22.131
43528W        W44393  21.622  17.834  22.828
43529W        W44394  21.459  15.158  22.447
43530W        W44395  19.598  14.677  24.850
43531W        W44396  21.304  17.479  23.308
43532W        W44397  21.333  16.035  23.213
43533W        W44398  19.450  15.708  23.429
43534W        W44399  19.695  15.970  24.753
43535W        W44400  20.806  17.123  24.616
43536W        W44401  19.456  15.577  24.728
43537W        W44402  19.435  18.043  23.344
43538W        W44403  18.752  18.002  24.978
43539W        W44404  18.864  17.363  22.108
43540W        W44405  21.381  17.121  22.918
43541W        W44406  18.985  15.913  24.804
43542W        W44407  21.758  15.843  22.285
43543W        W44408  19.503  16.900  22.756
43544W        W44409  20.602  16.282  24.837
43545W        W44410  20.493  15.910  24.381
43546W        W44411  19.053  16.282  24.410
43547W        W44412  21.263  18.170  24.239
43548W        W44413  21.054  14.804  25.233
43549W        W44414  18.718  14.954  24.820
43550W        W44415  19.057  15.977  23.873
43551W        W44416  18.229  17.550  24.540
43552W        W44417  19.814  16.259  23.983
43553W        W44418  19.637  15.284  22.088
43554W        W44419  18.772  16.100  22.869
43555W        W44420  18.543  17.952  24.306
43556W        W44421  21.338  16.178  22.414
43557W        W44422  21.433  15.094  25.100
43558W        W44423  20.869  17.303  23.063
43559W        W44424  18.467  16.227  25.240
43560W        W44425  21.433  14.691  22.536
43561W        W44426  20.953  17.166  22.547
43562W        W44427  19.855  16.224  22.632
43563W        W44428  21.042  15.028  22.155
43564W        W44429  21.107  15.635  24.341
43565W        W44430  18.816  16.228  23.548
43566W        W44431  19.110  17.167  23.197
43567W        W44432  20.873  15.787  23.162
43568W        W44433  19.896  15.166  23.858
43569W        W44434  21.858  17.077  24.369
43570W        W44435  21.776  15.064  23.930
43571W        W44436  18.315  17.894  23.306
43572W        W44437  18.824  17.081  22.842
43573W        W44438  18.739  14.698  25.395
43574W        W44439  19.858  17.551  25.497
43575W        W44440  21.613  16.519  23.287
43576W        W44441  20.967  16.696  22.167
43577W        W44442  20.262  18.217  24.379
43578W        W44443  21.119  16.939  25.416
43579W        W44444  19.934  14.649  22.696
43580W        W44445  20.647  15.518  23.555
43581W        W44446  18.333  17.105  23.887
43582W        W44447  19.586  15.067  22.528
43583W        W44448  19.390  16.551  25.377
43584W        W44449  20.384  15.532  23.091
43585W        W44450  20.589  16.942  24.213
43586W        W44451  18.743  17.547  24.648
43587W        W44452  19.334  17.530  25.371
43588W        W44453  19.185  15.327  22.385
43589W        W44454  20.702  15.469  22.710
43590W        W44455  20.660  17.577  24.947
43591W        W44456  19.345  16.169  23.546
43592W        W44457  19.000  17.867  24.411
43593W        W44458  21.745  17.984  22.012
43594W        W44459  18.608  16.656  25.008
43595W        W44460  20.603  16.918  23.696
43596W        W44461  19.039  16.567  22.938
43597W        W44462  19.410  17.574  24.333
43598W        W44463  19.788  14.993  23.374
43599W        W44464  18.399  16.977  22.304
43600W        W44465  19.918  15.928  22.174
43601W        W44466  18.564  16.477  23.193
43602W        W44467  19.854  15.119  24.657
43603W        W44468  21.526  14.828  22.084
43604W        W44469  21.619  16.574  25.183
43605W        W44470  20.273  17.831  25.335
43606W        W44471  21.831  16.925  24.857
43607W        W44472  21.239  17.723  25.468
43608W        W44473  18.978  18.179  23.946
43609W        W44474  21.837  16.801  22.820
43610W        W44475  20.367  16.068  23.333
43611W        W44476  20.134  14.680  23.223
43612W        W44477  19.193  17.664  23.060
43613W        W44478  19.692  15.405  24.285
43614W        W44479  19.392  14.774  23.754
43615W        W44480  18.455  17.596  22.302
43616W        W44481  20.271  16.960  23.020
43617W        W44482  19.146  17.755  24.899
43618W        W44483  18.623  16.578  22.595
43619W        W44484  18.508  15.121  23.594
43620W        W44485  20.056  17.086  23.651
43621W        W44486  18.308  14.940  22.671
43622W        W44487  20.972  16.146  24.598
43623W        W44488  20.849  15.532  22.170
43624W        W44489  21.366  17.204  23.818
43625W        W44490  20.027  17.688  23.649
43626W        W44491  19.439  17.792  22.560
43627W        W44492  20.721  14.695  21.990
43628W        W44493  18.521  17.955  23.731
43629W        W44494  20.718  15.713  25.366
43630W        W44495  18.701  15.243  25.365
43631W        W44496  18.432  15.843  22.698
43632W        W44497  19.123  15.832  22.423
43633W        W44498  20.886  16.159  25.240
43634W        W44499  19.229  16.440  23.949
43635W        W44500  20.703  14.726  23.069
43636W        W44501  19.834  18.157  23.572
43637W        W44502  21.048  17.619  24.509
43638W        W44503  20.632  17.768  23.620
43639W        W44504  20.651  16.748  23.214
43640W        W44505  20.113  14.973  22.285
43641W        W44506  21.794  14.601  23.007
43642W        W44507  19.482  16.236  22.170
43643W        W44508  21.648  15.573  23.160
43644W        W44509  20.340  16.743  22.037
43645W        W44510  21.276  16.943  24.785
43646W        W44511  20.930  17.644  22.252
43647W        W44512  19.545  15.319  25.158
43648W        W44513  19.365  15.903  24.399
43649W        W44514  21.457  17.398  24.676
43650W        W44515  20.557  15.348  25.053
43651W        W44516  18.401  15.819  24.830
43652W        W44517  20.161  16.296  24.556
43653W        W44518  18.518  17.054  23.213
43654W        W44519  18.665  16.351  24.103
43655W        W44520  20.982  16.637  24.453
43656W        W44521  20.754  18.017  25.264
43657W        W44522  20.650  15.756  24.817
43658W        W44523  20.927  17.810  23.222
43659W        W44524  19.929  17.530  24.545
43660W        W44525  19.414  17.885  23.814
43661W        W44526  21.219  17.056  24.233
43662W        W44527  20.269  17.128  25.370
43663W        W44528  18.874  17.081  23.709
43664W        W44529  21.220  16.840  23.354
43665W        W44530  20.861  17.906  24.105
43666W        W44531  18.839  17.635  23.975
43667W        W44532  19.860  15.687  25.185
43668W        W44533  20.311  17.853  22.696
43669W        W44534  19.619  17.108  25.334
43670W        W44535  19.745  17.346  22.711
43671W        W44536  18.966  16.086  21.970
43672W        W44537  18.305  18.172  28.869
43673W        W44538  18.681  17.065  28.392
43674W        W44539  21.386  16.795  26.162
43675W        W44540  21.516  17.880  28.189
43676W        W44541  19.434  17.871  25.715
43677W        W44542  19.517  16.023  26.698
43678W        W44543  19.032  15.871  26.862
43679W        W44544  20.023  16.686  26.296
43680W        W44545  19.698  17.778  28.651
43681W        W44546  18.347  15.339  28.614
43682W        W44547  19.109  14.619  28.416
43683W        W44548  20.803  15.007  27.303
43684W        W44549  20.452  15.878  25.873
43685W        W44550  21.022  15.312  28.964
43686W        W44551  18.388  15.104  28.089
43687W        W44552  18.487  17.723  29.110
43688W        W44553  20.009  17.113  25.842
43689W        W44554  18.441  15.896  27.535
43690W        W44555  19.334  15.787  28.772
43691W        W44556  21.793  15.646  27.271
43692W        W44557  21.557  16.689  28.130
43693W        W44558  19.865  16.022  27.157
43694W        W44559  20.411  17.361  27.526
43695W        W44560  18.911  16.795  27.758
43696W        W44561  18.270  16.323  27.329
43697W        W44562  19.306  16.295  28.521
43698W        W44563  21.577  16.078  28.775
43699W        W44564  19.193  17.522  27.220
43700W        W44565  20.314  17.211  28.354
43701W        W44566  19.534  15.851  27.579
43702W        W44567  19.826  16.635  27.222
43703W        W44568  20.823  17.408  29.070
43704W        W44569  19.902  16.728  29.080
43705W        W44570  19.883  16.444  28.558
43706W        W44571  18.292  15.835  29.080
43707W        W44572  21.124  17.370  28.679
43708W        W44573  18.705  14.952  26.677
43709W        W44574  19.232  17.210  27.676
43710W        W44575  21.695  16.993  26.966
43711W        W44576  21.108  15.393  27.533
43712W        W44577  21.393  15.346  25.628
43713W        W44578  21.858  16.147  27.934
43714W        W44579  19.825  17.854  27.687
43715W        W44580  21.599  17.320  26.125
43716W        W44581  18.728  18.106  25.879
43717W        W44582  19.121  18.152  26.555
43718W        W44583  18.918  14.906  27.981
43719W        W44584  21.541  15.924  28.256
43720W        W44585  20.946  16.346  26.715
43721W        W44586  20.912  16.034  25.742
43722W        W44587  20.120  17.178  27.882
43723W        W44588  19.926  15.508  27.081
43724W        W44589  20.526  17.595  28.075
43725W        W44590  21.397  16.386  26.497
43726W        W44591  20.299  15.044  26.513
43727W        W44592  18.956  17.738  26.196
43728W        W44593  18.327  15.237  26.795
43729W        W44594  21.113  15.844  27.269
43730W        W44595  18.571  17.461  27.184
43731W        W44596  19.912  17.811  26.054
43732W        W44597  21.304  15.837  25.518
43733W        W44598  18.327  17.595  27.682
43734W        W44599  19.118  17.167  28.162
43735W        W44600  19.491  16.527  26.781
43736W        W44601  19.513  14.932  27.874
43737W        W44602  21.742  14.694  27.171
43738W        W44603  18.961  16.566  25.639
43739W        W44604  18.616  15.599  25.818
43740W        W44605  18.678  17.555  26.612
43741W        W44606  19.809  17.038  26.860
43742W        W44607  21.141  17.897  28.574
43743W        W44608  20.067  15.539  26.258
43744W        W44609  21.450  17.937  27.030
43745W        W44610  21.127  15.790  28.628
43746W        W44611  21.840  17.446  26.762
43747W        W44612  20.467  16.738  28.246
43748W        W44613  18.233  16.289  26.452
43749W        W44614  19.344  16.704  28.025
43750W        W44615  20.548  15.968  26.403
43751W        W44616  20.425  16.458  26.507
43752W        W44617  18.768  15.878  27.981
43753W        W44618  18.753  15.754  28.903
43754W        W44619  18.643  14.671  27.062
43755W        W44620  20.411  15.018  27.623
43756W        W44621  20.059  15.203  28.786
43757W        W44622  20.414  15.352  25.964
43758W        W44623  21.597  17.745  28.718
43759W        W44624  20.564  14.826  28.757
43760W        W44625  21.583  17.127  28.879
43761W        W44626  21.013  15.294  28.475
43762W        W44627  20.813  15.232  26.745
43763W        W44628  21.206  16.366  29.149
43764W        W44629  18.946  17.942  27.135
43765W        W44630  19.604  15.659  26.121
43766W        W44631  19.173  14.943  28.785
43767W        W44632  21.225  15.427  26.466
43768W        W44633  21.592  15.909  26.411
43769W        W44634  19.335  18.126  28.882
43770W        W44635  19.261  14.662  26.117
43771W        W44636  21.582  15.196  27.152
43772W        W44637  21.732  17.445  25.597
43773W        W44638  18.639  16.648  27.299
43774W        W44639  20.556  15.235  25.529
43775W        W44640  21.690  17.567  27.249
43776W        W44641  21.729  14.761  27.999
43777W        W44642  20.174  15.973  28.553
43778W        W44643  20.267  17.312  26.256
43779W        W44644  20.667  16.606  28.996
43780W        W44645  20.341  14.583  27.305
43781W        W44646  18.953  15.486  27.368
43782W        W44647  18.507  16.686  28.142
43783W        W44648  20.366  17.879  26.848
43784W        W44649  21.560  15.476  27.720
43785W        W44650  20.197  17.823  28.487
43786W        W44651  21.540  16.882  25.692
43787W        W44652  19.975  16.365  26.753
43788W        W44653  21.827  14.876  28.494
43789W        W44654  19.976  16.711  28.088
43790W        W44655  20.193  15.597  27.533
43791W        W44656  21.045  15.895  26.371
43792W        W44657  21.332  15.628  26.013
43793W        W44658  21.141  17.668  26.402
43794W        W44659  20.975  17.271  27.198
43795W        W44660  20.871  16.350  26.176
43796W        W44661  20.304  16.560  27.162
43797W        W44662  21.185  16.348  27.229
43798W        W44663  18.560  15.363  27.653
43799W        W44664  21.338  16.415  28.480
43800W        W44665  21.689  18.033  27.626
43801W        W44666  19.619  17.477  27.028
43802W        W44667  20.626  18.010  28.352
43803W        W44668  20.620  15.340  28.116
43804W        W44669  19.827  18.048  28.177
43805W        W44670  21.524  15.002  26.643
43806W        W44671  21.315  16.321  27.944
43807W        W44672  18.298  15.642  27.982
43808W        W44673  21.158  15.437  27.000
43809W        W44674  21.569  15.588  28.777
43810W        W44675  20.454  17.287  26.995
43811W        W44676  19.710  17.878  26.608
43812W        W44677  18.825  15.058  25.866
43813W        W44678  19.929  14.712  27.676
43814W        W44679  18.957  17.832  25.524
43815W        W44680  19.331  16.298  26.275
43816W        W44681  19.985  16.927  28.588
43817W        W44682  19.815  15.285  26.578
43818W        W44683  21.171  14.882  27.006
43819W        W44684  20.891  18.164  27.334
43820W        W44685  20.303  17.812  27.674
43821W        W44686  19.699  16.849  27.635
43822W        W44687  21.469  17.572  27.761
43823W        W44688  19.163  15.075  26.530
43824W        W44689  19.685  17.372  27.490
43825W        W44690  19.168  15.303  25.555
43826W        W44691  19.969  15.912  27.949
43827W        W44692  20.817  14.778  27.819
43828W        W44693  18.237  16.621  27.704
43829W        W44694  19.941  16.439  25.862
43830W        W44695  19.209  14.754  25.632
43831W        W44696  19.947  15.835  26.683
43832W        W44697  20.917  14.811  28.382
43833W        W44698  19.505  16.823  28.491
43834W        W44699  20.309  16.605  28.708
43835W        W44700  20.926  16.635  28.601
43836W        W44701  20.210  14.775  29.106
43837W        W44702  19.432  15.391  27.499
43838W        W44703  18.858  15.347  26.897
43839W        W44704  18.644  18.059  26.573
43840W        W44705  19.976  17.389  28.698
43841W        W44706  19.011  16.874  26.057
43842W        W44707  20.691  16.259  27.278
43843W        W44708  20.971  16.058  27.677
43844W        W44709  20.176  16.732  27.611
43845W        W44710  20.646  17.106  25.743
43846W        W44711  20.318  15.127  27.071
43847W        W44712  21.797  15.405  26.339
43848W        W44713  18.291  17.994  28.370
43849W        W44714  18.708  17.220  27.902
43850W        W44715  18.275  18.066  26.134
43851W        W44716  20.174  15.336  27.940
43852W        W44717  19.537  17.359  25.789
43853W        W44718  21.442  17.741  25.975
43854W        W44719  20.417  16.394  25.989
43855W        W44720  19.260  15.585  26.506
43856W        W44721  20.092  15.495  25.558
43857W        W44722  20.676  17.060  28.736
43858W        W44723  21.029  14.966  26.353
43859W        W44724  18.359  14.814  25.801
43860W        W44725  19.645  17.133  28.091
43861W        W44726  19.444  17.049  27.183
43862W        W44727  19.186  17.001  25.581
43863W        W44728  18.427  17.242  26.349
43864W        W44729  18.931  16.312  28.791
43865W        W44730  19.635  14.872  28.977
43866W        W44731  20.344  15.014  28.333
43867W        W44732  19.539  14.782  26.614
43868W        W44733  20.598  14.859  26.119
43869W        W44734  18.543  14.791  27.696
43870W        W44735  18.591  15.754  27.066
43871W        W44736  21.280  14.862  27.472
43872W        W44737  18.702  15.360  26.286
43873W        W44738  21.273  15.048  27.902
43874W        W44739  21.669  16.251  25.587
43875W        W44740  18.961  15.009  27.406
43876W        W44741  20.075  15.581  28.346
43877W        W44742  18.223  15.271  25.824
43878W        W44743  19.009  16.660  28.385
43879W        W44744  20.367  16.058  27.564
43880W        W44745  20.234  18.137  25.860
43881W        W44746  18.380  16.644  25.557
43882W        W44747  19.115  17.055  28.683
43883W        W44748  18.636  16.222  28.314
43884W        W44749  19.627  16.327  28.108
43885W        W44750  21.395  14.686  28.370
43886W        W44751  21.793  16.296  28.361
43887W        W44752  21.781  16.496  26.047
43888W        W44753  20.644  16.828  26.146
43889W        W44754  21.118  18.128  25.841
43890W        W44755  20.295  16.118  28.983
43891W        W44756  18.625  17.085  29.023
43892W        W44757  21.831  15.007  28.975
43893W        W44758  21.549  15.935  27.596
43894W        W44759  19.857  18.065  29.073
43895W        W44760  19.712  14.694  25.800
43896W        W44761  21.251  17.293  25.743
43897W        W44762  19.020  15.386  28.629
43898W        W44763  19.454  17.380  28.491
43899W        W44764  21.580  15.371  28.289
43900W        W44765  20.791  18.030  26.257
43901W        W44766  21.030  16.649  27.624
43902W        W44767  19.280  15.065  28.291
43903W        W44768  19.749  16.134  29.048
43904W        W44769  19.252  17.313  26.242
43905W        W44770  21.007  16.811  26.506
43906W        W44771  18.775  15.437  28.230
43907W        W44772  20.104  17.499  26.694
43908W        W44773  21.854  16.059  26.875
43909W        W44774  20.076  14.692  28.594
43910W        W44775  20.856  17.397  27.673
43911W        W44776  21.159  17.741  27.381
43912W        W44777  20.378  17.543  25.809
43913W        W44778  18.388  17.435  28.651
43914W        W44779  19.131  15.427  27.889
43915W        W44780  19.101  14.775  26.999
43916W        W44781  20.722  15.617  27.691
43917W        W44782  19.520  16.788  25.891
43918W        W44783  21.518  16.730  27.390
43919W        W44784  18.845  17.488  28.813
43920W        W44785  21.232  18.170  26.610
43921W        W44786  19.331  15.190  27.055
43922W        W44787  19.100  16.683  27.145
43923W        W44788  19.413  18.094  27.895
43924W        W44789  21.480  18.190  28.927
43925W        W44790  20.639  16.378  27.860
43926W        W44791  18.488  16.176  25.775
43927W        W44792  21.622  17.834  26.472
43928W        W44793  21.459  15.158  26.091
43929W        W44794  19.598  14.677  28.494
43930W        W44795  21.304  17.479  26.952
43931W        W44796  21.333  16.035  26.857
43932W        W44797  19.450  15.708  27.073
43933W        W44798  19.695  15.970  28.397
43934W        W44799  20.806  17.123  28.260
43935W        W44800  19.456  15.577  28.372
43936W        W44801  19.435  18.043  26.988
43937W        W44802  18.752  18.002  28.622
43938W        W44803  18.864  17.363  25.752
43939W        W44804  21.381  17.121  26.562
43940W        W44805  18.985  15.913  28.448
43941W        W44806  21.758  15.843  25.929
43942W        W44807  19.503  16.900  26.400
43943W        W44808  20.602  16.282  28.481
43944W        W44809  20.493  15.910  28.025
43945W        W44810  19.053  16.282  28.054
43946W        W44811  21.263  18.170  27.883
43947W        W44812  21.054  14.804  28.877
43948W        W44813  18.718  14.954  28.464
43949W        W44814  19.057  15.977  27.517
43950W        W44815  19.426  15.791  25.639
43951W        W44816  18.229  17.550  28.184
43952W        W44817  19.814  16.259  27.627
43953W        W44818  19.637  15.284  25.732
43954W        W44819  18.772  16.100  26.513
43955W        W44820  18.543  17.952  27.950
43956W        W44821  21.338  16.178  26.058
43957W        W44822  21.433  15.094  28.744
43958W        W44823  20.869  17.303  26.707
43959W        W44824  18.467  16.227  28.884
43960W        W44825  21.433  14.691  26.180
43961W        W44826  20.953  17.166  26.191
43962W        W44827  19.855  16.224  26.276
43963W        W44828  21.042  15.028  25.799
43964W        W44829  21.107  15.635  27.985
43965W        W44830  18.816  16.228  27.192
43966W        W44831  19.110  17.167  26.841
43967W        W44832  20.873  15.787  26.806
43968W        W44833  19.896  15.166  27.502
43969W        W44834  21.858  17.077  28.013
43970W        W44835  21.776  15.064  27.574
43971W        W44836  18.315  17.894  26.950
43972W        W44837  18.824  17.081  26.486
43973W        W44838  18.739  14.698  29.039
43974W        W44839  19.858  17.551  29.141
43975W        W44840  21.613  16.519  26.931
43976W        W44841  20.967  16.696  25.811
43977W        W44842  20.262  18.217  28.023
43978W        W44843  21.119  16.939  29.060
43979W        W44844  19.934  14.649  26.340
43980W        W44845  20.647  15.518  27.199
43981W        W44846  18.333  17.105  27.531
43982W        W44847  19.586  15.067  26.172
43983W        W44848  19.390  16.551  29.021
43984W        W44849  20.384  15.532  26.735
43985W        W44850  20.589  16.942  27.857
43986W        W44851  18.743  17.547  28.292
43987W        W44852  19.334  17.530  29.015
43988W        W44853  19.185  15.327  26.029
43989W        W44854  20.702  15.469  26.354
43990W        W44855  20.660  17.577  28.591
43991W        W44856  19.345  16.169  27.190
43992W        W44857  19.000  17.867  28.055
43993W        W44858  21.745  17.984  25.656
43994W        W44859  18.608  16.656  28.652
43995W        W44860  20.603  16.918  27.340
43996W        W44861  19.039  16.567  26.582
43997W        W44862  19.410  17.574  27.977
43998W        W44863  19.788  14.993  27.018
43999W        W44864  18.399  16.977  25.948
44000W        W44865  19.918  15.928  25.818
44001W        W44866  18.564  16.477  26.837
44002W        W44867  19.854  15.119  28.301
44003W        W44868  21.526  14.828  25.728
44004W        W44869  21.619  16.574  28.827
44005W        W44870  20.273  17.831  28.979
44006W        W44871  21.831  16.925  28.501
44007W        W44872  21.239  17.723  29.112
44008W        W44873  18.978  18.179  27.590
44009W        W44874  21.837  16.801  26.464
44010W        W44875  20.367  16.068  26.977
44011W        W44876  20.134  14.680  26.867
44012W        W44877  19.193  17.664  26.704
44013W        W44878  19.692  15.405  27.929
44014W        W44879  19.392  14.774  27.398
44015W        W44880  18.455  17.596  25.946
44016W        W44881  20.271  16.960  26.664
44017W        W44882  19.146  17.755  28.543
44018W        W44883  18.623  16.578  26.239
44019W        W44884  18.508  15.121  27.238
44020W        W44885  20.056  17.086  27.295
44021W        W44886  18.308  14.940  26.315
44022W        W44887  20.972  16.146  28.242
44023W        W44888  20.849  15.532  25.814
44024W        W44889  21.366  17.204  27.462
44025W        W44890  20.027  17.688  27.293
44026W        W44891  19.439  17.792  26.204
44027W        W44892  20.721  14.695  25.634
44028W        W44893  18.521  17.955  27.375
44029W        W44894  20.718  15.713  29.010
44030W        W44895  18.701  15.243  29.009
44031W        W44896  18.432  15.843  26.342
44032W        W44897  19.123  15.832  26.067
44033W        W44898  20.886  16.159  28.884
44034W        W44899  19.229  16.440  27.593
44035W        W44900  20.703  14.726  26.713
44036W        W44901  19.834  18.157  27.216
44037W        W44902  21.048  17.619  28.153
44038W        W44903  20.632  17.768  27.264
44039W        W44904  20.651  16.748  26.858
44040W        W44905  20.113  14.973  25.929
44041W        W44906  21.794  14.601  26.651
44042W        W44907  19.482  16.236  25.814
44043W        W44908  21.648  15.573  26.804
44044W        W44909  20.340  16.743  25.681
44045W        W44910  21.276  16.943  28.429
44046W        W44911  20.930  17.644  25.896
44047W        W44912  19.545  15.319  28.802
44048W        W44913  19.365  15.903  28.043
44049W        W44914  21.457  17.398  28.320
44050W        W44915  20.557  15.348  28.697
44051W        W44916  18.401  15.819  28.474
44052W        W44917  20.161  16.296  28.200
44053W        W44918  18.518  17.054  26.857
44054W        W44919  18.665  16.351  27.747
44055W        W44920  20.982  16.637  28.097
44056W        W44921  20.754  18.017  28.908
44057W        W44922  20.650  15.756  28.461
44058W        W44923  20.927  17.810  26.866
44059W        W44924  19.929  17.530  28.189
44060W        W44925  19.414  17.885  27.458
44061W        W44926  21.219  17.056  27.877
44062W        W44927  20.269  17.128  29.014
44063W        W44928  18.874  17.081  27.353
44064W        W44929  21.220  16.840  26.998
44065W        W44930  20.861  17.906  27.749
44066W        W44931  18.839  17.635  27.619
44067W        W44932  19.860  15.687  28.829
44068W        W44933  20.311  17.853  26.340
44069W        W44934  19.619  17.108  28.978
44070W        W44935  19.745  17.346  26.355
44071W        W44936  18.966  16.086  25.614
44072W        W44937  18.305  21.816   3.359
44073W        W44938  18.681  20.709   2.882
44074W        W44939  21.386  20.439   0.652
44075W        W44940  21.516  21.524   2.679
44076W        W44941  19.434  21.515   0.205
44077W        W44942  19.517  19.667   1.188
44078W        W44943  19.032  19.515   1.352
44079W        W44944  20.023  20.330   0.786
44080W        W44945  19.698  21.422   3.141
44081W        W44946  18.347  18.983   3.104
44082W        W44947  19.109  18.263   2.906
44083W        W44948  20.803  18.651   1.793
44084W        W44949  20.452  19.522   0.363
44085W        W44950  21.022  18.956   3.454
44086W        W44951  18.388  18.748   2.579
44087W        W44952  18.487  21.367   3.600
44088W        W44953  20.009  20.757   0.332
44089W        W44954  18.441  19.540   2.025
44090W        W44955  19.334  19.431   3.262
44091W        W44956  21.793  19.290   1.761
44092W        W44957  21.557  20.333   2.620
44093W        W44958  19.865  19.666   1.647
44094W        W44959  20.411  21.005   2.016
44095W        W44960  18.911  20.439   2.248
44096W        W44961  18.270  19.967   1.819
44097W        W44962  19.306  19.939   3.011
44098W        W44963  21.577  19.722   3.265
44099W        W44964  19.193  21.166   1.710
44100W        W44965  20.314  20.855   2.844
44101W        W44966  19.534  19.495   2.069
44102W        W44967  19.826  20.279   1.712
44103W        W44968  20.823  21.052   3.560
44104W        W44969  19.902  20.372   3.570
44105W        W44970  19.883  20.088   3.048
44106W        W44971  18.292  19.479   3.570
44107W        W44972  21.124  21.014   3.169
44108W        W44973  18.705  18.596   1.167
44109W        W44974  19.232  20.854   2.166
44110W        W44975  21.695  20.637   1.456
44111W        W44976  21.108  19.037   2.023
44112W        W44977  21.393  18.990   0.118
44113W        W44978  21.858  19.791   2.424
44114W        W44979  19.825  21.498   2.177
44115W        W44980  21.599  20.964   0.615
44116W        W44981  18.728  21.750   0.369
44117W        W44982  19.121  21.796   1.045
44118W        W44983  18.918  18.550   2.471
44119W        W44984  21.541  19.568   2.746
44120W        W44985  20.946  19.990   1.205
44121W        W44986  20.912  19.678   0.232
44122W        W44987  20.120  20.822   2.372
44123W        W44988  19.926  19.152   1.571
44124W        W44989  20.526  21.239   2.565
44125W        W44990  21.397  20.030   0.987
44126W        W44991  20.299  18.688   1.003
44127W        W44992  18.956  21.382   0.686
44128W        W44993  18.327  18.881   1.285
44129W        W44994  21.113  19.488   1.759
44130W        W44995  18.571  21.105   1.674
44131W        W44996  19.912  21.455   0.544
44132W        W44997  21.304  19.481   0.008
44133W        W44998  18.327  21.239   2.172
44134W        W44999  19.118  20.811   2.652
44135W        W45000  19.491  20.171   1.271
44136W        W45001  19.513  18.576   2.364
44137W        W45002  21.742  18.338   1.661
44138W        W45003  18.961  20.210   0.129
44139W        W45004  18.616  19.243   0.308
44140W        W45005  18.678  21.199   1.102
44141W        W45006  19.809  20.682   1.350
44142W        W45007  21.141  21.541   3.064
44143W        W45008  20.067  19.183   0.748
44144W        W45009  21.450  21.581   1.520
44145W        W45010  21.127  19.434   3.118
44146W        W45011  21.840  21.090   1.252
44147W        W45012  20.467  20.382   2.736
44148W        W45013  18.233  19.933   0.942
44149W        W45014  19.344  20.348   2.515
44150W        W45015  20.548  19.612   0.893
44151W        W45016  20.425  20.102   0.997
44152W        W45017  18.768  19.522   2.471
44153W        W45018  18.753  19.398   3.393
44154W        W45019  18.643  18.315   1.552
44155W        W45020  20.411  18.662   2.113
44156W        W45021  20.059  18.847   3.276
44157W        W45022  20.414  18.996   0.454
44158W        W45023  21.597  21.389   3.208
44159W        W45024  20.564  18.470   3.247
44160W        W45025  21.583  20.771   3.369
44161W        W45026  21.013  18.938   2.965
44162W        W45027  20.813  18.876   1.235
44163W        W45028  21.206  20.010   3.639
44164W        W45029  18.946  21.586   1.625
44165W        W45030  19.604  19.303   0.611
44166W        W45031  19.173  18.587   3.275
44167W        W45032  21.225  19.071   0.956
44168W        W45033  21.592  19.553   0.901
44169W        W45034  19.335  21.770   3.372
44170W        W45035  19.261  18.306   0.607
44171W        W45036  21.582  18.840   1.642
44172W        W45037  21.732  21.089   0.087
44173W        W45038  18.639  20.292   1.789
44174W        W45039  20.556  18.879   0.019
44175W        W45040  21.690  21.211   1.739
44176W        W45041  21.729  18.405   2.489
44177W        W45042  20.174  19.617   3.043
44178W        W45043  20.267  20.956   0.746
44179W        W45044  20.667  20.250   3.486
44180W        W45045  20.341  18.227   1.795
44181W        W45046  18.953  19.130   1.858
44182W        W45047  18.507  20.330   2.632
44183W        W45048  20.366  21.523   1.338
44184W        W45049  21.560  19.120   2.210
44185W        W45050  20.197  21.467   2.977
44186W        W45051  21.540  20.526   0.182
44187W        W45052  19.975  20.009   1.243
44188W        W45053  21.827  18.520   2.984
44189W        W45054  19.976  20.355   2.578
44190W        W45055  20.193  19.241   2.023
44191W        W45056  21.045  19.539   0.861
44192W        W45057  21.332  19.272   0.503
44193W        W45058  21.141  21.312   0.892
44194W        W45059  20.975  20.915   1.688
44195W        W45060  20.871  19.994   0.666
44196W        W45061  20.304  20.204   1.652
44197W        W45062  21.185  19.992   1.719
44198W        W45063  18.560  19.007   2.143
44199W        W45064  21.338  20.059   2.970
44200W        W45065  21.689  21.677   2.116
44201W        W45066  19.619  21.121   1.518
44202W        W45067  20.626  21.654   2.842
44203W        W45068  20.620  18.984   2.606
44204W        W45069  19.827  21.692   2.667
44205W        W45070  21.524  18.646   1.133
44206W        W45071  21.315  19.965   2.434
44207W        W45072  18.298  19.286   2.472
44208W        W45073  21.158  19.081   1.490
44209W        W45074  21.569  19.232   3.267
44210W        W45075  20.454  20.931   1.485
44211W        W45076  19.710  21.522   1.098
44212W        W45077  18.825  18.702   0.356
44213W        W45078  19.929  18.356   2.166
44214W        W45079  18.957  21.476   0.014
44215W        W45080  19.331  19.942   0.765
44216W        W45081  19.985  20.571   3.078
44217W        W45082  19.815  18.929   1.068
44218W        W45083  21.171  18.526   1.496
44219W        W45084  20.891  21.808   1.824
44220W        W45085  20.303  21.456   2.164
44221W        W45086  19.699  20.493   2.125
44222W        W45087  21.469  21.216   2.251
44223W        W45088  19.163  18.719   1.020
44224W        W45089  19.685  21.016   1.980
44225W        W45090  19.969  19.556   2.439
44226W        W45091  20.817  18.422   2.309
44227W        W45092  18.237  20.265   2.194
44228W        W45093  19.941  20.083   0.352
44229W        W45094  19.209  18.398   0.122
44230W        W45095  19.947  19.479   1.173
44231W        W45096  20.917  18.455   2.872
44232W        W45097  19.505  20.467   2.981
44233W        W45098  20.309  20.249   3.198
44234W        W45099  20.926  20.279   3.091
44235W        W45100  20.210  18.419   3.596
44236W        W45101  19.432  19.035   1.989
44237W        W45102  18.858  18.991   1.387
44238W        W45103  18.644  21.703   1.063
44239W        W45104  19.976  21.033   3.188
44240W        W45105  19.011  20.518   0.547
44241W        W45106  20.691  19.903   1.768
44242W        W45107  20.971  19.702   2.167
44243W        W45108  20.176  20.376   2.101
44244W        W45109  20.646  20.750   0.233
44245W        W45110  20.318  18.771   1.561
44246W        W45111  21.797  19.049   0.829
44247W        W45112  18.291  21.638   2.860
44248W        W45113  18.708  20.864   2.392
44249W        W45114  18.275  21.710   0.624
44250W        W45115  20.174  18.980   2.430
44251W        W45116  19.537  21.003   0.279
44252W        W45117  21.442  21.385   0.465
44253W        W45118  20.417  20.038   0.479
44254W        W45119  19.260  19.229   0.996
44255W        W45120  20.092  19.139   0.048
44256W        W45121  20.676  20.704   3.226
44257W        W45122  21.029  18.610   0.843
44258W        W45123  18.359  18.458   0.291
44259W        W45124  19.645  20.777   2.581
44260W        W45125  19.444  20.693   1.673
44261W        W45126  19.186  20.645   0.071
44262W        W45127  18.427  20.886   0.839
44263W        W45128  18.931  19.956   3.281
44264W        W45129  19.635  18.516   3.467
44265W        W45130  20.344  18.658   2.823
44266W        W45131  19.539  18.426   1.104
44267W        W45132  20.598  18.503   0.609
44268W        W45133  18.543  18.435   2.186
44269W        W45134  18.591  19.398   1.556
44270W        W45135  21.280  18.506   1.962
44271W        W45136  18.702  19.004   0.776
44272W        W45137  21.273  18.692   2.392
44273W        W45138  21.669  19.895   0.077
44274W        W45139  18.961  18.653   1.896
44275W        W45140  20.075  19.225   2.836
44276W        W45141  18.223  18.915   0.314
44277W        W45142  19.009  20.304   2.875
44278W        W45143  20.367  19.702   2.054
44279W        W45144  20.234  21.781   0.350
44280W        W45145  18.380  20.288   0.047
44281W        W45146  19.115  20.699   3.173
44282W        W45147  18.636  19.866   2.804
44283W        W45148  19.627  19.971   2.598
44284W        W45149  21.395  18.330   2.860
44285W        W45150  21.793  19.940   2.851
44286W        W45151  21.781  20.140   0.537
44287W        W45152  20.644  20.472   0.636
44288W        W45153  21.118  21.772   0.331
44289W        W45154  20.295  19.762   3.473
44290W        W45155  18.625  20.729   3.513
44291W        W45156  21.831  18.651   3.465
44292W        W45157  21.549  19.579   2.086
44293W        W45158  19.857  21.709   3.563
44294W        W45159  19.712  18.338   0.290
44295W        W45160  21.251  20.937   0.233
44296W        W45161  19.020  19.030   3.119
44297W        W45162  19.454  21.024   2.981
44298W        W45163  21.580  19.015   2.779
44299W        W45164  20.791  21.674   0.747
44300W        W45165  21.030  20.293   2.114
44301W        W45166  19.280  18.709   2.781
44302W        W45167  19.749  19.778   3.538
44303W        W45168  19.252  20.957   0.732
44304W        W45169  21.007  20.455   0.996
44305W        W45170  18.775  19.081   2.720
44306W        W45171  20.104  21.143   1.184
44307W        W45172  21.854  19.703   1.365
44308W        W45173  20.076  18.336   3.084
44309W        W45174  20.856  21.041   2.163
44310W        W45175  21.159  21.385   1.871
44311W        W45176  20.378  21.187   0.299
44312W        W45177  18.388  21.079   3.141
44313W        W45178  19.131  19.071   2.379
44314W        W45179  19.101  18.419   1.489
44315W        W45180  20.722  19.261   2.181
44316W        W45181  19.520  20.432   0.381
44317W        W45182  21.518  20.374   1.880
44318W        W45183  18.845  21.132   3.303
44319W        W45184  21.232  21.814   1.100
44320W        W45185  19.331  18.834   1.545
44321W        W45186  19.100  20.327   1.635
44322W        W45187  19.413  21.738   2.385
44323W        W45188  21.480  21.834   3.417
44324W        W45189  20.639  20.022   2.350
44325W        W45190  18.488  19.820   0.265
44326W        W45191  21.622  21.478   0.962
44327W        W45192  21.459  18.802   0.581
44328W        W45193  19.598  18.321   2.984
44329W        W45194  21.304  21.123   1.442
44330W        W45195  21.333  19.679   1.347
44331W        W45196  19.450  19.352   1.563
44332W        W45197  19.695  19.614   2.887
44333W        W45198  20.806  20.767   2.750
44334W        W45199  19.456  19.221   2.862
44335W        W45200  19.435  21.687   1.478
44336W        W45201  18.752  21.646   3.112
44337W        W45202  18.864  21.007   0.242
44338W        W45203  21.381  20.765   1.052
44339W        W45204  18.985  19.557   2.938
44340W        W45205  21.758  19.487   0.419
44341W        W45206  19.503  20.544   0.890
44342W        W45207  20.602  19.926   2.971
44343W        W45208  20.493  19.554   2.515
44344W        W45209  19.053  19.926   2.544
44345W        W45210  21.263  21.814   2.373
44346W        W45211  21.054  18.448   3.367
44347W        W45212  18.718  18.598   2.954
44348W        W45213  19.057  19.621   2.007
44349W        W45214  19.426  19.435   0.129
44350W        W45215  18.229  21.194   2.674
44351W        W45216  19.814  19.903   2.117
44352W        W45217  19.637  18.928   0.222
44353W        W45218  18.772  19.744   1.003
44354W        W45219  18.543  21.596   2.440
44355W        W45220  21.338  19.822   0.548
44356W        W45221  21.433  18.738   3.234
44357W        W45222  20.869  20.947   1.197
44358W        W45223  18.467  19.871   3.374
44359W        W45224  21.433  18.335   0.670
44360W        W45225  20.953  20.810   0.681
44361W        W45226  19.855  19.868   0.766
44362W        W45227  21.042  18.672   0.289
44363W        W45228  21.107  19.279   2.475
44364W        W45229  18.816  19.872   1.682
44365W        W45230  19.110  20.811   1.331
44366W        W45231  20.873  19.431   1.296
44367W        W45232  19.896  18.810   1.992
44368W        W45233  21.858  20.721   2.503
44369W        W45234  21.776  18.708   2.064
44370W        W45235  18.315  21.538   1.440
44371W        W45236  18.824  20.725   0.976
44372W        W45237  18.739  18.342   3.529
44373W        W45238  19.858  21.195   3.631
44374W        W45239  21.613  20.163   1.421
44375W        W45240  20.967  20.340   0.301
44376W        W45241  20.262  21.861   2.513
44377W        W45242  21.119  20.583   3.550
44378W        W45243  19.934  18.293   0.830
44379W        W45244  20.647  19.162   1.689
44380W        W45245  18.333  20.749   2.021
44381W        W45246  19.586  18.711   0.662
44382W        W45247  19.390  20.195   3.511
44383W        W45248  20.384  19.176   1.225
44384W        W45249  20.589  20.586   2.347
44385W        W45250  18.743  21.191   2.782
44386W        W45251  19.334  21.174   3.505
44387W        W45252  20.702  19.113   0.844
44388W        W45253  20.660  21.221   3.081
44389W        W45254  19.345  19.813   1.680
44390W        W45255  19.000  21.511   2.545
44391W        W45256  21.745  21.628   0.146
44392W        W45257  18.608  20.300   3.142
44393W        W45258  20.603  20.562   1.830
44394W        W45259  19.039  20.211   1.072
44395W        W45260  19.410  21.218   2.467
44396W        W45261  19.788  18.637   1.508
44397W        W45262  18.399  20.621   0.438
44398W        W45263  19.918  19.572   0.308
44399W        W45264  18.564  20.121   1.327
44400W        W45265  19.854  18.763   2.791
44401W        W45266  21.526  18.472   0.218
44402W        W45267  21.619  20.218   3.317
44403W        W45268  20.273  21.475   3.469
44404W        W45269  21.831  20.569   2.991
44405W        W45270  21.239  21.367   3.602
44406W        W45271  18.978  21.823   2.080
44407W        W45272  21.837  20.445   0.954
44408W        W45273  20.367  19.712   1.467
44409W        W45274  20.134  18.324   1.357
44410W        W45275  19.193  21.308   1.194
44411W        W45276  19.692  19.049   2.419
44412W        W45277  19.392  18.418   1.888
44413W        W45278  18.455  21.240   0.436
44414W        W45279  20.271  20.604   1.154
44415W        W45280  19.146  21.399   3.033
44416W        W45281  18.623  20.222   0.729
44417W        W45282  18.508  18.765   1.728
44418W        W45283  20.056  20.730   1.785
44419W        W45284  18.308  18.584   0.805
44420W        W45285  20.972  19.790   2.732
44421W        W45286  20.849  19.176   0.304
44422W        W45287  21.366  20.848   1.952
44423W        W45288  20.027  21.332   1.783
44424W        W45289  19.439  21.436   0.694
44425W        W45290  20.721  18.339   0.124
44426W        W45291  18.521  21.599   1.865
44427W        W45292  20.718  19.357   3.500
44428W        W45293  18.701  18.887   3.499
44429W        W45294  18.432  19.487   0.832
44430W        W45295  19.123  19.476   0.557
44431W        W45296  20.886  19.803   3.374
44432W        W45297  19.229  20.084   2.083
44433W        W45298  20.703  18.370   1.203
44434W        W45299  19.834  21.801   1.706
44435W        W45300  21.048  21.263   2.643
44436W        W45301  20.632  21.412   1.754
44437W        W45302  20.651  20.392   1.348
44438W        W45303  20.113  18.617   0.419
44439W        W45304  21.794  18.245   1.141
44440W        W45305  19.482  19.880   0.304
44441W        W45306  21.648  19.217   1.294
44442W        W45307  20.340  20.387   0.171
44443W        W45308  21.276  20.587   2.919
44444W        W45309  20.930  21.288   0.386
44445W        W45310  19.545  18.963   3.292
44446W        W45311  19.365  19.547   2.533
44447W        W45312  21.457  21.042   2.810
44448W        W45313  20.557  18.992   3.187
44449W        W45314  18.401  19.463   2.964
44450W        W45315  20.161  19.940   2.690
44451W        W45316  18.518  20.698   1.347
44452W        W45317  18.665  19.995   2.237
44453W        W45318  20.982  20.281   2.587
44454W        W45319  20.754  21.661   3.398
44455W        W45320  20.650  19.400   2.951
44456W        W45321  20.927  21.454   1.356
44457W        W45322  19.929  21.174   2.679
44458W        W45323  19.414  21.529   1.948
44459W        W45324  21.219  20.700   2.367
44460W        W45325  20.269  20.772   3.504
44461W        W45326  18.874  20.725   1.843
44462W        W45327  21.220  20.484   1.488
44463W        W45328  20.861  21.550   2.239
44464W        W45329  18.839  21.279   2.109
44465W        W45330  19.860  19.331   3.319
44466W        W45331  20.311  21.497   0.830
44467W        W45332  19.619  20.752   3.468
44468W        W45333  19.745  20.990   0.845
44469W        W45334  18.966  19.730   0.104
44470W        W45335  18.305  21.816   7.003
44471W        W45336  18.681  20.709   6.526
44472W        W45337  21.386  20.439   4.296
44473W        W45338  21.516  21.524   6.323
44474W        W45339  19.434  21.515   3.849
44475W        W45340  19.517  19.667   4.832
44476W        W45341  19.032  19.515   4.996
44477W        W45342  20.023  20.330   4.430
44478W        W45343  19.698  21.422   6.785
44479W        W45344  18.347  18.983   6.748
44480W        W45345  19.109  18.263   6.550
44481W        W45346  20.803  18.651   5.437
44482W        W45347  20.452  19.522   4.007
44483W        W45348  21.022  18.956   7.098
44484W        W45349  18.388  18.748   6.223
44485W        W45350  18.487  21.367   7.244
44486W        W45351  20.009  20.757   3.976
44487W        W45352  18.441  19.540   5.669
44488W        W45353  19.334  19.431   6.906
44489W        W45354  21.793  19.290   5.405
44490W        W45355  21.557  20.333   6.264
44491W        W45356  19.865  19.666   5.291
44492W        W45357  20.411  21.005   5.660
44493W        W45358  18.911  20.439   5.892
44494W        W45359  18.270  19.967   5.463
44495W        W45360  19.306  19.939   6.655
44496W        W45361  21.577  19.722   6.909
44497W        W45362  19.193  21.166   5.354
44498W        W45363  20.314  20.855   6.488
44499W        W45364  19.534  19.495   5.713
44500W        W45365  19.826  20.279   5.356
44501W        W45366  20.823  21.052   7.204
44502W        W45367  19.902  20.372   7.214
44503W        W45368  19.883  20.088   6.692
44504W        W45369  18.292  19.479   7.214
44505W        W45370  21.124  21.014   6.813
44506W        W45371  18.705  18.596   4.811
44507W        W45372  19.232  20.854   5.810
44508W        W45373  21.695  20.637   5.100
44509W        W45374  21.108  19.037   5.667
44510W        W45375  21.393  18.990   3.762
44511W        W45376  21.858  19.791   6.068
44512W        W45377  19.825  21.498   5.821
44513W        W45378  21.599  20.964   4.259
44514W        W45379  18.728  21.750   4.013
44515W        W45380  19.121  21.796   4.689
44516W        W45381  18.918  18.550   6.115
44517W        W45382  21.541  19.568   6.390
44518W        W45383  20.946  19.990   4.849
44519W        W45384  20.912  19.678   3.876
44520W        W45385  20.120  20.822   6.016
44521W        W45386  19.926  19.152   5.215
44522W        W45387  20.526  21.239   6.209
44523W        W45388  21.397  20.030   4.631
44524W        W45389  20.299  18.688   4.647
44525W        W45390  18.956  21.382   4.330
44526W        W45391  18.327  18.881   4.929
44527W        W45392  21.113  19.488   5.403
44528W        W45393  18.571  21.105   5.318
44529W        W45394  19.912  21.455   4.188
44530W        W45395  21.304  19.481   3.652
44531W        W45396  18.327  21.239   5.816
44532W        W45397  19.118  20.811   6.296
44533W        W45398  19.491  20.171   4.915
44534W        W45399  19.513  18.576   6.008
44535W        W45400  21.742  18.338   5.305
44536W        W45401  18.961  20.210   3.773
44537W        W45402  18.616  19.243   3.952
44538W        W45403  18.678  21.199   4.746
44539W        W45404  19.809  20.682   4.994
44540W        W45405  21.141  21.541   6.708
44541W        W45406  20.067  19.183   4.392
44542W        W45407  21.450  21.581   5.164
44543W        W45408  21.127  19.434   6.762
44544W        W45409  21.840  21.090   4.896
44545W        W45410  20.467  20.382   6.380
44546W        W45411  18.233  19.933   4.586
44547W        W45412  19.344  20.348   6.159
44548W        W45413  20.548  19.612   4.537
44549W        W45414  20.425  20.102   4.641
44550W        W45415  18.768  19.522   6.115
44551W        W45416  18.753  19.398   7.037
44552W        W45417  18.643  18.315   5.196
44553W        W45418  20.411  18.662   5.757
44554W        W45419  20.059  18.847   6.920
44555W        W45420  20.414  18.996   4.098
44556W        W45421  21.597  21.389   6.852
44557W        W45422  20.564  18.470   6.891
44558W        W45423  21.583  20.771   7.013
44559W        W45424  21.013  18.938   6.609
44560W        W45425  20.813  18.876   4.879
44561W        W45426  21.206  20.010   7.283
44562W        W45427  18.946  21.586   5.269
44563W        W45428  19.604  19.303   4.255
44564W        W45429  19.173  18.587   6.919
44565W        W45430  21.225  19.071   4.600
44566W        W45431  21.592  19.553   4.545
44567W        W45432  19.335  21.770   7.016
44568W        W45433  19.261  18.306   4.251
44569W        W45434  21.582  18.840   5.286
44570W        W45435  21.732  21.089   3.731
44571W        W45436  18.639  20.292   5.433
44572W        W45437  20.556  18.879   3.663
44573W        W45438  21.690  21.211   5.383
44574W        W45439  21.729  18.405   6.133
44575W        W45440  20.174  19.617   6.687
44576W        W45441  20.267  20.956   4.390
44577W        W45442  20.667  20.250   7.130
44578W        W45443  20.341  18.227   5.439
44579W        W45444  18.953  19.130   5.502
44580W        W45445  18.507  20.330   6.276
44581W        W45446  20.366  21.523   4.982
44582W        W45447  21.560  19.120   5.854
44583W        W45448  20.197  21.467   6.621
44584W        W45449  21.540  20.526   3.826
44585W        W45450  19.975  20.009   4.887
44586W        W45451  21.827  18.520   6.628
44587W        W45452  19.976  20.355   6.222
44588W        W45453  20.193  19.241   5.667
44589W        W45454  21.045  19.539   4.505
44590W        W45455  21.332  19.272   4.147
44591W        W45456  21.141  21.312   4.536
44592W        W45457  20.975  20.915   5.332
44593W        W45458  20.871  19.994   4.310
44594W        W45459  20.304  20.204   5.296
44595W        W45460  21.185  19.992   5.363
44596W        W45461  18.560  19.007   5.787
44597W        W45462  21.338  20.059   6.614
44598W        W45463  21.689  21.677   5.760
44599W        W45464  19.619  21.121   5.162
44600W        W45465  20.626  21.654   6.486
44601W        W45466  20.620  18.984   6.250
44602W        W45467  19.827  21.692   6.311
44603W        W45468  21.524  18.646   4.777
44604W        W45469  21.315  19.965   6.078
44605W        W45470  18.298  19.286   6.116
44606W        W45471  21.158  19.081   5.134
44607W        W45472  21.569  19.232   6.911
44608W        W45473  20.454  20.931   5.129
44609W        W45474  19.710  21.522   4.742
44610W        W45475  18.825  18.702   4.000
44611W        W45476  19.929  18.356   5.810
44612W        W45477  18.957  21.476   3.658
44613W        W45478  19.331  19.942   4.409
44614W        W45479  19.985  20.571   6.722
44615W        W45480  19.815  18.929   4.712
44616W        W45481  21.171  18.526   5.140
44617W        W45482  20.891  21.808   5.468
44618W        W45483  20.303  21.456   5.808
44619W        W45484  19.699  20.493   5.769
44620W        W45485  21.469  21.216   5.895
44621W        W45486  19.163  18.719   4.664
44622W        W45487  19.685  21.016   5.624
44623W        W45488  19.168  18.947   3.689
44624W        W45489  19.969  19.556   6.083
44625W        W45490  20.817  18.422   5.953
44626W        W45491  18.237  20.265   5.838
44627W        W45492  19.941  20.083   3.996
44628W        W45493  19.209  18.398   3.766
44629W        W45494  19.947  19.479   4.817
44630W        W45495  20.917  18.455   6.516
44631W        W45496  19.505  20.467   6.625
44632W        W45497  20.309  20.249   6.842
44633W        W45498  20.926  20.279   6.735
44634W        W45499  20.210  18.419   7.240
44635W        W45500  19.432  19.035   5.633
44636W        W45501  18.858  18.991   5.031
44637W        W45502  18.644  21.703   4.707
44638W        W45503  19.976  21.033   6.832
44639W        W45504  19.011  20.518   4.191
44640W        W45505  20.691  19.903   5.412
44641W        W45506  20.971  19.702   5.811
44642W        W45507  20.176  20.376   5.745
44643W        W45508  20.646  20.750   3.877
44644W        W45509  20.318  18.771   5.205
44645W        W45510  21.797  19.049   4.473
44646W        W45511  18.291  21.638   6.504
44647W        W45512  18.708  20.864   6.036
44648W        W45513  18.275  21.710   4.268
44649W        W45514  20.174  18.980   6.074
44650W        W45515  19.537  21.003   3.923
44651W        W45516  21.442  21.385   4.109
44652W        W45517  20.417  20.038   4.123
44653W        W45518  19.260  19.229   4.640
44654W        W45519  20.092  19.139   3.692
44655W        W45520  20.676  20.704   6.870
44656W        W45521  21.029  18.610   4.487
44657W        W45522  18.359  18.458   3.935
44658W        W45523  19.645  20.777   6.225
44659W        W45524  19.444  20.693   5.317
44660W        W45525  19.186  20.645   3.715
44661W        W45526  18.427  20.886   4.483
44662W        W45527  18.931  19.956   6.925
44663W        W45528  19.635  18.516   7.111
44664W        W45529  20.344  18.658   6.467
44665W        W45530  19.539  18.426   4.748
44666W        W45531  20.598  18.503   4.253
44667W        W45532  18.543  18.435   5.830
44668W        W45533  18.591  19.398   5.200
44669W        W45534  21.280  18.506   5.606
44670W        W45535  18.702  19.004   4.420
44671W        W45536  21.273  18.692   6.036
44672W        W45537  21.669  19.895   3.721
44673W        W45538  18.961  18.653   5.540
44674W        W45539  20.075  19.225   6.480
44675W        W45540  18.223  18.915   3.958
44676W        W45541  19.009  20.304   6.519
44677W        W45542  20.367  19.702   5.698
44678W        W45543  20.234  21.781   3.994
44679W        W45544  18.380  20.288   3.691
44680W        W45545  19.115  20.699   6.817
44681W        W45546  18.636  19.866   6.448
44682W        W45547  19.627  19.971   6.242
44683W        W45548  21.395  18.330   6.504
44684W        W45549  21.793  19.940   6.495
44685W        W45550  21.781  20.140   4.181
44686W        W45551  20.644  20.472   4.280
44687W        W45552  21.118  21.772   3.975
44688W        W45553  20.295  19.762   7.117
44689W        W45554  18.625  20.729   7.157
44690W        W45555  21.831  18.651   7.109
44691W        W45556  21.549  19.579   5.730
44692W        W45557  19.857  21.709   7.207
44693W        W45558  19.712  18.338   3.934
44694W        W45559  21.251  20.937   3.877
44695W        W45560  19.020  19.030   6.763
44696W        W45561  19.454  21.024   6.625
44697W        W45562  21.580  19.015   6.423
44698W        W45563  20.791  21.674   4.391
44699W        W45564  21.030  20.293   5.758
44700W        W45565  19.280  18.709   6.425
44701W        W45566  19.749  19.778   7.182
44702W        W45567  19.252  20.957   4.376
44703W        W45568  21.007  20.455   4.640
44704W        W45569  18.775  19.081   6.364
44705W        W45570  20.104  21.143   4.828
44706W        W45571  21.854  19.703   5.009
44707W        W45572  20.076  18.336   6.728
44708W        W45573  20.856  21.041   5.807
44709W        W45574  21.159  21.385   5.515
44710W        W45575  20.378  21.187   3.943
44711W        W45576  18.388  21.079   6.785
44712W        W45577  19.131  19.071   6.023
44713W        W45578  19.101  18.419   5.133
44714W        W45579  20.722  19.261   5.825
44715W        W45580  19.520  20.432   4.025
44716W        W45581  21.518  20.374   5.524
44717W        W45582  18.845  21.132   6.947
44718W        W45583  21.232  21.814   4.744
44719W        W45584  19.331  18.834   5.189
44720W        W45585  19.100  20.327   5.279
44721W        W45586  19.413  21.738   6.029
44722W        W45587  21.480  21.834   7.061
44723W        W45588  20.639  20.022   5.994
44724W        W45589  18.488  19.820   3.909
44725W        W45590  21.622  21.478   4.606
44726W        W45591  21.459  18.802   4.225
44727W        W45592  19.598  18.321   6.628
44728W        W45593  21.304  21.123   5.086
44729W        W45594  21.333  19.679   4.991
44730W        W45595  19.450  19.352   5.207
44731W        W45596  19.695  19.614   6.531
44732W        W45597  20.806  20.767   6.394
44733W        W45598  19.456  19.221   6.506
44734W        W45599  19.435  21.687   5.122
44735W        W45600  18.752  21.646   6.756
44736W        W45601  18.864  21.007   3.886
44737W        W45602  21.381  20.765   4.696
44738W        W45603  18.985  19.557   6.582
44739W        W45604  21.758  19.487   4.063
44740W        W45605  19.503  20.544   4.534
44741W        W45606  20.602  19.926   6.615
44742W        W45607  20.493  19.554   6.159
44743W        W45608  19.053  19.926   6.188
44744W        W45609  21.263  21.814   6.017
44745W        W45610  21.054  18.448   7.011
44746W        W45611  18.718  18.598   6.598
44747W        W45612  19.057  19.621   5.651
44748W        W45613  19.426  19.435   3.773
44749W        W45614  18.229  21.194   6.318
44750W        W45615  19.814  19.903   5.761
44751W        W45616  19.637  18.928   3.866
44752W        W45617  18.772  19.744   4.647
44753W        W45618  18.543  21.596   6.084
44754W        W45619  21.338  19.822   4.192
44755W        W45620  21.433  18.738   6.878
44756W        W45621  20.869  20.947   4.841
44757W        W45622  18.467  19.871   7.018
44758W        W45623  21.433  18.335   4.314
44759W        W45624  20.953  20.810   4.325
44760W        W45625  19.855  19.868   4.410
44761W        W45626  21.042  18.672   3.933
44762W        W45627  21.107  19.279   6.119
44763W        W45628  18.816  19.872   5.326
44764W        W45629  19.110  20.811   4.975
44765W        W45630  20.873  19.431   4.940
44766W        W45631  19.896  18.810   5.636
44767W        W45632  21.858  20.721   6.147
44768W        W45633  21.776  18.708   5.708
44769W        W45634  18.315  21.538   5.084
44770W        W45635  18.824  20.725   4.620
44771W        W45636  18.739  18.342   7.173
44772W        W45637  19.858  21.195   7.275
44773W        W45638  21.613  20.163   5.065
44774W        W45639  20.967  20.340   3.945
44775W        W45640  20.262  21.861   6.157
44776W        W45641  21.119  20.583   7.194
44777W        W45642  19.934  18.293   4.474
44778W        W45643  20.647  19.162   5.333
44779W        W45644  18.333  20.749   5.665
44780W        W45645  19.586  18.711   4.306
44781W        W45646  19.390  20.195   7.155
44782W        W45647  20.384  19.176   4.869
44783W        W45648  20.589  20.586   5.991
44784W        W45649  18.743  21.191   6.426
44785W        W45650  19.334  21.174   7.149
44786W        W45651  19.185  18.971   4.163
44787W        W45652  20.702  19.113   4.488
44788W        W45653  20.660  21.221   6.725
44789W        W45654  19.345  19.813   5.324
44790W        W45655  19.000  21.511   6.189
44791W        W45656  21.745  21.628   3.790
44792W        W45657  18.608  20.300   6.786
44793W        W45658  20.603  20.562   5.474
44794W        W45659  19.039  20.211   4.716
44795W        W45660  19.410  21.218   6.111
44796W        W45661  19.788  18.637   5.152
44797W        W45662  18.399  20.621   4.082
44798W        W45663  19.918  19.572   3.952
44799W        W45664  18.564  20.121   4.971
44800W        W45665  19.854  18.763   6.435
44801W        W45666  21.526  18.472   3.862
44802W        W45667  21.619  20.218   6.961
44803W        W45668  20.273  21.475   7.113
44804W        W45669  21.831  20.569   6.635
44805W        W45670  21.239  21.367   7.246
44806W        W45671  18.978  21.823   5.724
44807W        W45672  21.837  20.445   4.598
44808W        W45673  20.367  19.712   5.111
44809W        W45674  20.134  18.324   5.001
44810W        W45675  19.193  21.308   4.838
44811W        W45676  19.692  19.049   6.063
44812W        W45677  19.392  18.418   5.532
44813W        W45678  18.455  21.240   4.080
44814W        W45679  20.271  20.604   4.798
44815W        W45680  19.146  21.399   6.677
44816W        W45681  18.623  20.222   4.373
44817W        W45682  18.508  18.765   5.372
44818W        W45683  20.056  20.730   5.429
44819W        W45684  18.308  18.584   4.449
44820W        W45685  20.972  19.790   6.376
44821W        W45686  20.849  19.176   3.948
44822W        W45687  21.366  20.848   5.596
44823W        W45688  20.027  21.332   5.427
44824W        W45689  19.439  21.436   4.338
44825W        W45690  20.721  18.339   3.768
44826W        W45691  18.521  21.599   5.509
44827W        W45692  20.718  19.357   7.144
44828W        W45693  18.701  18.887   7.143
44829W        W45694  18.432  19.487   4.476
44830W        W45695  19.123  19.476   4.201
44831W        W45696  20.886  19.803   7.018
44832W        W45697  19.229  20.084   5.727
44833W        W45698  20.703  18.370   4.847
44834W        W45699  19.834  21.801   5.350
44835W        W45700  21.048  21.263   6.287
44836W        W45701  20.632  21.412   5.398
44837W        W45702  20.651  20.392   4.992
44838W        W45703  20.113  18.617   4.063
44839W        W45704  21.794  18.245   4.785
44840W        W45705  19.482  19.880   3.948
44841W        W45706  21.648  19.217   4.938
44842W        W45707  20.340  20.387   3.815
44843W        W45708  21.276  20.587   6.563
44844W        W45709  20.930  21.288   4.030
44845W        W45710  19.545  18.963   6.936
44846W        W45711  19.365  19.547   6.177
44847W        W45712  21.457  21.042   6.454
44848W        W45713  20.557  18.992   6.831
44849W        W45714  18.401  19.463   6.608
44850W        W45715  20.161  19.940   6.334
44851W        W45716  18.518  20.698   4.991
44852W        W45717  18.665  19.995   5.881
44853W        W45718  20.982  20.281   6.231
44854W        W45719  20.754  21.661   7.042
44855W        W45720  20.650  19.400   6.595
44856W        W45721  20.927  21.454   5.000
44857W        W45722  19.929  21.174   6.323
44858W        W45723  19.414  21.529   5.592
44859W        W45724  21.219  20.700   6.011
44860W        W45725  20.269  20.772   7.148
44861W        W45726  18.874  20.725   5.487
44862W        W45727  21.220  20.484   5.132
44863W        W45728  20.861  21.550   5.883
44864W        W45729  18.839  21.279   5.753
44865W        W45730  19.860  19.331   6.963
44866W        W45731  20.311  21.497   4.474
44867W        W45732  19.619  20.752   7.112
44868W        W45733  19.745  20.990   4.489
44869W        W45734  18.966  19.730   3.748
44870W        W45735  18.305  21.816  10.648
44871W        W45736  18.681  20.709  10.171
44872W        W45737  21.386  20.439   7.941
44873W        W45738  21.516  21.524   9.968
44874W        W45739  19.434  21.515   7.494
44875W        W45740  19.517  19.667   8.477
44876W        W45741  19.032  19.515   8.641
44877W        W45742  20.023  20.330   8.075
44878W        W45743  19.698  21.422  10.430
44879W        W45744  18.347  18.983  10.393
44880W        W45745  19.109  18.263  10.195
44881W        W45746  20.803  18.651   9.082
44882W        W45747  20.452  19.522   7.652
44883W        W45748  21.022  18.956  10.743
44884W        W45749  18.388  18.748   9.868
44885W        W45750  18.487  21.367  10.889
44886W        W45751  20.009  20.757   7.621
44887W        W45752  18.441  19.540   9.314
44888W        W45753  19.334  19.431  10.551
44889W        W45754  21.793  19.290   9.050
44890W        W45755  21.557  20.333   9.909
44891W        W45756  19.865  19.666   8.936
44892W        W45757  20.411  21.005   9.305
44893W        W45758  18.911  20.439   9.537
44894W        W45759  18.270  19.967   9.108
44895W        W45760  19.306  19.939  10.300
44896W        W45761  21.577  19.722  10.554
44897W        W45762  19.193  21.166   8.999
44898W        W45763  20.314  20.855  10.133
44899W        W45764  19.534  19.495   9.358
44900W        W45765  19.826  20.279   9.001
44901W        W45766  20.823  21.052  10.849
44902W        W45767  19.902  20.372  10.859
44903W        W45768  19.883  20.088  10.337
44904W        W45769  18.292  19.479  10.859
44905W        W45770  21.124  21.014  10.458
44906W        W45771  18.705  18.596   8.456
44907W        W45772  19.232  20.854   9.455
44908W        W45773  21.695  20.637   8.745
44909W        W45774  21.108  19.037   9.312
44910W        W45775  21.393  18.990   7.407
44911W        W45776  21.858  19.791   9.713
44912W        W45777  19.825  21.498   9.466
44913W        W45778  21.599  20.964   7.904
44914W        W45779  18.728  21.750   7.658
44915W        W45780  19.121  21.796   8.334
44916W        W45781  18.918  18.550   9.760
44917W        W45782  21.541  19.568  10.035
44918W        W45783  20.946  19.990   8.494
44919W        W45784  20.912  19.678   7.521
44920W        W45785  20.120  20.822   9.661
44921W        W45786  19.926  19.152   8.860
44922W        W45787  20.526  21.239   9.854
44923W        W45788  21.397  20.030   8.276
44924W        W45789  20.299  18.688   8.292
44925W        W45790  18.956  21.382   7.975
44926W        W45791  18.327  18.881   8.574
44927W        W45792  21.113  19.488   9.048
44928W        W45793  18.571  21.105   8.963
44929W        W45794  19.912  21.455   7.833
44930W        W45795  21.304  19.481   7.297
44931W        W45796  18.327  21.239   9.461
44932W        W45797  19.118  20.811   9.941
44933W        W45798  19.491  20.171   8.560
44934W        W45799  19.513  18.576   9.653
44935W        W45800  21.742  18.338   8.950
44936W        W45801  18.961  20.210   7.418
44937W        W45802  18.616  19.243   7.597
44938W        W45803  18.678  21.199   8.391
44939W        W45804  19.809  20.682   8.639
44940W        W45805  21.141  21.541  10.353
44941W        W45806  20.067  19.183   8.037
44942W        W45807  21.450  21.581   8.809
44943W        W45808  21.127  19.434  10.407
44944W        W45809  21.840  21.090   8.541
44945W        W45810  20.467  20.382  10.025
44946W        W45811  18.233  19.933   8.231
44947W        W45812  19.344  20.348   9.804
44948W        W45813  20.548  19.612   8.182
44949W        W45814  20.425  20.102   8.286
44950W        W45815  18.768  19.522   9.760
44951W        W45816  18.753  19.398  10.682
44952W        W45817  18.643  18.315   8.841
44953W        W45818  20.411  18.662   9.402
44954W        W45819  20.059  18.847  10.565
44955W        W45820  20.414  18.996   7.743
44956W        W45821  21.597  21.389  10.497
44957W        W45822  20.564  18.470  10.536
44958W        W45823  21.583  20.771  10.658
44959W        W45824  21.013  18.938  10.254
44960W        W45825  20.813  18.876   8.524
44961W        W45826  21.206  20.010  10.928
44962W        W45827  18.946  21.586   8.914
44963W        W45828  19.604  19.303   7.900
44964W        W45829  19.173  18.587  10.564
44965W        W45830  21.225  19.071   8.245
44966W        W45831  21.592  19.553   8.190
44967W        W45832  19.335  21.770  10.661
44968W        W45833  19.261  18.306   7.896
44969W        W45834  21.582  18.840   8.931
44970W        W45835  21.732  21.089   7.376
44971W        W45836  18.639  20.292   9.078
44972W        W45837  20.556  18.879   7.308
44973W        W45838  21.690  21.211   9.028
44974W        W45839  21.729  18.405   9.778
44975W        W45840  20.174  19.617  10.332
44976W        W45841  20.267  20.956   8.035
44977W        W45842  20.667  20.250  10.775
44978W        W45843  20.341  18.227   9.084
44979W        W45844  18.953  19.130   9.147
44980W        W45845  18.507  20.330   9.921
44981W        W45846  20.366  21.523   8.627
44982W        W45847  21.560  19.120   9.499
44983W        W45848  20.197  21.467  10.266
44984W        W45849  21.540  20.526   7.471
44985W        W45850  19.975  20.009   8.532
44986W        W45851  21.827  18.520  10.273
44987W        W45852  19.976  20.355   9.867
44988W        W45853  20.193  19.241   9.312
44989W        W45854  21.045  19.539   8.150
44990W        W45855  21.332  19.272   7.792
44991W        W45856  21.141  21.312   8.181
44992W        W45857  20.975  20.915   8.977
44993W        W45858  20.871  19.994   7.955
44994W        W45859  20.304  20.204   8.941
44995W        W45860  21.185  19.992   9.008
44996W        W45861  18.560  19.007   9.432
44997W        W45862  21.338  20.059  10.259
44998W        W45863  21.689  21.677   9.405
44999W        W45864  19.619  21.121   8.807
45000W        W45865  20.626  21.654  10.131
45001W        W45866  20.620  18.984   9.895
45002W        W45867  19.827  21.692   9.956
45003W        W45868  21.524  18.646   8.422
45004W        W45869  21.315  19.965   9.723
45005W        W45870  18.298  19.286   9.761
45006W        W45871  21.158  19.081   8.779
45007W        W45872  21.569  19.232  10.556
45008W        W45873  20.454  20.931   8.774
45009W        W45874  19.710  21.522   8.387
45010W        W45875  18.825  18.702   7.645
45011W        W45876  19.929  18.356   9.455
45012W        W45877  18.957  21.476   7.303
45013W        W45878  19.331  19.942   8.054
45014W        W45879  19.985  20.571  10.367
45015W        W45880  19.815  18.929   8.357
45016W        W45881  21.171  18.526   8.785
45017W        W45882  20.891  21.808   9.113
45018W        W45883  20.303  21.456   9.453
45019W        W45884  19.699  20.493   9.414
45020W        W45885  21.469  21.216   9.540
45021W        W45886  19.163  18.719   8.309
45022W        W45887  19.685  21.016   9.269
45023W        W45888  19.168  18.947   7.334
45024W        W45889  19.969  19.556   9.728
45025W        W45890  20.817  18.422   9.598
45026W        W45891  18.237  20.265   9.483
45027W        W45892  19.941  20.083   7.641
45028W        W45893  19.209  18.398   7.411
45029W        W45894  19.947  19.479   8.462
45030W        W45895  20.917  18.455  10.161
45031W        W45896  19.505  20.467  10.270
45032W        W45897  20.309  20.249  10.487
45033W        W45898  20.926  20.279  10.380
45034W        W45899  20.210  18.419  10.885
45035W        W45900  19.432  19.035   9.278
45036W        W45901  18.858  18.991   8.676
45037W        W45902  18.644  21.703   8.352
45038W        W45903  19.976  21.033  10.477
45039W        W45904  19.011  20.518   7.836
45040W        W45905  20.691  19.903   9.057
45041W        W45906  20.971  19.702   9.456
45042W        W45907  20.176  20.376   9.390
45043W        W45908  20.646  20.750   7.522
45044W        W45909  20.318  18.771   8.850
45045W        W45910  21.797  19.049   8.118
45046W        W45911  18.291  21.638  10.149
45047W        W45912  18.708  20.864   9.681
45048W        W45913  18.275  21.710   7.913
45049W        W45914  20.174  18.980   9.719
45050W        W45915  19.537  21.003   7.568
45051W        W45916  21.442  21.385   7.754
45052W        W45917  20.417  20.038   7.768
45053W        W45918  19.260  19.229   8.285
45054W        W45919  20.092  19.139   7.337
45055W        W45920  20.676  20.704  10.515
45056W        W45921  21.029  18.610   8.132
45057W        W45922  18.359  18.458   7.580
45058W        W45923  19.645  20.777   9.870
45059W        W45924  19.444  20.693   8.962
45060W        W45925  19.186  20.645   7.360
45061W        W45926  18.427  20.886   8.128
45062W        W45927  18.931  19.956  10.570
45063W        W45928  19.635  18.516  10.756
45064W        W45929  20.344  18.658  10.112
45065W        W45930  19.539  18.426   8.393
45066W        W45931  20.598  18.503   7.898
45067W        W45932  18.543  18.435   9.475
45068W        W45933  18.591  19.398   8.845
45069W        W45934  21.280  18.506   9.251
45070W        W45935  18.702  19.004   8.065
45071W        W45936  21.273  18.692   9.681
45072W        W45937  21.669  19.895   7.366
45073W        W45938  18.961  18.653   9.185
45074W        W45939  20.075  19.225  10.125
45075W        W45940  18.223  18.915   7.603
45076W        W45941  19.009  20.304  10.164
45077W        W45942  20.367  19.702   9.343
45078W        W45943  20.234  21.781   7.639
45079W        W45944  18.380  20.288   7.336
45080W        W45945  19.115  20.699  10.462
45081W        W45946  18.636  19.866  10.093
45082W        W45947  19.627  19.971   9.887
45083W        W45948  21.395  18.330  10.149
45084W        W45949  21.793  19.940  10.140
45085W        W45950  21.781  20.140   7.826
45086W        W45951  20.644  20.472   7.925
45087W        W45952  21.118  21.772   7.620
45088W        W45953  20.295  19.762  10.762
45089W        W45954  18.625  20.729  10.802
45090W        W45955  21.831  18.651  10.754
45091W        W45956  21.549  19.579   9.375
45092W        W45957  19.857  21.709  10.852
45093W        W45958  19.712  18.338   7.579
45094W        W45959  21.251  20.937   7.522
45095W        W45960  19.020  19.030  10.408
45096W        W45961  19.454  21.024  10.270
45097W        W45962  21.580  19.015  10.068
45098W        W45963  20.791  21.674   8.036
45099W        W45964  21.030  20.293   9.403
45100W        W45965  19.280  18.709  10.070
45101W        W45966  19.749  19.778  10.827
45102W        W45967  19.252  20.957   8.021
45103W        W45968  21.007  20.455   8.285
45104W        W45969  18.775  19.081  10.009
45105W        W45970  20.104  21.143   8.473
45106W        W45971  21.854  19.703   8.654
45107W        W45972  20.076  18.336  10.373
45108W        W45973  20.856  21.041   9.452
45109W        W45974  21.159  21.385   9.160
45110W        W45975  20.378  21.187   7.588
45111W        W45976  18.388  21.079  10.430
45112W        W45977  19.131  19.071   9.668
45113W        W45978  19.101  18.419   8.778
45114W        W45979  20.722  19.261   9.470
45115W        W45980  19.520  20.432   7.670
45116W        W45981  21.518  20.374   9.169
45117W        W45982  18.845  21.132  10.592
45118W        W45983  21.232  21.814   8.389
45119W        W45984  19.331  18.834   8.834
45120W        W45985  19.100  20.327   8.924
45121W        W45986  19.413  21.738   9.674
45122W        W45987  21.480  21.834  10.706
45123W        W45988  20.639  20.022   9.639
45124W        W45989  18.488  19.820   7.554
45125W        W45990  21.622  21.478   8.251
45126W        W45991  21.459  18.802   7.870
45127W        W45992  19.598  18.321  10.273
45128W        W45993  21.304  21.123   8.731
45129W        W45994  21.333  19.679   8.636
45130W        W45995  19.450  19.352   8.852
45131W        W45996  19.695  19.614  10.176
45132W        W45997  20.806  20.767  10.039
45133W        W45998  19.456  19.221  10.151
45134W        W45999  19.435  21.687   8.767
45135W        W46000  18.752  21.646  10.401
45136W        W46001  18.864  21.007   7.531
45137W        W46002  21.381  20.765   8.341
45138W        W46003  18.985  19.557  10.227
45139W        W46004  21.758  19.487   7.708
45140W        W46005  19.503  20.544   8.179
45141W        W46006  20.602  19.926  10.260
45142W        W46007  20.493  19.554   9.804
45143W        W46008  19.053  19.926   9.833
45144W        W46009  21.263  21.814   9.662
45145W        W46010  21.054  18.448  10.656
45146W        W46011  18.718  18.598  10.243
45147W        W46012  19.057  19.621   9.296
45148W        W46013  19.426  19.435   7.418
45149W        W46014  18.229  21.194   9.963
45150W        W46015  19.814  19.903   9.406
45151W        W46016  19.637  18.928   7.511
45152W        W46017  18.772  19.744   8.292
45153W        W46018  18.543  21.596   9.729
45154W        W46019  21.338  19.822   7.837
45155W        W46020  21.433  18.738  10.523
45156W        W46021  20.869  20.947   8.486
45157W        W46022  18.467  19.871  10.663
45158W        W46023  21.433  18.335   7.959
45159W        W46024  20.953  20.810   7.970
45160W        W46025  19.855  19.868   8.055
45161W        W46026  21.042  18.672   7.578
45162W        W46027  21.107  19.279   9.764
45163W        W46028  18.816  19.872   8.971
45164W        W46029  19.110  20.811   8.620
45165W        W46030  20.873  19.431   8.585
45166W        W46031  19.896  18.810   9.281
45167W        W46032  21.858  20.721   9.792
45168W        W46033  21.776  18.708   9.353
45169W        W46034  18.315  21.538   8.729
45170W        W46035  18.824  20.725   8.265
45171W        W46036  18.739  18.342  10.818
45172W        W46037  19.858  21.195  10.920
45173W        W46038  21.613  20.163   8.710
45174W        W46039  20.967  20.340   7.590
45175W        W46040  20.262  21.861   9.802
45176W        W46041  21.119  20.583  10.839
45177W        W46042  19.934  18.293   8.119
45178W        W46043  20.647  19.162   8.978
45179W        W46044  18.333  20.749   9.310
45180W        W46045  19.586  18.711   7.951
45181W        W46046  19.390  20.195  10.800
45182W        W46047  20.384  19.176   8.514
45183W        W46048  20.589  20.586   9.636
45184W        W46049  18.743  21.191  10.071
45185W        W46050  19.334  21.174  10.794
45186W        W46051  19.185  18.971   7.808
45187W        W46052  20.702  19.113   8.133
45188W        W46053  20.660  21.221  10.370
45189W        W46054  19.345  19.813   8.969
45190W        W46055  19.000  21.511   9.834
45191W        W46056  21.745  21.628   7.435
45192W        W46057  18.608  20.300  10.431
45193W        W46058  20.603  20.562   9.119
45194W        W46059  19.039  20.211   8.361
45195W        W46060  19.410  21.218   9.756
45196W        W46061  19.788  18.637   8.797
45197W        W46062  18.399  20.621   7.727
45198W        W46063  19.918  19.572   7.597
45199W        W46064  18.564  20.121   8.616
45200W        W46065  19.854  18.763  10.080
45201W        W46066  21.526  18.472   7.507
45202W        W46067  21.619  20.218  10.606
45203W        W46068  20.273  21.475  10.758
45204W        W46069  21.831  20.569  10.280
45205W        W46070  21.239  21.367  10.891
45206W        W46071  18.978  21.823   9.369
45207W        W46072  21.837  20.445   8.243
45208W        W46073  20.367  19.712   8.756
45209W        W46074  20.134  18.324   8.646
45210W        W46075  19.193  21.308   8.483
45211W        W46076  19.692  19.049   9.708
45212W        W46077  19.392  18.418   9.177
45213W        W46078  18.455  21.240   7.725
45214W        W46079  20.271  20.604   8.443
45215W        W46080  19.146  21.399  10.322
45216W        W46081  18.623  20.222   8.018
45217W        W46082  18.508  18.765   9.017
45218W        W46083  20.056  20.730   9.074
45219W        W46084  18.308  18.584   8.094
45220W        W46085  20.972  19.790  10.021
45221W        W46086  20.849  19.176   7.593
45222W        W46087  21.366  20.848   9.241
45223W        W46088  20.027  21.332   9.072
45224W        W46089  19.439  21.436   7.983
45225W        W46090  20.721  18.339   7.413
45226W        W46091  18.521  21.599   9.154
45227W        W46092  20.718  19.357  10.789
45228W        W46093  18.701  18.887  10.788
45229W        W46094  18.432  19.487   8.121
45230W        W46095  19.123  19.476   7.846
45231W        W46096  20.886  19.803  10.663
45232W        W46097  19.229  20.084   9.372
45233W        W46098  20.703  18.370   8.492
45234W        W46099  19.834  21.801   8.995
45235W        W46100  21.048  21.263   9.932
45236W        W46101  20.632  21.412   9.043
45237W        W46102  20.651  20.392   8.637
45238W        W46103  20.113  18.617   7.708
45239W        W46104  21.794  18.245   8.430
45240W        W46105  19.482  19.880   7.593
45241W        W46106  21.648  19.217   8.583
45242W        W46107  20.340  20.387   7.460
45243W        W46108  21.276  20.587  10.208
45244W        W46109  20.930  21.288   7.675
45245W        W46110  19.545  18.963  10.581
45246W        W46111  19.365  19.547   9.822
45247W        W46112  21.457  21.042  10.099
45248W        W46113  20.557  18.992  10.476
45249W        W46114  18.401  19.463  10.253
45250W        W46115  20.161  19.940   9.979
45251W        W46116  18.518  20.698   8.636
45252W        W46117  18.665  19.995   9.526
45253W        W46118  20.982  20.281   9.876
45254W        W46119  20.754  21.661  10.687
45255W        W46120  20.650  19.400  10.240
45256W        W46121  20.927  21.454   8.645
45257W        W46122  19.929  21.174   9.968
45258W        W46123  19.414  21.529   9.237
45259W        W46124  21.219  20.700   9.656
45260W        W46125  20.269  20.772  10.793
45261W        W46126  18.874  20.725   9.132
45262W        W46127  21.220  20.484   8.777
45263W        W46128  20.861  21.550   9.528
45264W        W46129  18.839  21.279   9.398
45265W        W46130  19.860  19.331  10.608
45266W        W46131  20.311  21.497   8.119
45267W        W46132  19.619  20.752  10.757
45268W        W46133  19.745  20.990   8.134
45269W        W46134  18.966  19.730   7.393
45270W        W46135  18.305  21.816  14.292
45271W        W46136  18.681  20.709  13.815
45272W        W46137  21.386  20.439  11.585
45273W        W46138  21.516  21.524  13.612
45274W        W46139  19.434  21.515  11.138
45275W        W46140  19.517  19.667  12.121
45276W        W46141  19.032  19.515  12.285
45277W        W46142  20.023  20.330  11.719
45278W        W46143  19.698  21.422  14.074
45279W        W46144  18.347  18.983  14.037
45280W        W46145  19.109  18.263  13.839
45281W        W46146  20.803  18.651  12.726
45282W        W46147  20.452  19.522  11.296
45283W        W46148  21.022  18.956  14.387
45284W        W46149  18.388  18.748  13.512
45285W        W46150  18.487  21.367  14.533
45286W        W46151  20.009  20.757  11.265
45287W        W46152  18.441  19.540  12.958
45288W        W46153  19.334  19.431  14.195
45289W        W46154  21.793  19.290  12.694
45290W        W46155  21.557  20.333  13.553
45291W        W46156  19.865  19.666  12.580
45292W        W46157  20.411  21.005  12.949
45293W        W46158  18.911  20.439  13.181
45294W        W46159  18.270  19.967  12.752
45295W        W46160  19.306  19.939  13.944
45296W        W46161  21.577  19.722  14.198
45297W        W46162  19.193  21.166  12.643
45298W        W46163  20.314  20.855  13.777
45299W        W46164  19.534  19.495  13.002
45300W        W46165  19.826  20.279  12.645
45301W        W46166  20.823  21.052  14.493
45302W        W46167  19.902  20.372  14.503
45303W        W46168  19.883  20.088  13.981
45304W        W46169  18.292  19.479  14.503
45305W        W46170  21.124  21.014  14.102
45306W        W46171  18.705  18.596  12.100
45307W        W46172  19.232  20.854  13.099
45308W        W46173  21.695  20.637  12.389
45309W        W46174  21.108  19.037  12.956
45310W        W46175  21.393  18.990  11.051
45311W        W46176  21.858  19.791  13.357
45312W        W46177  19.825  21.498  13.110
45313W        W46178  21.599  20.964  11.548
45314W        W46179  18.728  21.750  11.302
45315W        W46180  19.121  21.796  11.978
45316W        W46181  18.918  18.550  13.404
45317W        W46182  21.541  19.568  13.679
45318W        W46183  20.946  19.990  12.138
45319W        W46184  20.912  19.678  11.165
45320W        W46185  20.120  20.822  13.305
45321W        W46186  19.926  19.152  12.504
45322W        W46187  20.526  21.239  13.498
45323W        W46188  21.397  20.030  11.920
45324W        W46189  20.299  18.688  11.936
45325W        W46190  18.956  21.382  11.619
45326W        W46191  18.327  18.881  12.218
45327W        W46192  21.113  19.488  12.692
45328W        W46193  18.571  21.105  12.607
45329W        W46194  19.912  21.455  11.477
45330W        W46195  21.304  19.481  10.941
45331W        W46196  18.327  21.239  13.105
45332W        W46197  19.118  20.811  13.585
45333W        W46198  19.491  20.171  12.204
45334W        W46199  19.513  18.576  13.297
45335W        W46200  21.742  18.338  12.594
45336W        W46201  18.961  20.210  11.062
45337W        W46202  18.616  19.243  11.241
45338W        W46203  18.678  21.199  12.035
45339W        W46204  19.809  20.682  12.283
45340W        W46205  21.141  21.541  13.997
45341W        W46206  20.067  19.183  11.681
45342W        W46207  21.450  21.581  12.453
45343W        W46208  21.127  19.434  14.051
45344W        W46209  21.840  21.090  12.185
45345W        W46210  20.467  20.382  13.669
45346W        W46211  18.233  19.933  11.875
45347W        W46212  19.344  20.348  13.448
45348W        W46213  20.548  19.612  11.826
45349W        W46214  20.425  20.102  11.930
45350W        W46215  18.768  19.522  13.404
45351W        W46216  18.753  19.398  14.326
45352W        W46217  18.643  18.315  12.485
45353W        W46218  20.411  18.662  13.046
45354W        W46219  20.059  18.847  14.209
45355W        W46220  20.414  18.996  11.387
45356W        W46221  21.597  21.389  14.141
45357W        W46222  20.564  18.470  14.180
45358W        W46223  21.583  20.771  14.302
45359W        W46224  21.013  18.938  13.898
45360W        W46225  20.813  18.876  12.168
45361W        W46226  21.206  20.010  14.572
45362W        W46227  18.946  21.586  12.558
45363W        W46228  19.604  19.303  11.544
45364W        W46229  19.173  18.587  14.208
45365W        W46230  21.225  19.071  11.889
45366W        W46231  21.592  19.553  11.834
45367W        W46232  19.335  21.770  14.305
45368W        W46233  19.261  18.306  11.540
45369W        W46234  21.582  18.840  12.575
45370W        W46235  21.732  21.089  11.020
45371W        W46236  18.639  20.292  12.722
45372W        W46237  20.556  18.879  10.952
45373W        W46238  21.690  21.211  12.672
45374W        W46239  21.729  18.405  13.422
45375W        W46240  20.174  19.617  13.976
45376W        W46241  20.267  20.956  11.679
45377W        W46242  20.667  20.250  14.419
45378W        W46243  20.341  18.227  12.728
45379W        W46244  18.953  19.130  12.791
45380W        W46245  18.507  20.330  13.565
45381W        W46246  20.366  21.523  12.271
45382W        W46247  21.560  19.120  13.143
45383W        W46248  20.197  21.467  13.910
45384W        W46249  21.540  20.526  11.115
45385W        W46250  19.975  20.009  12.176
45386W        W46251  21.827  18.520  13.917
45387W        W46252  19.976  20.355  13.511
45388W        W46253  20.193  19.241  12.956
45389W        W46254  21.045  19.539  11.794
45390W        W46255  21.332  19.272  11.436
45391W        W46256  21.141  21.312  11.825
45392W        W46257  20.975  20.915  12.621
45393W        W46258  20.871  19.994  11.599
45394W        W46259  20.304  20.204  12.585
45395W        W46260  21.185  19.992  12.652
45396W        W46261  18.560  19.007  13.076
45397W        W46262  21.338  20.059  13.903
45398W        W46263  21.689  21.677  13.049
45399W        W46264  19.619  21.121  12.451
45400W        W46265  20.626  21.654  13.775
45401W        W46266  20.620  18.984  13.539
45402W        W46267  19.827  21.692  13.600
45403W        W46268  21.524  18.646  12.066
45404W        W46269  21.315  19.965  13.367
45405W        W46270  18.298  19.286  13.405
45406W        W46271  21.158  19.081  12.423
45407W        W46272  21.569  19.232  14.200
45408W        W46273  20.454  20.931  12.418
45409W        W46274  19.710  21.522  12.031
45410W        W46275  18.825  18.702  11.289
45411W        W46276  19.929  18.356  13.099
45412W        W46277  18.957  21.476  10.947
45413W        W46278  19.331  19.942  11.698
45414W        W46279  19.985  20.571  14.011
45415W        W46280  19.815  18.929  12.001
45416W        W46281  21.171  18.526  12.429
45417W        W46282  20.891  21.808  12.757
45418W        W46283  20.303  21.456  13.097
45419W        W46284  19.699  20.493  13.058
45420W        W46285  21.469  21.216  13.184
45421W        W46286  19.163  18.719  11.953
45422W        W46287  19.685  21.016  12.913
45423W        W46288  19.168  18.947  10.978
45424W        W46289  19.969  19.556  13.372
45425W        W46290  20.817  18.422  13.242
45426W        W46291  18.237  20.265  13.127
45427W        W46292  19.941  20.083  11.285
45428W        W46293  19.209  18.398  11.055
45429W        W46294  19.947  19.479  12.106
45430W        W46295  20.917  18.455  13.805
45431W        W46296  19.505  20.467  13.914
45432W        W46297  20.309  20.249  14.131
45433W        W46298  20.926  20.279  14.024
45434W        W46299  20.210  18.419  14.529
45435W        W46300  19.432  19.035  12.922
45436W        W46301  18.858  18.991  12.320
45437W        W46302  18.644  21.703  11.996
45438W        W46303  19.976  21.033  14.121
45439W        W46304  19.011  20.518  11.480
45440W        W46305  20.691  19.903  12.701
45441W        W46306  20.971  19.702  13.100
45442W        W46307  20.176  20.376  13.034
45443W        W46308  20.646  20.750  11.166
45444W        W46309  20.318  18.771  12.494
45445W        W46310  21.797  19.049  11.762
45446W        W46311  18.291  21.638  13.793
45447W        W46312  18.708  20.864  13.325
45448W        W46313  18.275  21.710  11.557
45449W        W46314  20.174  18.980  13.363
45450W        W46315  19.537  21.003  11.212
45451W        W46316  21.442  21.385  11.398
45452W        W46317  20.417  20.038  11.412
45453W        W46318  19.260  19.229  11.929
45454W        W46319  20.092  19.139  10.981
45455W        W46320  20.676  20.704  14.159
45456W        W46321  21.029  18.610  11.776
45457W        W46322  18.359  18.458  11.224
45458W        W46323  19.645  20.777  13.514
45459W        W46324  19.444  20.693  12.606
45460W        W46325  19.186  20.645  11.004
45461W        W46326  18.427  20.886  11.772
45462W        W46327  18.931  19.956  14.214
45463W        W46328  19.635  18.516  14.400
45464W        W46329  20.344  18.658  13.756
45465W        W46330  19.539  18.426  12.037
45466W        W46331  20.598  18.503  11.542
45467W        W46332  18.543  18.435  13.119
45468W        W46333  18.591  19.398  12.489
45469W        W46334  21.280  18.506  12.895
45470W        W46335  18.702  19.004  11.709
45471W        W46336  21.273  18.692  13.325
45472W        W46337  21.669  19.895  11.010
45473W        W46338  18.961  18.653  12.829
45474W        W46339  20.075  19.225  13.769
45475W        W46340  18.223  18.915  11.247
45476W        W46341  19.009  20.304  13.808
45477W        W46342  20.367  19.702  12.987
45478W        W46343  20.234  21.781  11.283
45479W        W46344  18.380  20.288  10.980
45480W        W46345  19.115  20.699  14.106
45481W        W46346  18.636  19.866  13.737
45482W        W46347  19.627  19.971  13.531
45483W        W46348  21.395  18.330  13.793
45484W        W46349  21.793  19.940  13.784
45485W        W46350  21.781  20.140  11.470
45486W        W46351  20.644  20.472  11.569
45487W        W46352  21.118  21.772  11.264
45488W        W46353  20.295  19.762  14.406
45489W        W46354  18.625  20.729  14.446
45490W        W46355  21.831  18.651  14.398
45491W        W46356  21.549  19.579  13.019
45492W        W46357  19.857  21.709  14.496
45493W        W46358  19.712  18.338  11.223
45494W        W46359  21.251  20.937  11.166
45495W        W46360  19.020  19.030  14.052
45496W        W46361  19.454  21.024  13.914
45497W        W46362  21.580  19.015  13.712
45498W        W46363  20.791  21.674  11.680
45499W        W46364  21.030  20.293  13.047
45500W        W46365  19.280  18.709  13.714
45501W        W46366  19.749  19.778  14.471
45502W        W46367  19.252  20.957  11.665
45503W        W46368  21.007  20.455  11.929
45504W        W46369  18.775  19.081  13.653
45505W        W46370  20.104  21.143  12.117
45506W        W46371  21.854  19.703  12.298
45507W        W46372  20.076  18.336  14.017
45508W        W46373  20.856  21.041  13.096
45509W        W46374  21.159  21.385  12.804
45510W        W46375  20.378  21.187  11.232
45511W        W46376  18.388  21.079  14.074
45512W        W46377  19.131  19.071  13.312
45513W        W46378  19.101  18.419  12.422
45514W        W46379  20.722  19.261  13.114
45515W        W46380  19.520  20.432  11.314
45516W        W46381  21.518  20.374  12.813
45517W        W46382  18.845  21.132  14.236
45518W        W46383  21.232  21.814  12.033
45519W        W46384  19.331  18.834  12.478
45520W        W46385  19.100  20.327  12.568
45521W        W46386  19.413  21.738  13.318
45522W        W46387  21.480  21.834  14.350
45523W        W46388  20.639  20.022  13.283
45524W        W46389  18.488  19.820  11.198
45525W        W46390  21.622  21.478  11.895
45526W        W46391  21.459  18.802  11.514
45527W        W46392  19.598  18.321  13.917
45528W        W46393  21.304  21.123  12.375
45529W        W46394  21.333  19.679  12.280
45530W        W46395  19.450  19.352  12.496
45531W        W46396  19.695  19.614  13.820
45532W        W46397  20.806  20.767  13.683
45533W        W46398  19.456  19.221  13.795
45534W        W46399  19.435  21.687  12.411
45535W        W46400  18.752  21.646  14.045
45536W        W46401  18.864  21.007  11.175
45537W        W46402  21.381  20.765  11.985
45538W        W46403  18.985  19.557  13.871
45539W        W46404  21.758  19.487  11.352
45540W        W46405  19.503  20.544  11.823
45541W        W46406  20.602  19.926  13.904
45542W        W46407  20.493  19.554  13.448
45543W        W46408  19.053  19.926  13.477
45544W        W46409  21.263  21.814  13.306
45545W        W46410  21.054  18.448  14.300
45546W        W46411  18.718  18.598  13.887
45547W        W46412  19.057  19.621  12.940
45548W        W46413  19.426  19.435  11.062
45549W        W46414  18.229  21.194  13.607
45550W        W46415  19.814  19.903  13.050
45551W        W46416  19.637  18.928  11.155
45552W        W46417  18.772  19.744  11.936
45553W        W46418  18.543  21.596  13.373
45554W        W46419  21.338  19.822  11.481
45555W        W46420  21.433  18.738  14.167
45556W        W46421  20.869  20.947  12.130
45557W        W46422  18.467  19.871  14.307
45558W        W46423  21.433  18.335  11.603
45559W        W46424  20.953  20.810  11.614
45560W        W46425  19.855  19.868  11.699
45561W        W46426  21.042  18.672  11.222
45562W        W46427  21.107  19.279  13.408
45563W        W46428  18.816  19.872  12.615
45564W        W46429  19.110  20.811  12.264
45565W        W46430  20.873  19.431  12.229
45566W        W46431  19.896  18.810  12.925
45567W        W46432  21.858  20.721  13.436
45568W        W46433  21.776  18.708  12.997
45569W        W46434  18.315  21.538  12.373
45570W        W46435  18.824  20.725  11.909
45571W        W46436  18.739  18.342  14.462
45572W        W46437  19.858  21.195  14.564
45573W        W46438  21.613  20.163  12.354
45574W        W46439  20.967  20.340  11.234
45575W        W46440  20.262  21.861  13.446
45576W        W46441  21.119  20.583  14.483
45577W        W46442  19.934  18.293  11.763
45578W        W46443  20.647  19.162  12.622
45579W        W46444  18.333  20.749  12.954
45580W        W46445  19.586  18.711  11.595
45581W        W46446  19.390  20.195  14.444
45582W        W46447  20.384  19.176  12.158
45583W        W46448  20.589  20.586  13.280
45584W        W46449  18.743  21.191  13.715
45585W        W46450  19.334  21.174  14.438
45586W        W46451  19.185  18.971  11.452
45587W        W46452  20.702  19.113  11.777
45588W        W46453  20.660  21.221  14.014
45589W        W46454  19.345  19.813  12.613
45590W        W46455  19.000  21.511  13.478
45591W        W46456  21.745  21.628  11.079
45592W        W46457  18.608  20.300  14.075
45593W        W46458  20.603  20.562  12.763
45594W        W46459  19.039  20.211  12.005
45595W        W46460  19.410  21.218  13.400
45596W        W46461  19.788  18.637  12.441
45597W        W46462  18.399  20.621  11.371
45598W        W46463  19.918  19.572  11.241
45599W        W46464  18.564  20.121  12.260
45600W        W46465  19.854  18.763  13.724
45601W        W46466  21.526  18.472  11.151
45602W        W46467  21.619  20.218  14.250
45603W        W46468  20.273  21.475  14.402
45604W        W46469  21.831  20.569  13.924
45605W        W46470  21.239  21.367  14.535
45606W        W46471  18.978  21.823  13.013
45607W        W46472  21.837  20.445  11.887
45608W        W46473  20.367  19.712  12.400
45609W        W46474  20.134  18.324  12.290
45610W        W46475  19.193  21.308  12.127
45611W        W46476  19.692  19.049  13.352
45612W        W46477  19.392  18.418  12.821
45613W        W46478  18.455  21.240  11.369
45614W        W46479  20.271  20.604  12.087
45615W        W46480  19.146  21.399  13.966
45616W        W46481  18.623  20.222  11.662
45617W        W46482  18.508  18.765  12.661
45618W        W46483  20.056  20.730  12.718
45619W        W46484  18.308  18.584  11.738
45620W        W46485  20.972  19.790  13.665
45621W        W46486  20.849  19.176  11.237
45622W        W46487  21.366  20.848  12.885
45623W        W46488  20.027  21.332  12.716
45624W        W46489  19.439  21.436  11.627
45625W        W46490  20.721  18.339  11.057
45626W        W46491  18.521  21.599  12.798
45627W        W46492  20.718  19.357  14.433
45628W        W46493  18.701  18.887  14.432
45629W        W46494  18.432  19.487  11.765
45630W        W46495  19.123  19.476  11.490
45631W        W46496  20.886  19.803  14.307
45632W        W46497  19.229  20.084  13.016
45633W        W46498  20.703  18.370  12.136
45634W        W46499  19.834  21.801  12.639
45635W        W46500  21.048  21.263  13.576
45636W        W46501  20.632  21.412  12.687
45637W        W46502  20.651  20.392  12.281
45638W        W46503  20.113  18.617  11.352
45639W        W46504  21.794  18.245  12.074
45640W        W46505  19.482  19.880  11.237
45641W        W46506  21.648  19.217  12.227
45642W        W46507  20.340  20.387  11.104
45643W        W46508  21.276  20.587  13.852
45644W        W46509  20.930  21.288  11.319
45645W        W46510  19.545  18.963  14.225
45646W        W46511  19.365  19.547  13.466
45647W        W46512  21.457  21.042  13.743
45648W        W46513  20.557  18.992  14.120
45649W        W46514  18.401  19.463  13.897
45650W        W46515  20.161  19.940  13.623
45651W        W46516  18.518  20.698  12.280
45652W        W46517  18.665  19.995  13.170
45653W        W46518  20.982  20.281  13.520
45654W        W46519  20.754  21.661  14.331
45655W        W46520  20.650  19.400  13.884
45656W        W46521  20.927  21.454  12.289
45657W        W46522  19.929  21.174  13.612
45658W        W46523  19.414  21.529  12.881
45659W        W46524  21.219  20.700  13.300
45660W        W46525  20.269  20.772  14.437
45661W        W46526  18.874  20.725  12.776
45662W        W46527  21.220  20.484  12.421
45663W        W46528  20.861  21.550  13.172
45664W        W46529  18.839  21.279  13.042
45665W        W46530  19.860  19.331  14.252
45666W        W46531  20.311  21.497  11.763
45667W        W46532  19.619  20.752  14.401
45668W        W46533  19.745  20.990  11.778
45669W        W46534  18.966  19.730  11.037
45670W        W46535  18.305  21.816  17.936
45671W        W46536  18.681  20.709  17.459
45672W        W46537  21.386  20.439  15.229
45673W        W46538  21.516  21.524  17.256
45674W        W46539  19.434  21.515  14.782
45675W        W46540  19.517  19.667  15.765
45676W        W46541  19.032  19.515  15.929
45677W        W46542  20.023  20.330  15.363
45678W        W46543  19.698  21.422  17.718
45679W        W46544  18.347  18.983  17.681
45680W        W46545  19.109  18.263  17.483
45681W        W46546  20.803  18.651  16.370
45682W        W46547  20.452  19.522  14.940
45683W        W46548  21.022  18.956  18.031
45684W        W46549  18.388  18.748  17.156
45685W        W46550  18.487  21.367  18.177
45686W        W46551  20.009  20.757  14.909
45687W        W46552  18.441  19.540  16.602
45688W        W46553  19.334  19.431  17.839
45689W        W46554  21.793  19.290  16.338
45690W        W46555  21.557  20.333  17.197
45691W        W46556  19.865  19.666  16.224
45692W        W46557  20.411  21.005  16.593
45693W        W46558  18.911  20.439  16.825
45694W        W46559  18.270  19.967  16.396
45695W        W46560  19.306  19.939  17.588
45696W        W46561  21.577  19.722  17.842
45697W        W46562  19.193  21.166  16.287
45698W        W46563  20.314  20.855  17.421
45699W        W46564  19.534  19.495  16.646
45700W        W46565  19.826  20.279  16.289
45701W        W46566  20.823  21.052  18.137
45702W        W46567  19.902  20.372  18.147
45703W        W46568  19.883  20.088  17.625
45704W        W46569  18.292  19.479  18.147
45705W        W46570  21.124  21.014  17.746
45706W        W46571  18.705  18.596  15.744
45707W        W46572  19.232  20.854  16.743
45708W        W46573  21.695  20.637  16.033
45709W        W46574  21.108  19.037  16.600
45710W        W46575  21.393  18.990  14.695
45711W        W46576  21.858  19.791  17.001
45712W        W46577  19.825  21.498  16.754
45713W        W46578  21.599  20.964  15.192
45714W        W46579  18.728  21.750  14.946
45715W        W46580  19.121  21.796  15.622
45716W        W46581  18.918  18.550  17.048
45717W        W46582  21.541  19.568  17.323
45718W        W46583  20.946  19.990  15.782
45719W        W46584  20.912  19.678  14.809
45720W        W46585  20.120  20.822  16.949
45721W        W46586  19.926  19.152  16.148
45722W        W46587  20.526  21.239  17.142
45723W        W46588  21.397  20.030  15.564
45724W        W46589  20.299  18.688  15.580
45725W        W46590  18.956  21.382  15.263
45726W        W46591  18.327  18.881  15.862
45727W        W46592  21.113  19.488  16.336
45728W        W46593  18.571  21.105  16.251
45729W        W46594  19.912  21.455  15.121
45730W        W46595  21.304  19.481  14.585
45731W        W46596  18.327  21.239  16.749
45732W        W46597  19.118  20.811  17.229
45733W        W46598  19.491  20.171  15.848
45734W        W46599  19.513  18.576  16.941
45735W        W46600  21.742  18.338  16.238
45736W        W46601  18.961  20.210  14.706
45737W        W46602  18.616  19.243  14.885
45738W        W46603  18.678  21.199  15.679
45739W        W46604  19.809  20.682  15.927
45740W        W46605  21.141  21.541  17.641
45741W        W46606  20.067  19.183  15.325
45742W        W46607  21.450  21.581  16.097
45743W        W46608  21.127  19.434  17.695
45744W        W46609  21.840  21.090  15.829
45745W        W46610  20.467  20.382  17.313
45746W        W46611  18.233  19.933  15.519
45747W        W46612  19.344  20.348  17.092
45748W        W46613  20.548  19.612  15.470
45749W        W46614  20.425  20.102  15.574
45750W        W46615  18.768  19.522  17.048
45751W        W46616  18.753  19.398  17.970
45752W        W46617  18.643  18.315  16.129
45753W        W46618  20.411  18.662  16.690
45754W        W46619  20.059  18.847  17.853
45755W        W46620  20.414  18.996  15.031
45756W        W46621  21.597  21.389  17.785
45757W        W46622  20.564  18.470  17.824
45758W        W46623  21.583  20.771  17.946
45759W        W46624  21.013  18.938  17.542
45760W        W46625  20.813  18.876  15.812
45761W        W46626  21.206  20.010  18.216
45762W        W46627  18.946  21.586  16.202
45763W        W46628  19.604  19.303  15.188
45764W        W46629  19.173  18.587  17.852
45765W        W46630  21.225  19.071  15.533
45766W        W46631  21.592  19.553  15.478
45767W        W46632  19.335  21.770  17.949
45768W        W46633  19.261  18.306  15.184
45769W        W46634  21.582  18.840  16.219
45770W        W46635  21.732  21.089  14.664
45771W        W46636  18.639  20.292  16.366
45772W        W46637  20.556  18.879  14.596
45773W        W46638  21.690  21.211  16.316
45774W        W46639  21.729  18.405  17.066
45775W        W46640  20.174  19.617  17.620
45776W        W46641  20.267  20.956  15.323
45777W        W46642  20.667  20.250  18.063
45778W        W46643  20.341  18.227  16.372
45779W        W46644  18.953  19.130  16.435
45780W        W46645  18.507  20.330  17.209
45781W        W46646  20.366  21.523  15.915
45782W        W46647  21.560  19.120  16.787
45783W        W46648  20.197  21.467  17.554
45784W        W46649  21.540  20.526  14.759
45785W        W46650  19.975  20.009  15.820
45786W        W46651  21.827  18.520  17.561
45787W        W46652  19.976  20.355  17.155
45788W        W46653  20.193  19.241  16.600
45789W        W46654  21.045  19.539  15.438
45790W        W46655  21.332  19.272  15.080
45791W        W46656  21.141  21.312  15.469
45792W        W46657  20.975  20.915  16.265
45793W        W46658  20.871  19.994  15.243
45794W        W46659  20.304  20.204  16.229
45795W        W46660  21.185  19.992  16.296
45796W        W46661  18.560  19.007  16.720
45797W        W46662  21.338  20.059  17.547
45798W        W46663  21.689  21.677  16.693
45799W        W46664  19.619  21.121  16.095
45800W        W46665  20.626  21.654  17.419
45801W        W46666  20.620  18.984  17.183
45802W        W46667  19.827  21.692  17.244
45803W        W46668  21.524  18.646  15.710
45804W        W46669  21.315  19.965  17.011
45805W        W46670  18.298  19.286  17.049
45806W        W46671  21.158  19.081  16.067
45807W        W46672  21.569  19.232  17.844
45808W        W46673  20.454  20.931  16.062
45809W        W46674  19.710  21.522  15.675
45810W        W46675  18.825  18.702  14.933
45811W        W46676  19.929  18.356  16.743
45812W        W46677  18.957  21.476  14.591
45813W        W46678  19.331  19.942  15.342
45814W        W46679  19.985  20.571  17.655
45815W        W46680  19.815  18.929  15.645
45816W        W46681  21.171  18.526  16.073
45817W        W46682  20.891  21.808  16.401
45818W        W46683  20.303  21.456  16.741
45819W        W46684  19.699  20.493  16.702
45820W        W46685  21.469  21.216  16.828
45821W        W46686  19.163  18.719  15.597
45822W        W46687  19.685  21.016  16.557
45823W        W46688  19.168  18.947  14.622
45824W        W46689  19.969  19.556  17.016
45825W        W46690  20.817  18.422  16.886
45826W        W46691  18.237  20.265  16.771
45827W        W46692  19.941  20.083  14.929
45828W        W46693  19.209  18.398  14.699
45829W        W46694  19.947  19.479  15.750
45830W        W46695  20.917  18.455  17.449
45831W        W46696  19.505  20.467  17.558
45832W        W46697  20.309  20.249  17.775
45833W        W46698  20.926  20.279  17.668
45834W        W46699  20.210  18.419  18.173
45835W        W46700  19.432  19.035  16.566
45836W        W46701  18.858  18.991  15.964
45837W        W46702  18.644  21.703  15.640
45838W        W46703  19.976  21.033  17.765
45839W        W46704  19.011  20.518  15.124
45840W        W46705  20.691  19.903  16.345
45841W        W46706  20.971  19.702  16.744
45842W        W46707  20.176  20.376  16.678
45843W        W46708  20.646  20.750  14.810
45844W        W46709  20.318  18.771  16.138
45845W        W46710  21.797  19.049  15.406
45846W        W46711  18.291  21.638  17.437
45847W        W46712  18.708  20.864  16.969
45848W        W46713  18.275  21.710  15.201
45849W        W46714  20.174  18.980  17.007
45850W        W46715  19.537  21.003  14.856
45851W        W46716  21.442  21.385  15.042
45852W        W46717  20.417  20.038  15.056
45853W        W46718  19.260  19.229  15.573
45854W        W46719  20.092  19.139  14.625
45855W        W46720  20.676  20.704  17.803
45856W        W46721  21.029  18.610  15.420
45857W        W46722  18.359  18.458  14.868
45858W        W46723  19.645  20.777  17.158
45859W        W46724  19.444  20.693  16.250
45860W        W46725  19.186  20.645  14.648
45861W        W46726  18.427  20.886  15.416
45862W        W46727  18.931  19.956  17.858
45863W        W46728  19.635  18.516  18.044
45864W        W46729  20.344  18.658  17.400
45865W        W46730  19.539  18.426  15.681
45866W        W46731  20.598  18.503  15.186
45867W        W46732  18.543  18.435  16.763
45868W        W46733  18.591  19.398  16.133
45869W        W46734  21.280  18.506  16.539
45870W        W46735  18.702  19.004  15.353
45871W        W46736  21.273  18.692  16.969
45872W        W46737  21.669  19.895  14.654
45873W        W46738  18.961  18.653  16.473
45874W        W46739  20.075  19.225  17.413
45875W        W46740  18.223  18.915  14.891
45876W        W46741  19.009  20.304  17.452
45877W        W46742  20.367  19.702  16.631
45878W        W46743  20.234  21.781  14.927
45879W        W46744  18.380  20.288  14.624
45880W        W46745  19.115  20.699  17.750
45881W        W46746  18.636  19.866  17.381
45882W        W46747  19.627  19.971  17.175
45883W        W46748  21.395  18.330  17.437
45884W        W46749  21.793  19.940  17.428
45885W        W46750  21.781  20.140  15.114
45886W        W46751  20.644  20.472  15.213
45887W        W46752  21.118  21.772  14.908
45888W        W46753  20.295  19.762  18.050
45889W        W46754  18.625  20.729  18.090
45890W        W46755  21.831  18.651  18.042
45891W        W46756  21.549  19.579  16.663
45892W        W46757  19.857  21.709  18.140
45893W        W46758  19.712  18.338  14.867
45894W        W46759  21.251  20.937  14.810
45895W        W46760  19.020  19.030  17.696
45896W        W46761  19.454  21.024  17.558
45897W        W46762  21.580  19.015  17.356
45898W        W46763  20.791  21.674  15.324
45899W        W46764  21.030  20.293  16.691
45900W        W46765  19.280  18.709  17.358
45901W        W46766  19.749  19.778  18.115
45902W        W46767  19.252  20.957  15.309
45903W        W46768  21.007  20.455  15.573
45904W        W46769  18.775  19.081  17.297
45905W        W46770  20.104  21.143  15.761
45906W        W46771  21.854  19.703  15.942
45907W        W46772  20.076  18.336  17.661
45908W        W46773  20.856  21.041  16.740
45909W        W46774  21.159  21.385  16.448
45910W        W46775  20.378  21.187  14.876
45911W        W46776  18.388  21.079  17.718
45912W        W46777  19.131  19.071  16.956
45913W        W46778  19.101  18.419  16.066
45914W        W46779  20.722  19.261  16.758
45915W        W46780  19.520  20.432  14.958
45916W        W46781  21.518  20.374  16.457
45917W        W46782  18.845  21.132  17.880
45918W        W46783  21.232  21.814  15.677
45919W        W46784  19.331  18.834  16.122
45920W        W46785  19.100  20.327  16.212
45921W        W46786  19.413  21.738  16.962
45922W        W46787  21.480  21.834  17.994
45923W        W46788  20.639  20.022  16.927
45924W        W46789  18.488  19.820  14.842
45925W        W46790  21.622  21.478  15.539
45926W        W46791  21.459  18.802  15.158
45927W        W46792  19.598  18.321  17.561
45928W        W46793  21.304  21.123  16.019
45929W        W46794  21.333  19.679  15.924
45930W        W46795  19.450  19.352  16.140
45931W        W46796  19.695  19.614  17.464
45932W        W46797  20.806  20.767  17.327
45933W        W46798  19.456  19.221  17.439
45934W        W46799  19.435  21.687  16.055
45935W        W46800  18.752  21.646  17.689
45936W        W46801  18.864  21.007  14.819
45937W        W46802  21.381  20.765  15.629
45938W        W46803  18.985  19.557  17.515
45939W        W46804  21.758  19.487  14.996
45940W        W46805  19.503  20.544  15.467
45941W        W46806  20.602  19.926  17.548
45942W        W46807  20.493  19.554  17.092
45943W        W46808  19.053  19.926  17.121
45944W        W46809  21.263  21.814  16.950
45945W        W46810  21.054  18.448  17.944
45946W        W46811  18.718  18.598  17.531
45947W        W46812  19.057  19.621  16.584
45948W        W46813  19.426  19.435  14.706
45949W        W46814  18.229  21.194  17.251
45950W        W46815  19.814  19.903  16.694
45951W        W46816  19.637  18.928  14.799
45952W        W46817  18.772  19.744  15.580
45953W        W46818  18.543  21.596  17.017
45954W        W46819  21.338  19.822  15.125
45955W        W46820  21.433  18.738  17.811
45956W        W46821  20.869  20.947  15.774
45957W        W46822  18.467  19.871  17.951
45958W        W46823  21.433  18.335  15.247
45959W        W46824  20.953  20.810  15.258
45960W        W46825  19.855  19.868  15.343
45961W        W46826  21.042  18.672  14.866
45962W        W46827  21.107  19.279  17.052
45963W        W46828  18.816  19.872  16.259
45964W        W46829  19.110  20.811  15.908
45965W        W46830  20.873  19.431  15.873
45966W        W46831  19.896  18.810  16.569
45967W        W46832  21.858  20.721  17.080
45968W        W46833  21.776  18.708  16.641
45969W        W46834  18.315  21.538  16.017
45970W        W46835  18.824  20.725  15.553
45971W        W46836  18.739  18.342  18.106
45972W        W46837  19.858  21.195  18.208
45973W        W46838  21.613  20.163  15.998
45974W        W46839  20.967  20.340  14.878
45975W        W46840  20.262  21.861  17.090
45976W        W46841  21.119  20.583  18.127
45977W        W46842  19.934  18.293  15.407
45978W        W46843  20.647  19.162  16.266
45979W        W46844  18.333  20.749  16.598
45980W        W46845  19.586  18.711  15.239
45981W        W46846  19.390  20.195  18.088
45982W        W46847  20.384  19.176  15.802
45983W        W46848  20.589  20.586  16.924
45984W        W46849  18.743  21.191  17.359
45985W        W46850  19.334  21.174  18.082
45986W        W46851  19.185  18.971  15.096
45987W        W46852  20.702  19.113  15.421
45988W        W46853  20.660  21.221  17.658
45989W        W46854  19.345  19.813  16.257
45990W        W46855  19.000  21.511  17.122
45991W        W46856  21.745  21.628  14.723
45992W        W46857  18.608  20.300  17.719
45993W        W46858  20.603  20.562  16.407
45994W        W46859  19.039  20.211  15.649
45995W        W46860  19.410  21.218  17.044
45996W        W46861  19.788  18.637  16.085
45997W        W46862  18.399  20.621  15.015
45998W        W46863  19.918  19.572  14.885
45999W        W46864  18.564  20.121  15.904
46000W        W46865  19.854  18.763  17.368
46001W        W46866  21.526  18.472  14.795
46002W        W46867  21.619  20.218  17.894
46003W        W46868  20.273  21.475  18.046
46004W        W46869  21.831  20.569  17.568
46005W        W46870  21.239  21.367  18.179
46006W        W46871  18.978  21.823  16.657
46007W        W46872  21.837  20.445  15.531
46008W        W46873  20.367  19.712  16.044
46009W        W46874  20.134  18.324  15.934
46010W        W46875  19.193  21.308  15.771
46011W        W46876  19.692  19.049  16.996
46012W        W46877  19.392  18.418  16.465
46013W        W46878  18.455  21.240  15.013
46014W        W46879  20.271  20.604  15.731
46015W        W46880  19.146  21.399  17.610
46016W        W46881  18.623  20.222  15.306
46017W        W46882  18.508  18.765  16.305
46018W        W46883  20.056  20.730  16.362
46019W        W46884  18.308  18.584  15.382
46020W        W46885  20.972  19.790  17.309
46021W        W46886  20.849  19.176  14.881
46022W        W46887  21.366  20.848  16.529
46023W        W46888  20.027  21.332  16.360
46024W        W46889  19.439  21.436  15.271
46025W        W46890  20.721  18.339  14.701
46026W        W46891  18.521  21.599  16.442
46027W        W46892  20.718  19.357  18.077
46028W        W46893  18.701  18.887  18.076
46029W        W46894  18.432  19.487  15.409
46030W        W46895  19.123  19.476  15.134
46031W        W46896  20.886  19.803  17.951
46032W        W46897  19.229  20.084  16.660
46033W        W46898  20.703  18.370  15.780
46034W        W46899  19.834  21.801  16.283
46035W        W46900  21.048  21.263  17.220
46036W        W46901  20.632  21.412  16.331
46037W        W46902  20.651  20.392  15.925
46038W        W46903  20.113  18.617  14.996
46039W        W46904  21.794  18.245  15.718
46040W        W46905  19.482  19.880  14.881
46041W        W46906  21.648  19.217  15.871
46042W        W46907  20.340  20.387  14.748
46043W        W46908  21.276  20.587  17.496
46044W        W46909  20.930  21.288  14.963
46045W        W46910  19.545  18.963  17.869
46046W        W46911  19.365  19.547  17.110
46047W        W46912  21.457  21.042  17.387
46048W        W46913  20.557  18.992  17.764
46049W        W46914  18.401  19.463  17.541
46050W        W46915  20.161  19.940  17.267
46051W        W46916  18.518  20.698  15.924
46052W        W46917  18.665  19.995  16.814
46053W        W46918  20.982  20.281  17.164
46054W        W46919  20.754  21.661  17.975
46055W        W46920  20.650  19.400  17.528
46056W        W46921  20.927  21.454  15.933
46057W        W46922  19.929  21.174  17.256
46058W        W46923  19.414  21.529  16.525
46059W        W46924  21.219  20.700  16.944
46060W        W46925  20.269  20.772  18.081
46061W        W46926  18.874  20.725  16.420
46062W        W46927  21.220  20.484  16.065
46063W        W46928  20.861  21.550  16.816
46064W        W46929  18.839  21.279  16.686
46065W        W46930  19.860  19.331  17.896
46066W        W46931  20.311  21.497  15.407
46067W        W46932  19.619  20.752  18.045
46068W        W46933  19.745  20.990  15.422
46069W        W46934  18.966  19.730  14.681
46070W        W46935  18.305  21.816  21.580
46071W        W46936  18.681  20.709  21.103
46072W        W46937  21.386  20.439  18.873
46073W        W46938  21.516  21.524  20.900
46074W        W46939  19.434  21.515  18.426
46075W        W46940  19.517  19.667  19.409
46076W        W46941  19.032  19.515  19.573
46077W        W46942  20.023  20.330  19.007
46078W        W46943  19.698  21.422  21.362
46079W        W46944  18.347  18.983  21.325
46080W        W46945  19.109  18.263  21.127
46081W        W46946  20.803  18.651  20.014
46082W        W46947  20.452  19.522  18.584
46083W        W46948  21.022  18.956  21.675
46084W        W46949  18.388  18.748  20.800
46085W        W46950  18.487  21.367  21.821
46086W        W46951  20.009  20.757  18.553
46087W        W46952  18.441  19.540  20.246
46088W        W46953  19.334  19.431  21.483
46089W        W46954  21.793  19.290  19.982
46090W        W46955  21.557  20.333  20.841
46091W        W46956  19.865  19.666  19.868
46092W        W46957  20.411  21.005  20.237
46093W        W46958  18.911  20.439  20.469
46094W        W46959  18.270  19.967  20.040
46095W        W46960  19.306  19.939  21.232
46096W        W46961  21.577  19.722  21.486
46097W        W46962  19.193  21.166  19.931
46098W        W46963  20.314  20.855  21.065
46099W        W46964  19.534  19.495  20.290
46100W        W46965  19.826  20.279  19.933
46101W        W46966  20.823  21.052  21.781
46102W        W46967  19.902  20.372  21.791
46103W        W46968  19.883  20.088  21.269
46104W        W46969  18.292  19.479  21.791
46105W        W46970  21.124  21.014  21.390
46106W        W46971  18.705  18.596  19.388
46107W        W46972  19.232  20.854  20.387
46108W        W46973  21.695  20.637  19.677
46109W        W46974  21.108  19.037  20.244
46110W        W46975  21.393  18.990  18.339
46111W        W46976  21.858  19.791  20.645
46112W        W46977  19.825  21.498  20.398
46113W        W46978  21.599  20.964  18.836
46114W        W46979  18.728  21.750  18.590
46115W        W46980  19.121  21.796  19.266
46116W        W46981  18.918  18.550  20.692
46117W        W46982  21.541  19.568  20.967
46118W        W46983  20.946  19.990  19.426
46119W        W46984  20.912  19.678  18.453
46120W        W46985  20.120  20.822  20.593
46121W        W46986  19.926  19.152  19.792
46122W        W46987  20.526  21.239  20.786
46123W        W46988  21.397  20.030  19.208
46124W        W46989  20.299  18.688  19.224
46125W        W46990  18.956  21.382  18.907
46126W        W46991  18.327  18.881  19.506
46127W        W46992  21.113  19.488  19.980
46128W        W46993  18.571  21.105  19.895
46129W        W46994  19.912  21.455  18.765
46130W        W46995  21.304  19.481  18.229
46131W        W46996  18.327  21.239  20.393
46132W        W46997  19.118  20.811  20.873
46133W        W46998  19.491  20.171  19.492
46134W        W46999  19.513  18.576  20.585
46135W        W47000  21.742  18.338  19.882
46136W        W47001  18.961  20.210  18.350
46137W        W47002  18.616  19.243  18.529
46138W        W47003  18.678  21.199  19.323
46139W        W47004  19.809  20.682  19.571
46140W        W47005  21.141  21.541  21.285
46141W        W47006  20.067  19.183  18.969
46142W        W47007  21.450  21.581  19.741
46143W        W47008  21.127  19.434  21.339
46144W        W47009  21.840  21.090  19.473
46145W        W47010  20.467  20.382  20.957
46146W        W47011  18.233  19.933  19.163
46147W        W47012  19.344  20.348  20.736
46148W        W47013  20.548  19.612  19.114
46149W        W47014  20.425  20.102  19.218
46150W        W47015  18.768  19.522  20.692
46151W        W47016  18.753  19.398  21.614
46152W        W47017  18.643  18.315  19.773
46153W        W47018  20.411  18.662  20.334
46154W        W47019  20.059  18.847  21.497
46155W        W47020  20.414  18.996  18.675
46156W        W47021  21.597  21.389  21.429
46157W        W47022  20.564  18.470  21.468
46158W        W47023  21.583  20.771  21.590
46159W        W47024  21.013  18.938  21.186
46160W        W47025  20.813  18.876  19.456
46161W        W47026  21.206  20.010  21.860
46162W        W47027  18.946  21.586  19.846
46163W        W47028  19.604  19.303  18.832
46164W        W47029  19.173  18.587  21.496
46165W        W47030  21.225  19.071  19.177
46166W        W47031  21.592  19.553  19.122
46167W        W47032  19.335  21.770  21.593
46168W        W47033  19.261  18.306  18.828
46169W        W47034  21.582  18.840  19.863
46170W        W47035  21.732  21.089  18.308
46171W        W47036  18.639  20.292  20.010
46172W        W47037  20.556  18.879  18.240
46173W        W47038  21.690  21.211  19.960
46174W        W47039  21.729  18.405  20.710
46175W        W47040  20.174  19.617  21.264
46176W        W47041  20.267  20.956  18.967
46177W        W47042  20.667  20.250  21.707
46178W        W47043  20.341  18.227  20.016
46179W        W47044  18.953  19.130  20.079
46180W        W47045  18.507  20.330  20.853
46181W        W47046  20.366  21.523  19.559
46182W        W47047  21.560  19.120  20.431
46183W        W47048  20.197  21.467  21.198
46184W        W47049  21.540  20.526  18.403
46185W        W47050  19.975  20.009  19.464
46186W        W47051  21.827  18.520  21.205
46187W        W47052  19.976  20.355  20.799
46188W        W47053  20.193  19.241  20.244
46189W        W47054  21.045  19.539  19.082
46190W        W47055  21.332  19.272  18.724
46191W        W47056  21.141  21.312  19.113
46192W        W47057  20.975  20.915  19.909
46193W        W47058  20.871  19.994  18.887
46194W        W47059  20.304  20.204  19.873
46195W        W47060  21.185  19.992  19.940
46196W        W47061  18.560  19.007  20.364
46197W        W47062  21.338  20.059  21.191
46198W        W47063  21.689  21.677  20.337
46199W        W47064  19.619  21.121  19.739
46200W        W47065  20.626  21.654  21.063
46201W        W47066  20.620  18.984  20.827
46202W        W47067  19.827  21.692  20.888
46203W        W47068  21.524  18.646  19.354
46204W        W47069  21.315  19.965  20.655
46205W        W47070  18.298  19.286  20.693
46206W        W47071  21.158  19.081  19.711
46207W        W47072  21.569  19.232  21.488
46208W        W47073  20.454  20.931  19.706
46209W        W47074  19.710  21.522  19.319
46210W        W47075  18.825  18.702  18.577
46211W        W47076  19.929  18.356  20.387
46212W        W47077  18.957  21.476  18.235
46213W        W47078  19.331  19.942  18.986
46214W        W47079  19.985  20.571  21.299
46215W        W47080  19.815  18.929  19.289
46216W        W47081  21.171  18.526  19.717
46217W        W47082  20.891  21.808  20.045
46218W        W47083  20.303  21.456  20.385
46219W        W47084  19.699  20.493  20.346
46220W        W47085  21.469  21.216  20.472
46221W        W47086  19.163  18.719  19.241
46222W        W47087  19.685  21.016  20.201
46223W        W47088  19.168  18.947  18.266
46224W        W47089  19.969  19.556  20.660
46225W        W47090  20.817  18.422  20.530
46226W        W47091  18.237  20.265  20.415
46227W        W47092  19.941  20.083  18.573
46228W        W47093  19.209  18.398  18.343
46229W        W47094  19.947  19.479  19.394
46230W        W47095  20.917  18.455  21.093
46231W        W47096  19.505  20.467  21.202
46232W        W47097  20.309  20.249  21.419
46233W        W47098  20.926  20.279  21.312
46234W        W47099  20.210  18.419  21.817
46235W        W47100  19.432  19.035  20.210
46236W        W47101  18.858  18.991  19.608
46237W        W47102  18.644  21.703  19.284
46238W        W47103  19.976  21.033  21.409
46239W        W47104  19.011  20.518  18.768
46240W        W47105  20.691  19.903  19.989
46241W        W47106  20.971  19.702  20.388
46242W        W47107  20.176  20.376  20.322
46243W        W47108  20.646  20.750  18.454
46244W        W47109  20.318  18.771  19.782
46245W        W47110  21.797  19.049  19.050
46246W        W47111  18.291  21.638  21.081
46247W        W47112  18.708  20.864  20.613
46248W        W47113  18.275  21.710  18.845
46249W        W47114  20.174  18.980  20.651
46250W        W47115  19.537  21.003  18.500
46251W        W47116  21.442  21.385  18.686
46252W        W47117  20.417  20.038  18.700
46253W        W47118  19.260  19.229  19.217
46254W        W47119  20.092  19.139  18.269
46255W        W47120  20.676  20.704  21.447
46256W        W47121  21.029  18.610  19.064
46257W        W47122  18.359  18.458  18.512
46258W        W47123  19.645  20.777  20.802
46259W        W47124  19.444  20.693  19.894
46260W        W47125  19.186  20.645  18.292
46261W        W47126  18.427  20.886  19.060
46262W        W47127  18.931  19.956  21.502
46263W        W47128  19.635  18.516  21.688
46264W        W47129  20.344  18.658  21.044
46265W        W47130  19.539  18.426  19.325
46266W        W47131  20.598  18.503  18.830
46267W        W47132  18.543  18.435  20.407
46268W        W47133  18.591  19.398  19.777
46269W        W47134  21.280  18.506  20.183
46270W        W47135  18.702  19.004  18.997
46271W        W47136  21.273  18.692  20.613
46272W        W47137  21.669  19.895  18.298
46273W        W47138  18.961  18.653  20.117
46274W        W47139  20.075  19.225  21.057
46275W        W47140  18.223  18.915  18.535
46276W        W47141  19.009  20.304  21.096
46277W        W47142  20.367  19.702  20.275
46278W        W47143  20.234  21.781  18.571
46279W        W47144  18.380  20.288  18.268
46280W        W47145  19.115  20.699  21.394
46281W        W47146  18.636  19.866  21.025
46282W        W47147  19.627  19.971  20.819
46283W        W47148  21.395  18.330  21.081
46284W        W47149  21.793  19.940  21.072
46285W        W47150  21.781  20.140  18.758
46286W        W47151  20.644  20.472  18.857
46287W        W47152  21.118  21.772  18.552
46288W        W47153  20.295  19.762  21.694
46289W        W47154  18.625  20.729  21.734
46290W        W47155  21.831  18.651  21.686
46291W        W47156  21.549  19.579  20.307
46292W        W47157  19.857  21.709  21.784
46293W        W47158  19.712  18.338  18.511
46294W        W47159  21.251  20.937  18.454
46295W        W47160  19.020  19.030  21.340
46296W        W47161  19.454  21.024  21.202
46297W        W47162  21.580  19.015  21.000
46298W        W47163  20.791  21.674  18.968
46299W        W47164  21.030  20.293  20.335
46300W        W47165  19.280  18.709  21.002
46301W        W47166  19.749  19.778  21.759
46302W        W47167  19.252  20.957  18.953
46303W        W47168  21.007  20.455  19.217
46304W        W47169  18.775  19.081  20.941
46305W        W47170  20.104  21.143  19.405
46306W        W47171  21.854  19.703  19.586
46307W        W47172  20.076  18.336  21.305
46308W        W47173  20.856  21.041  20.384
46309W        W47174  21.159  21.385  20.092
46310W        W47175  20.378  21.187  18.520
46311W        W47176  18.388  21.079  21.362
46312W        W47177  19.131  19.071  20.600
46313W        W47178  19.101  18.419  19.710
46314W        W47179  20.722  19.261  20.402
46315W        W47180  19.520  20.432  18.602
46316W        W47181  21.518  20.374  20.101
46317W        W47182  18.845  21.132  21.524
46318W        W47183  21.232  21.814  19.321
46319W        W47184  19.331  18.834  19.766
46320W        W47185  19.100  20.327  19.856
46321W        W47186  19.413  21.738  20.606
46322W        W47187  21.480  21.834  21.638
46323W        W47188  20.639  20.022  20.571
46324W        W47189  18.488  19.820  18.486
46325W        W47190  21.622  21.478  19.183
46326W        W47191  21.459  18.802  18.802
46327W        W47192  19.598  18.321  21.205
46328W        W47193  21.304  21.123  19.663
46329W        W47194  21.333  19.679  19.568
46330W        W47195  19.450  19.352  19.784
46331W        W47196  19.695  19.614  21.108
46332W        W47197  20.806  20.767  20.971
46333W        W47198  19.456  19.221  21.083
46334W        W47199  19.435  21.687  19.699
46335W        W47200  18.752  21.646  21.333
46336W        W47201  18.864  21.007  18.463
46337W        W47202  21.381  20.765  19.273
46338W        W47203  18.985  19.557  21.159
46339W        W47204  21.758  19.487  18.640
46340W        W47205  19.503  20.544  19.111
46341W        W47206  20.602  19.926  21.192
46342W        W47207  20.493  19.554  20.736
46343W        W47208  19.053  19.926  20.765
46344W        W47209  21.263  21.814  20.594
46345W        W47210  21.054  18.448  21.588
46346W        W47211  18.718  18.598  21.175
46347W        W47212  19.057  19.621  20.228
46348W        W47213  19.426  19.435  18.350
46349W        W47214  18.229  21.194  20.895
46350W        W47215  19.814  19.903  20.338
46351W        W47216  19.637  18.928  18.443
46352W        W47217  18.772  19.744  19.224
46353W        W47218  18.543  21.596  20.661
46354W        W47219  21.338  19.822  18.769
46355W        W47220  21.433  18.738  21.455
46356W        W47221  20.869  20.947  19.418
46357W        W47222  18.467  19.871  21.595
46358W        W47223  21.433  18.335  18.891
46359W        W47224  20.953  20.810  18.902
46360W        W47225  19.855  19.868  18.987
46361W        W47226  21.042  18.672  18.510
46362W        W47227  21.107  19.279  20.696
46363W        W47228  18.816  19.872  19.903
46364W        W47229  19.110  20.811  19.552
46365W        W47230  20.873  19.431  19.517
46366W        W47231  19.896  18.810  20.213
46367W        W47232  21.858  20.721  20.724
46368W        W47233  21.776  18.708  20.285
46369W        W47234  18.315  21.538  19.661
46370W        W47235  18.824  20.725  19.197
46371W        W47236  18.739  18.342  21.750
46372W        W47237  19.858  21.195  21.852
46373W        W47238  21.613  20.163  19.642
46374W        W47239  20.967  20.340  18.522
46375W        W47240  20.262  21.861  20.734
46376W        W47241  21.119  20.583  21.771
46377W        W47242  19.934  18.293  19.051
46378W        W47243  20.647  19.162  19.910
46379W        W47244  18.333  20.749  20.242
46380W        W47245  19.586  18.711  18.883
46381W        W47246  19.390  20.195  21.732
46382W        W47247  20.384  19.176  19.446
46383W        W47248  20.589  20.586  20.568
46384W        W47249  18.743  21.191  21.003
46385W        W47250  19.334  21.174  21.726
46386W        W47251  19.185  18.971  18.740
46387W        W47252  20.702  19.113  19.065
46388W        W47253  20.660  21.221  21.302
46389W        W47254  19.345  19.813  19.901
46390W        W47255  19.000  21.511  20.766
46391W        W47256  21.745  21.628  18.367
46392W        W47257  18.608  20.300  21.363
46393W        W47258  20.603  20.562  20.051
46394W        W47259  19.039  20.211  19.293
46395W        W47260  19.410  21.218  20.688
46396W        W47261  19.788  18.637  19.729
46397W        W47262  18.399  20.621  18.659
46398W        W47263  19.918  19.572  18.529
46399W        W47264  18.564  20.121  19.548
46400W        W47265  19.854  18.763  21.012
46401W        W47266  21.526  18.472  18.439
46402W        W47267  21.619  20.218  21.538
46403W        W47268  20.273  21.475  21.690
46404W        W47269  21.831  20.569  21.212
46405W        W47270  21.239  21.367  21.823
46406W        W47271  18.978  21.823  20.301
46407W        W47272  21.837  20.445  19.175
46408W        W47273  20.367  19.712  19.688
46409W        W47274  20.134  18.324  19.578
46410W        W47275  19.193  21.308  19.415
46411W        W47276  19.692  19.049  20.640
46412W        W47277  19.392  18.418  20.109
46413W        W47278  18.455  21.240  18.657
46414W        W47279  20.271  20.604  19.375
46415W        W47280  19.146  21.399  21.254
46416W        W47281  18.623  20.222  18.950
46417W        W47282  18.508  18.765  19.949
46418W        W47283  20.056  20.730  20.006
46419W        W47284  18.308  18.584  19.026
46420W        W47285  20.972  19.790  20.953
46421W        W47286  20.849  19.176  18.525
46422W        W47287  21.366  20.848  20.173
46423W        W47288  20.027  21.332  20.004
46424W        W47289  19.439  21.436  18.915
46425W        W47290  20.721  18.339  18.345
46426W        W47291  18.521  21.599  20.086
46427W        W47292  20.718  19.357  21.721
46428W        W47293  18.701  18.887  21.720
46429W        W47294  18.432  19.487  19.053
46430W        W47295  19.123  19.476  18.778
46431W        W47296  20.886  19.803  21.595
46432W        W47297  19.229  20.084  20.304
46433W        W47298  20.703  18.370  19.424
46434W        W47299  19.834  21.801  19.927
46435W        W47300  21.048  21.263  20.864
46436W        W47301  20.632  21.412  19.975
46437W        W47302  20.651  20.392  19.569
46438W        W47303  20.113  18.617  18.640
46439W        W47304  21.794  18.245  19.362
46440W        W47305  19.482  19.880  18.525
46441W        W47306  21.648  19.217  19.515
46442W        W47307  20.340  20.387  18.392
46443W        W47308  21.276  20.587  21.140
46444W        W47309  20.930  21.288  18.607
46445W        W47310  19.545  18.963  21.513
46446W        W47311  19.365  19.547  20.754
46447W        W47312  21.457  21.042  21.031
46448W        W47313  20.557  18.992  21.408
46449W        W47314  18.401  19.463  21.185
46450W        W47315  20.161  19.940  20.911
46451W        W47316  18.518  20.698  19.568
46452W        W47317  18.665  19.995  20.458
46453W        W47318  20.982  20.281  20.808
46454W        W47319  20.754  21.661  21.619
46455W        W47320  20.650  19.400  21.172
46456W        W47321  20.927  21.454  19.577
46457W        W47322  19.929  21.174  20.900
46458W        W47323  19.414  21.529  20.169
46459W        W47324  21.219  20.700  20.588
46460W        W47325  20.269  20.772  21.725
46461W        W47326  18.874  20.725  20.064
46462W        W47327  21.220  20.484  19.709
46463W        W47328  20.861  21.550  20.460
46464W        W47329  18.839  21.279  20.330
46465W        W47330  19.860  19.331  21.540
46466W        W47331  20.311  21.497  19.051
46467W        W47332  19.619  20.752  21.689
46468W        W47333  19.745  20.990  19.066
46469W        W47334  18.966  19.730  18.325
46470W        W47335  18.305  21.816  25.225
46471W        W47336  18.681  20.709  24.748
46472W        W47337  21.386  20.439  22.518
46473W        W47338  21.516  21.524  24.545
46474W        W47339  19.434  21.515  22.071
46475W        W47340  19.517  19.667  23.054
46476W        W47341  19.032  19.515  23.218
46477W        W47342  20.023  20.330  22.652
46478W        W47343  19.698  21.422  25.007
46479W        W47344  18.347  18.983  24.970
46480W        W47345  19.109  18.263  24.772
46481W        W47346  20.803  18.651  23.659
46482W        W47347  20.452  19.522  22.229
46483W        W47348  21.022  18.956  25.320
46484W        W47349  18.388  18.748  24.445
46485W        W47350  18.487  21.367  25.466
46486W        W47351  20.009  20.757  22.198
46487W        W47352  18.441  19.540  23.891
46488W        W47353  19.334  19.431  25.128
46489W        W47354  21.793  19.290  23.627
46490W        W47355  21.557  20.333  24.486
46491W        W47356  19.865  19.666  23.513
46492W        W47357  20.411  21.005  23.882
46493W        W47358  18.911  20.439  24.114
46494W        W47359  18.270  19.967  23.685
46495W        W47360  19.306  19.939  24.877
46496W        W47361  21.577  19.722  25.131
46497W        W47362  19.193  21.166  23.576
46498W        W47363  20.314  20.855  24.710
46499W        W47364  19.534  19.495  23.935
46500W        W47365  19.826  20.279  23.578
46501W        W47366  20.823  21.052  25.426
46502W        W47367  19.902  20.372  25.436
46503W        W47368  19.883  20.088  24.914
46504W        W47369  18.292  19.479  25.436
46505W        W47370  21.124  21.014  25.035
46506W        W47371  18.705  18.596  23.033
46507W        W47372  19.232  20.854  24.032
46508W        W47373  21.695  20.637  23.322
46509W        W47374  21.108  19.037  23.889
46510W        W47375  21.393  18.990  21.984
46511W        W47376  21.858  19.791  24.290
46512W        W47377  19.825  21.498  24.043
46513W        W47378  21.599  20.964  22.481
46514W        W47379  18.728  21.750  22.235
46515W        W47380  19.121  21.796  22.911
46516W        W47381  18.918  18.550  24.337
46517W        W47382  21.541  19.568  24.612
46518W        W47383  20.946  19.990  23.071
46519W        W47384  20.912  19.678  22.098
46520W        W47385  20.120  20.822  24.238
46521W        W47386  19.926  19.152  23.437
46522W        W47387  20.526  21.239  24.431
46523W        W47388  21.397  20.030  22.853
46524W        W47389  20.299  18.688  22.869
46525W        W47390  18.956  21.382  22.552
46526W        W47391  18.327  18.881  23.151
46527W        W47392  21.113  19.488  23.625
46528W        W47393  18.571  21.105  23.540
46529W        W47394  19.912  21.455  22.410
46530W        W47395  21.304  19.481  21.874
46531W        W47396  18.327  21.239  24.038
46532W        W47397  19.118  20.811  24.518
46533W        W47398  19.491  20.171  23.137
46534W        W47399  19.513  18.576  24.230
46535W        W47400  21.742  18.338  23.527
46536W        W47401  18.961  20.210  21.995
46537W        W47402  18.616  19.243  22.174
46538W        W47403  18.678  21.199  22.968
46539W        W47404  19.809  20.682  23.216
46540W        W47405  21.141  21.541  24.930
46541W        W47406  20.067  19.183  22.614
46542W        W47407  21.450  21.581  23.386
46543W        W47408  21.127  19.434  24.984
46544W        W47409  21.840  21.090  23.118
46545W        W47410  20.467  20.382  24.602
46546W        W47411  18.233  19.933  22.808
46547W        W47412  19.344  20.348  24.381
46548W        W47413  20.548  19.612  22.759
46549W        W47414  20.425  20.102  22.863
46550W        W47415  18.768  19.522  24.337
46551W        W47416  18.753  19.398  25.259
46552W        W47417  18.643  18.315  23.418
46553W        W47418  20.411  18.662  23.979
46554W        W47419  20.059  18.847  25.142
46555W        W47420  20.414  18.996  22.320
46556W        W47421  21.597  21.389  25.074
46557W        W47422  20.564  18.470  25.113
46558W        W47423  21.583  20.771  25.235
46559W        W47424  21.013  18.938  24.831
46560W        W47425  20.813  18.876  23.101
46561W        W47426  21.206  20.010  25.505
46562W        W47427  18.946  21.586  23.491
46563W        W47428  19.604  19.303  22.477
46564W        W47429  19.173  18.587  25.141
46565W        W47430  21.225  19.071  22.822
46566W        W47431  21.592  19.553  22.767
46567W        W47432  19.335  21.770  25.238
46568W        W47433  19.261  18.306  22.473
46569W        W47434  21.582  18.840  23.508
46570W        W47435  21.732  21.089  21.953
46571W        W47436  18.639  20.292  23.655
46572W        W47437  20.556  18.879  21.885
46573W        W47438  21.690  21.211  23.605
46574W        W47439  21.729  18.405  24.355
46575W        W47440  20.174  19.617  24.909
46576W        W47441  20.267  20.956  22.612
46577W        W47442  20.667  20.250  25.352
46578W        W47443  20.341  18.227  23.661
46579W        W47444  18.953  19.130  23.724
46580W        W47445  18.507  20.330  24.498
46581W        W47446  20.366  21.523  23.204
46582W        W47447  21.560  19.120  24.076
46583W        W47448  20.197  21.467  24.843
46584W        W47449  21.540  20.526  22.048
46585W        W47450  19.975  20.009  23.109
46586W        W47451  21.827  18.520  24.850
46587W        W47452  19.976  20.355  24.444
46588W        W47453  20.193  19.241  23.889
46589W        W47454  21.045  19.539  22.727
46590W        W47455  21.332  19.272  22.369
46591W        W47456  21.141  21.312  22.758
46592W        W47457  20.975  20.915  23.554
46593W        W47458  20.871  19.994  22.532
46594W        W47459  20.304  20.204  23.518
46595W        W47460  21.185  19.992  23.585
46596W        W47461  18.560  19.007  24.009
46597W        W47462  21.338  20.059  24.836
46598W        W47463  21.689  21.677  23.982
46599W        W47464  19.619  21.121  23.384
46600W        W47465  20.626  21.654  24.708
46601W        W47466  20.620  18.984  24.472
46602W        W47467  19.827  21.692  24.533
46603W        W47468  21.524  18.646  22.999
46604W        W47469  21.315  19.965  24.300
46605W        W47470  18.298  19.286  24.338
46606W        W47471  21.158  19.081  23.356
46607W        W47472  21.569  19.232  25.133
46608W        W47473  20.454  20.931  23.351
46609W        W47474  19.710  21.522  22.964
46610W        W47475  18.825  18.702  22.222
46611W        W47476  19.929  18.356  24.032
46612W        W47477  18.957  21.476  21.880
46613W        W47478  19.331  19.942  22.631
46614W        W47479  19.985  20.571  24.944
46615W        W47480  19.815  18.929  22.934
46616W        W47481  21.171  18.526  23.362
46617W        W47482  20.891  21.808  23.690
46618W        W47483  20.303  21.456  24.030
46619W        W47484  19.699  20.493  23.991
46620W        W47485  21.469  21.216  24.117
46621W        W47486  19.163  18.719  22.886
46622W        W47487  19.685  21.016  23.846
46623W        W47488  19.168  18.947  21.911
46624W        W47489  19.969  19.556  24.305
46625W        W47490  20.817  18.422  24.175
46626W        W47491  18.237  20.265  24.060
46627W        W47492  19.941  20.083  22.218
46628W        W47493  19.209  18.398  21.988
46629W        W47494  19.947  19.479  23.039
46630W        W47495  20.917  18.455  24.738
46631W        W47496  19.505  20.467  24.847
46632W        W47497  20.309  20.249  25.064
46633W        W47498  20.926  20.279  24.957
46634W        W47499  20.210  18.419  25.462
46635W        W47500  19.432  19.035  23.855
46636W        W47501  18.858  18.991  23.253
46637W        W47502  18.644  21.703  22.929
46638W        W47503  19.976  21.033  25.054
46639W        W47504  19.011  20.518  22.413
46640W        W47505  20.691  19.903  23.634
46641W        W47506  20.971  19.702  24.033
46642W        W47507  20.176  20.376  23.967
46643W        W47508  20.646  20.750  22.099
46644W        W47509  20.318  18.771  23.427
46645W        W47510  21.797  19.049  22.695
46646W        W47511  18.291  21.638  24.726
46647W        W47512  18.708  20.864  24.258
46648W        W47513  18.275  21.710  22.490
46649W        W47514  20.174  18.980  24.296
46650W        W47515  19.537  21.003  22.145
46651W        W47516  21.442  21.385  22.331
46652W        W47517  20.417  20.038  22.345
46653W        W47518  19.260  19.229  22.862
46654W        W47519  20.092  19.139  21.914
46655W        W47520  20.676  20.704  25.092
46656W        W47521  21.029  18.610  22.709
46657W        W47522  18.359  18.458  22.157
46658W        W47523  19.645  20.777  24.447
46659W        W47524  19.444  20.693  23.539
46660W        W47525  19.186  20.645  21.937
46661W        W47526  18.427  20.886  22.705
46662W        W47527  18.931  19.956  25.147
46663W        W47528  19.635  18.516  25.333
46664W        W47529  20.344  18.658  24.689
46665W        W47530  19.539  18.426  22.970
46666W        W47531  20.598  18.503  22.475
46667W        W47532  18.543  18.435  24.052
46668W        W47533  18.591  19.398  23.422
46669W        W47534  21.280  18.506  23.828
46670W        W47535  18.702  19.004  22.642
46671W        W47536  21.273  18.692  24.258
46672W        W47537  21.669  19.895  21.943
46673W        W47538  18.961  18.653  23.762
46674W        W47539  20.075  19.225  24.702
46675W        W47540  18.223  18.915  22.180
46676W        W47541  19.009  20.304  24.741
46677W        W47542  20.367  19.702  23.920
46678W        W47543  20.234  21.781  22.216
46679W        W47544  18.380  20.288  21.913
46680W        W47545  19.115  20.699  25.039
46681W        W47546  18.636  19.866  24.670
46682W        W47547  19.627  19.971  24.464
46683W        W47548  21.395  18.330  24.726
46684W        W47549  21.793  19.940  24.717
46685W        W47550  21.781  20.140  22.403
46686W        W47551  20.644  20.472  22.502
46687W        W47552  21.118  21.772  22.197
46688W        W47553  20.295  19.762  25.339
46689W        W47554  18.625  20.729  25.379
46690W        W47555  21.831  18.651  25.331
46691W        W47556  21.549  19.579  23.952
46692W        W47557  19.857  21.709  25.429
46693W        W47558  19.712  18.338  22.156
46694W        W47559  21.251  20.937  22.099
46695W        W47560  19.020  19.030  24.985
46696W        W47561  19.454  21.024  24.847
46697W        W47562  21.580  19.015  24.645
46698W        W47563  20.791  21.674  22.613
46699W        W47564  21.030  20.293  23.980
46700W        W47565  19.280  18.709  24.647
46701W        W47566  19.749  19.778  25.404
46702W        W47567  19.252  20.957  22.598
46703W        W47568  21.007  20.455  22.862
46704W        W47569  18.775  19.081  24.586
46705W        W47570  20.104  21.143  23.050
46706W        W47571  21.854  19.703  23.231
46707W        W47572  20.076  18.336  24.950
46708W        W47573  20.856  21.041  24.029
46709W        W47574  21.159  21.385  23.737
46710W        W47575  20.378  21.187  22.165
46711W        W47576  18.388  21.079  25.007
46712W        W47577  19.131  19.071  24.245
46713W        W47578  19.101  18.419  23.355
46714W        W47579  20.722  19.261  24.047
46715W        W47580  19.520  20.432  22.247
46716W        W47581  21.518  20.374  23.746
46717W        W47582  18.845  21.132  25.169
46718W        W47583  21.232  21.814  22.966
46719W        W47584  19.331  18.834  23.411
46720W        W47585  19.100  20.327  23.501
46721W        W47586  19.413  21.738  24.251
46722W        W47587  21.480  21.834  25.283
46723W        W47588  20.639  20.022  24.216
46724W        W47589  18.488  19.820  22.131
46725W        W47590  21.622  21.478  22.828
46726W        W47591  21.459  18.802  22.447
46727W        W47592  19.598  18.321  24.850
46728W        W47593  21.304  21.123  23.308
46729W        W47594  21.333  19.679  23.213
46730W        W47595  19.450  19.352  23.429
46731W        W47596  19.695  19.614  24.753
46732W        W47597  20.806  20.767  24.616
46733W        W47598  19.456  19.221  24.728
46734W        W47599  19.435  21.687  23.344
46735W        W47600  18.752  21.646  24.978
46736W        W47601  18.864  21.007  22.108
46737W        W47602  21.381  20.765  22.918
46738W        W47603  18.985  19.557  24.804
46739W        W47604  21.758  19.487  22.285
46740W        W47605  19.503  20.544  22.756
46741W        W47606  20.602  19.926  24.837
46742W        W47607  20.493  19.554  24.381
46743W        W47608  19.053  19.926  24.410
46744W        W47609  21.263  21.814  24.239
46745W        W47610  21.054  18.448  25.233
46746W        W47611  18.718  18.598  24.820
46747W        W47612  19.057  19.621  23.873
46748W        W47613  19.426  19.435  21.995
46749W        W47614  18.229  21.194  24.540
46750W        W47615  19.814  19.903  23.983
46751W        W47616  19.637  18.928  22.088
46752W        W47617  18.772  19.744  22.869
46753W        W47618  18.543  21.596  24.306
46754W        W47619  21.338  19.822  22.414
46755W        W47620  21.433  18.738  25.100
46756W        W47621  20.869  20.947  23.063
46757W        W47622  18.467  19.871  25.240
46758W        W47623  21.433  18.335  22.536
46759W        W47624  20.953  20.810  22.547
46760W        W47625  19.855  19.868  22.632
46761W        W47626  21.042  18.672  22.155
46762W        W47627  21.107  19.279  24.341
46763W        W47628  18.816  19.872  23.548
46764W        W47629  19.110  20.811  23.197
46765W        W47630  20.873  19.431  23.162
46766W        W47631  19.896  18.810  23.858
46767W        W47632  21.858  20.721  24.369
46768W        W47633  21.776  18.708  23.930
46769W        W47634  18.315  21.538  23.306
46770W        W47635  18.824  20.725  22.842
46771W        W47636  18.739  18.342  25.395
46772W        W47637  19.858  21.195  25.497
46773W        W47638  21.613  20.163  23.287
46774W        W47639  20.967  20.340  22.167
46775W        W47640  20.262  21.861  24.379
46776W        W47641  21.119  20.583  25.416
46777W        W47642  19.934  18.293  22.696
46778W        W47643  20.647  19.162  23.555
46779W        W47644  18.333  20.749  23.887
46780W        W47645  19.586  18.711  22.528
46781W        W47646  19.390  20.195  25.377
46782W        W47647  20.384  19.176  23.091
46783W        W47648  20.589  20.586  24.213
46784W        W47649  18.743  21.191  24.648
46785W        W47650  19.334  21.174  25.371
46786W        W47651  19.185  18.971  22.385
46787W        W47652  20.702  19.113  22.710
46788W        W47653  20.660  21.221  24.947
46789W        W47654  19.345  19.813  23.546
46790W        W47655  19.000  21.511  24.411
46791W        W47656  21.745  21.628  22.012
46792W        W47657  18.608  20.300  25.008
46793W        W47658  20.603  20.562  23.696
46794W        W47659  19.039  20.211  22.938
46795W        W47660  19.410  21.218  24.333
46796W        W47661  19.788  18.637  23.374
46797W        W47662  18.399  20.621  22.304
46798W        W47663  19.918  19.572  22.174
46799W        W47664  18.564  20.121  23.193
46800W        W47665  19.854  18.763  24.657
46801W        W47666  21.526  18.472  22.084
46802W        W47667  21.619  20.218  25.183
46803W        W47668  20.273  21.475  25.335
46804W        W47669  21.831  20.569  24.857
46805W        W47670  21.239  21.367  25.468
46806W        W47671  18.978  21.823  23.946
46807W        W47672  21.837  20.445  22.820
46808W        W47673  20.367  19.712  23.333
46809W        W47674  20.134  18.324  23.223
46810W        W47675  19.193  21.308  23.060
46811W        W47676  19.692  19.049  24.285
46812W        W47677  19.392  18.418  23.754
46813W        W47678  18.455  21.240  22.302
46814W        W47679  20.271  20.604  23.020
46815W        W47680  19.146  21.399  24.899
46816W        W47681  18.623  20.222  22.595
46817W        W47682  18.508  18.765  23.594
46818W        W47683  20.056  20.730  23.651
46819W        W47684  18.308  18.584  22.671
46820W        W47685  20.972  19.790  24.598
46821W        W47686  20.849  19.176  22.170
46822W        W47687  21.366  20.848  23.818
46823W        W47688  20.027  21.332  23.649
46824W        W47689  19.439  21.436  22.560
46825W        W47690  20.721  18.339  21.990
46826W        W47691  18.521  21.599  23.731
46827W        W47692  20.718  19.357  25.366
46828W        W47693  18.701  18.887  25.365
46829W        W47694  18.432  19.487  22.698
46830W        W47695  19.123  19.476  22.423
46831W        W47696  20.886  19.803  25.240
46832W        W47697  19.229  20.084  23.949
46833W        W47698  20.703  18.370  23.069
46834W        W47699  19.834  21.801  23.572
46835W        W47700  21.048  21.263  24.509
46836W        W47701  20.632  21.412  23.620
46837W        W47702  20.651  20.392  23.214
46838W        W47703  20.113  18.617  22.285
46839W        W47704  21.794  18.245  23.007
46840W        W47705  19.482  19.880  22.170
46841W        W47706  21.648  19.217  23.160
46842W        W47707  20.340  20.387  22.037
46843W        W47708  21.276  20.587  24.785
46844W        W47709  20.930  21.288  22.252
46845W        W47710  19.545  18.963  25.158
46846W        W47711  19.365  19.547  24.399
46847W        W47712  21.457  21.042  24.676
46848W        W47713  20.557  18.992  25.053
46849W        W47714  18.401  19.463  24.830
46850W        W47715  20.161  19.940  24.556
46851W        W47716  18.518  20.698  23.213
46852W        W47717  18.665  19.995  24.103
46853W        W47718  20.982  20.281  24.453
46854W        W47719  20.754  21.661  25.264
46855W        W47720  20.650  19.400  24.817
46856W        W47721  20.927  21.454  23.222
46857W        W47722  19.929  21.174  24.545
46858W        W47723  19.414  21.529  23.814
46859W        W47724  21.219  20.700  24.233
46860W        W47725  20.269  20.772  25.370
46861W        W47726  18.874  20.725  23.709
46862W        W47727  21.220  20.484  23.354
46863W        W47728  20.861  21.550  24.105
46864W        W47729  18.839  21.279  23.975
46865W        W47730  19.860  19.331  25.185
46866W        W47731  20.311  21.497  22.696
46867W        W47732  19.619  20.752  25.334
46868W        W47733  19.745  20.990  22.711
46869W        W47734  18.966  19.730  21.970
46870W        W47735  18.305  21.816  28.869
46871W        W47736  18.681  20.709  28.392
46872W        W47737  21.386  20.439  26.162
46873W        W47738  21.516  21.524  28.189
46874W        W47739  19.434  21.515  25.715
46875W        W47740  19.517  19.667  26.698
46876W        W47741  19.032  19.515  26.862
46877W        W47742  20.023  20.330  26.296
46878W        W47743  19.698  21.422  28.651
46879W        W47744  18.347  18.983  28.614
46880W        W47745  19.109  18.263  28.416
46881W        W47746  20.803  18.651  27.303
46882W        W47747  20.452  19.522  25.873
46883W        W47748  21.022  18.956  28.964
46884W        W47749  18.388  18.748  28.089
46885W        W47750  18.487  21.367  29.110
46886W        W47751  20.009  20.757  25.842
46887W        W47752  18.441  19.540  27.535
46888W        W47753  19.334  19.431  28.772
46889W        W47754  21.793  19.290  27.271
46890W        W47755  21.557  20.333  28.130
46891W        W47756  19.865  19.666  27.157
46892W        W47757  20.411  21.005  27.526
46893W        W47758  18.911  20.439  27.758
46894W        W47759  18.270  19.967  27.329
46895W        W47760  19.306  19.939  28.521
46896W        W47761  21.577  19.722  28.775
46897W        W47762  19.193  21.166  27.220
46898W        W47763  20.314  20.855  28.354
46899W        W47764  19.534  19.495  27.579
46900W        W47765  19.826  20.279  27.222
46901W        W47766  20.823  21.052  29.070
46902W        W47767  19.902  20.372  29.080
46903W        W47768  19.883  20.088  28.558
46904W        W47769  18.292  19.479  29.080
46905W        W47770  21.124  21.014  28.679
46906W        W47771  18.705  18.596  26.677
46907W        W47772  19.232  20.854  27.676
46908W        W47773  21.695  20.637  26.966
46909W        W47774  21.108  19.037  27.533
46910W        W47775  21.393  18.990  25.628
46911W        W47776  21.858  19.791  27.934
46912W        W47777  19.825  21.498  27.687
46913W        W47778  21.599  20.964  26.125
46914W        W47779  18.728  21.750  25.879
46915W        W47780  19.121  21.796  26.555
46916W        W47781  18.918  18.550  27.981
46917W        W47782  21.541  19.568  28.256
46918W        W47783  20.946  19.990  26.715
46919W        W47784  20.912  19.678  25.742
46920W        W47785  20.120  20.822  27.882
46921W        W47786  19.926  19.152  27.081
46922W        W47787  20.526  21.239  28.075
46923W        W47788  21.397  20.030  26.497
46924W        W47789  20.299  18.688  26.513
46925W        W47790  18.956  21.382  26.196
46926W        W47791  18.327  18.881  26.795
46927W        W47792  21.113  19.488  27.269
46928W        W47793  18.571  21.105  27.184
46929W        W47794  19.912  21.455  26.054
46930W        W47795  21.304  19.481  25.518
46931W        W47796  18.327  21.239  27.682
46932W        W47797  19.118  20.811  28.162
46933W        W47798  19.491  20.171  26.781
46934W        W47799  19.513  18.576  27.874
46935W        W47800  21.742  18.338  27.171
46936W        W47801  18.961  20.210  25.639
46937W        W47802  18.616  19.243  25.818
46938W        W47803  18.678  21.199  26.612
46939W        W47804  19.809  20.682  26.860
46940W        W47805  21.141  21.541  28.574
46941W        W47806  20.067  19.183  26.258
46942W        W47807  21.450  21.581  27.030
46943W        W47808  21.127  19.434  28.628
46944W        W47809  21.840  21.090  26.762
46945W        W47810  20.467  20.382  28.246
46946W        W47811  18.233  19.933  26.452
46947W        W47812  19.344  20.348  28.025
46948W        W47813  20.548  19.612  26.403
46949W        W47814  20.425  20.102  26.507
46950W        W47815  18.768  19.522  27.981
46951W        W47816  18.753  19.398  28.903
46952W        W47817  18.643  18.315  27.062
46953W        W47818  20.411  18.662  27.623
46954W        W47819  20.059  18.847  28.786
46955W        W47820  20.414  18.996  25.964
46956W        W47821  21.597  21.389  28.718
46957W        W47822  20.564  18.470  28.757
46958W        W47823  21.583  20.771  28.879
46959W        W47824  21.013  18.938  28.475
46960W        W47825  20.813  18.876  26.745
46961W        W47826  21.206  20.010  29.149
46962W        W47827  19.604  19.303  26.121
46963W        W47828  19.173  18.587  28.785
46964W        W47829  21.225  19.071  26.466
46965W        W47830  21.592  19.553  26.411
46966W        W47831  19.335  21.770  28.882
46967W        W47832  19.261  18.306  26.117
46968W        W47833  21.582  18.840  27.152
46969W        W47834  21.732  21.089  25.597
46970W        W47835  18.639  20.292  27.299
46971W        W47836  20.556  18.879  25.529
46972W        W47837  21.690  21.211  27.249
46973W        W47838  21.729  18.405  27.999
46974W        W47839  20.174  19.617  28.553
46975W        W47840  20.267  20.956  26.256
46976W        W47841  20.667  20.250  28.996
46977W        W47842  20.341  18.227  27.305
46978W        W47843  18.953  19.130  27.368
46979W        W47844  18.507  20.330  28.142
46980W        W47845  20.366  21.523  26.848
46981W        W47846  21.560  19.120  27.720
46982W        W47847  20.197  21.467  28.487
46983W        W47848  21.540  20.526  25.692
46984W        W47849  19.975  20.009  26.753
46985W        W47850  21.827  18.520  28.494
46986W        W47851  19.976  20.355  28.088
46987W        W47852  20.193  19.241  27.533
46988W        W47853  21.045  19.539  26.371
46989W        W47854  21.332  19.272  26.013
46990W        W47855  21.141  21.312  26.402
46991W        W47856  20.975  20.915  27.198
46992W        W47857  20.871  19.994  26.176
46993W        W47858  20.304  20.204  27.162
46994W        W47859  21.185  19.992  27.229
46995W        W47860  18.560  19.007  27.653
46996W        W47861  21.338  20.059  28.480
46997W        W47862  21.689  21.677  27.626
46998W        W47863  19.619  21.121  27.028
46999W        W47864  20.626  21.654  28.352
47000W        W47865  20.620  18.984  28.116
47001W        W47866  19.827  21.692  28.177
47002W        W47867  21.524  18.646  26.643
47003W        W47868  21.315  19.965  27.944
47004W        W47869  18.298  19.286  27.982
47005W        W47870  21.158  19.081  27.000
47006W        W47871  21.569  19.232  28.777
47007W        W47872  20.454  20.931  26.995
47008W        W47873  19.710  21.522  26.608
47009W        W47874  18.825  18.702  25.866
47010W        W47875  19.929  18.356  27.676
47011W        W47876  18.957  21.476  25.524
47012W        W47877  19.331  19.942  26.275
47013W        W47878  19.985  20.571  28.588
47014W        W47879  19.815  18.929  26.578
47015W        W47880  21.171  18.526  27.006
47016W        W47881  20.891  21.808  27.334
47017W        W47882  20.303  21.456  27.674
47018W        W47883  19.699  20.493  27.635
47019W        W47884  21.469  21.216  27.761
47020W        W47885  19.163  18.719  26.530
47021W        W47886  19.685  21.016  27.490
47022W        W47887  19.168  18.947  25.555
47023W        W47888  19.969  19.556  27.949
47024W        W47889  20.817  18.422  27.819
47025W        W47890  18.237  20.265  27.704
47026W        W47891  19.941  20.083  25.862
47027W        W47892  19.209  18.398  25.632
47028W        W47893  19.947  19.479  26.683
47029W        W47894  20.917  18.455  28.382
47030W        W47895  19.505  20.467  28.491
47031W        W47896  20.309  20.249  28.708
47032W        W47897  20.926  20.279  28.601
47033W        W47898  20.210  18.419  29.106
47034W        W47899  19.432  19.035  27.499
47035W        W47900  18.858  18.991  26.897
47036W        W47901  18.644  21.703  26.573
47037W        W47902  19.976  21.033  28.698
47038W        W47903  19.011  20.518  26.057
47039W        W47904  20.691  19.903  27.278
47040W        W47905  20.971  19.702  27.677
47041W        W47906  20.176  20.376  27.611
47042W        W47907  20.646  20.750  25.743
47043W        W47908  20.318  18.771  27.071
47044W        W47909  21.797  19.049  26.339
47045W        W47910  18.291  21.638  28.370
47046W        W47911  18.708  20.864  27.902
47047W        W47912  18.275  21.710  26.134
47048W        W47913  20.174  18.980  27.940
47049W        W47914  19.537  21.003  25.789
47050W        W47915  21.442  21.385  25.975
47051W        W47916  20.417  20.038  25.989
47052W        W47917  19.260  19.229  26.506
47053W        W47918  20.092  19.139  25.558
47054W        W47919  20.676  20.704  28.736
47055W        W47920  21.029  18.610  26.353
47056W        W47921  18.359  18.458  25.801
47057W        W47922  19.645  20.777  28.091
47058W        W47923  19.444  20.693  27.183
47059W        W47924  19.186  20.645  25.581
47060W        W47925  18.427  20.886  26.349
47061W        W47926  18.931  19.956  28.791
47062W        W47927  19.635  18.516  28.977
47063W        W47928  20.344  18.658  28.333
47064W        W47929  19.539  18.426  26.614
47065W        W47930  20.598  18.503  26.119
47066W        W47931  18.543  18.435  27.696
47067W        W47932  18.591  19.398  27.066
47068W        W47933  21.280  18.506  27.472
47069W        W47934  18.702  19.004  26.286
47070W        W47935  21.273  18.692  27.902
47071W        W47936  21.669  19.895  25.587
47072W        W47937  18.961  18.653  27.406
47073W        W47938  20.075  19.225  28.346
47074W        W47939  18.223  18.915  25.824
47075W        W47940  19.009  20.304  28.385
47076W        W47941  20.367  19.702  27.564
47077W        W47942  20.234  21.781  25.860
47078W        W47943  18.380  20.288  25.557
47079W        W47944  19.115  20.699  28.683
47080W        W47945  18.636  19.866  28.314
47081W        W47946  19.627  19.971  28.108
47082W        W47947  21.395  18.330  28.370
47083W        W47948  21.793  19.940  28.361
47084W        W47949  21.781  20.140  26.047
47085W        W47950  20.644  20.472  26.146
47086W        W47951  21.118  21.772  25.841
47087W        W47952  20.295  19.762  28.983
47088W        W47953  18.625  20.729  29.023
47089W        W47954  21.831  18.651  28.975
47090W        W47955  21.549  19.579  27.596
47091W        W47956  19.857  21.709  29.073
47092W        W47957  19.712  18.338  25.800
47093W        W47958  21.251  20.937  25.743
47094W        W47959  19.020  19.030  28.629
47095W        W47960  19.454  21.024  28.491
47096W        W47961  21.580  19.015  28.289
47097W        W47962  20.791  21.674  26.257
47098W        W47963  21.030  20.293  27.624
47099W        W47964  19.280  18.709  28.291
47100W        W47965  19.749  19.778  29.048
47101W        W47966  19.252  20.957  26.242
47102W        W47967  21.007  20.455  26.506
47103W        W47968  18.775  19.081  28.230
47104W        W47969  20.104  21.143  26.694
47105W        W47970  21.854  19.703  26.875
47106W        W47971  20.076  18.336  28.594
47107W        W47972  20.856  21.041  27.673
47108W        W47973  21.159  21.385  27.381
47109W        W47974  20.378  21.187  25.809
47110W        W47975  18.388  21.079  28.651
47111W        W47976  19.131  19.071  27.889
47112W        W47977  19.101  18.419  26.999
47113W        W47978  20.722  19.261  27.691
47114W        W47979  19.520  20.432  25.891
47115W        W47980  21.518  20.374  27.390
47116W        W47981  18.845  21.132  28.813
47117W        W47982  21.232  21.814  26.610
47118W        W47983  19.331  18.834  27.055
47119W        W47984  19.100  20.327  27.145
47120W        W47985  19.413  21.738  27.895
47121W        W47986  21.480  21.834  28.927
47122W        W47987  20.639  20.022  27.860
47123W        W47988  18.488  19.820  25.775
47124W        W47989  21.622  21.478  26.472
47125W        W47990  21.459  18.802  26.091
47126W        W47991  19.598  18.321  28.494
47127W        W47992  21.304  21.123  26.952
47128W        W47993  21.333  19.679  26.857
47129W        W47994  19.450  19.352  27.073
47130W        W47995  19.695  19.614  28.397
47131W        W47996  20.806  20.767  28.260
47132W        W47997  19.456  19.221  28.372
47133W        W47998  19.435  21.687  26.988
47134W        W47999  18.752  21.646  28.622
47135W        W48000  18.864  21.007  25.752
47136W        W48001  21.381  20.765  26.562
47137W        W48002  18.985  19.557  28.448
47138W        W48003  21.758  19.487  25.929
47139W        W48004  19.503  20.544  26.400
47140W        W48005  20.602  19.926  28.481
47141W        W48006  20.493  19.554  28.025
47142W        W48007  19.053  19.926  28.054
47143W        W48008  21.263  21.814  27.883
47144W        W48009  21.054  18.448  28.877
47145W        W48010  18.718  18.598  28.464
47146W        W48011  19.057  19.621  27.517
47147W        W48012  19.426  19.435  25.639
47148W        W48013  18.229  21.194  28.184
47149W        W48014  19.814  19.903  27.627
47150W        W48015  19.637  18.928  25.732
47151W        W48016  18.772  19.744  26.513
47152W        W48017  18.543  21.596  27.950
47153W        W48018  21.338  19.822  26.058
47154W        W48019  21.433  18.738  28.744
47155W        W48020  20.869  20.947  26.707
47156W        W48021  18.467  19.871  28.884
47157W        W48022  21.433  18.335  26.180
47158W        W48023  20.953  20.810  26.191
47159W        W48024  19.855  19.868  26.276
47160W        W48025  21.042  18.672  25.799
47161W        W48026  21.107  19.279  27.985
47162W        W48027  18.816  19.872  27.192
47163W        W48028  19.110  20.811  26.841
47164W        W48029  20.873  19.431  26.806
47165W        W48030  19.896  18.810  27.502
47166W        W48031  21.858  20.721  28.013
47167W        W48032  21.776  18.708  27.574
47168W        W48033  18.315  21.538  26.950
47169W        W48034  18.824  20.725  26.486
47170W        W48035  18.739  18.342  29.039
47171W        W48036  19.858  21.195  29.141
47172W        W48037  21.613  20.163  26.931
47173W        W48038  20.967  20.340  25.811
47174W        W48039  20.262  21.861  28.023
47175W        W48040  21.119  20.583  29.060
47176W        W48041  19.934  18.293  26.340
47177W        W48042  20.647  19.162  27.199
47178W        W48043  18.333  20.749  27.531
47179W        W48044  19.586  18.711  26.172
47180W        W48045  19.390  20.195  29.021
47181W        W48046  20.384  19.176  26.735
47182W        W48047  20.589  20.586  27.857
47183W        W48048  18.743  21.191  28.292
47184W        W48049  19.334  21.174  29.015
47185W        W48050  19.185  18.971  26.029
47186W        W48051  20.702  19.113  26.354
47187W        W48052  20.660  21.221  28.591
47188W        W48053  19.345  19.813  27.190
47189W        W48054  19.000  21.511  28.055
47190W        W48055  21.745  21.628  25.656
47191W        W48056  18.608  20.300  28.652
47192W        W48057  20.603  20.562  27.340
47193W        W48058  19.039  20.211  26.582
47194W        W48059  19.410  21.218  27.977
47195W        W48060  19.788  18.637  27.018
47196W        W48061  18.399  20.621  25.948
47197W        W48062  19.918  19.572  25.818
47198W        W48063  18.564  20.121  26.837
47199W        W48064  19.854  18.763  28.301
47200W        W48065  21.526  18.472  25.728
47201W        W48066  21.619  20.218  28.827
47202W        W48067  20.273  21.475  28.979
47203W        W48068  21.831  20.569  28.501
47204W        W48069  21.239  21.367  29.112
47205W        W48070  18.978  21.823  27.590
47206W        W48071  21.837  20.445  26.464
47207W        W48072  20.367  19.712  26.977
47208W        W48073  20.134  18.324  26.867
47209W        W48074  19.193  21.308  26.704
47210W        W48075  19.692  19.049  27.929
47211W        W48076  19.392  18.418  27.398
47212W        W48077  18.455  21.240  25.946
47213W        W48078  20.271  20.604  26.664
47214W        W48079  19.146  21.399  28.543
47215W        W48080  18.623  20.222  26.239
47216W        W48081  18.508  18.765  27.238
47217W        W48082  20.056  20.730  27.295
47218W        W48083  18.308  18.584  26.315
47219W        W48084  20.972  19.790  28.242
47220W        W48085  20.849  19.176  25.814
47221W        W48086  21.366  20.848  27.462
47222W        W48087  20.027  21.332  27.293
47223W        W48088  19.439  21.436  26.204
47224W        W48089  20.721  18.339  25.634
47225W        W48090  18.521  21.599  27.375
47226W        W48091  20.718  19.357  29.010
47227W        W48092  18.701  18.887  29.009
47228W        W48093  18.432  19.487  26.342
47229W        W48094  19.123  19.476  26.067
47230W        W48095  20.886  19.803  28.884
47231W        W48096  19.229  20.084  27.593
47232W        W48097  20.703  18.370  26.713
47233W        W48098  19.834  21.801  27.216
47234W        W48099  21.048  21.263  28.153
47235W        W48100  20.632  21.412  27.264
47236W        W48101  20.651  20.392  26.858
47237W        W48102  20.113  18.617  25.929
47238W        W48103  21.794  18.245  26.651
47239W        W48104  19.482  19.880  25.814
47240W        W48105  21.648  19.217  26.804
47241W        W48106  20.340  20.387  25.681
47242W        W48107  21.276  20.587  28.429
47243W        W48108  20.930  21.288  25.896
47244W        W48109  19.545  18.963  28.802
47245W        W48110  19.365  19.547  28.043
47246W        W48111  21.457  21.042  28.320
47247W        W48112  20.557  18.992  28.697
47248W        W48113  18.401  19.463  28.474
47249W        W48114  20.161  19.940  28.200
47250W        W48115  18.518  20.698  26.857
47251W        W48116  18.665  19.995  27.747
47252W        W48117  20.982  20.281  28.097
47253W        W48118  20.754  21.661  28.908
47254W        W48119  20.650  19.400  28.461
47255W        W48120  20.927  21.454  26.866
47256W        W48121  19.929  21.174  28.189
47257W        W48122  19.414  21.529  27.458
47258W        W48123  21.219  20.700  27.877
47259W        W48124  20.269  20.772  29.014
47260W        W48125  18.874  20.725  27.353
47261W        W48126  21.220  20.484  26.998
47262W        W48127  20.861  21.550  27.749
47263W        W48128  18.839  21.279  27.619
47264W        W48129  19.860  19.331  28.829
47265W        W48130  20.311  21.497  26.340
47266W        W48131  19.619  20.752  28.978
47267W        W48132  19.745  20.990  26.355
47268W        W48133  18.966  19.730  25.614
47269W        W48134  18.305  25.461   3.359
47270W        W48135  18.681  24.354   2.882
47271W        W48136  21.386  24.084   0.652
47272W        W48137  21.516  25.169   2.679
47273W        W48138  19.434  25.160   0.205
47274W        W48139  19.517  23.312   1.188
47275W        W48140  19.032  23.160   1.352
47276W        W48141  20.023  23.975   0.786
47277W        W48142  19.698  25.067   3.141
47278W        W48143  18.347  22.628   3.104
47279W        W48144  19.109  21.908   2.906
47280W        W48145  20.803  22.296   1.793
47281W        W48146  20.452  23.167   0.363
47282W        W48147  21.022  22.601   3.454
47283W        W48148  18.388  22.393   2.579
47284W        W48149  20.009  24.402   0.332
47285W        W48150  18.441  23.185   2.025
47286W        W48151  19.334  23.076   3.262
47287W        W48152  21.793  22.935   1.761
47288W        W48153  21.557  23.978   2.620
47289W        W48154  19.865  23.311   1.647
47290W        W48155  20.411  24.650   2.016
47291W        W48156  18.911  24.084   2.248
47292W        W48157  18.270  23.612   1.819
47293W        W48158  19.306  23.584   3.011
47294W        W48159  21.577  23.367   3.265
47295W        W48160  19.193  24.811   1.710
47296W        W48161  20.314  24.500   2.844
47297W        W48162  19.534  23.140   2.069
47298W        W48163  19.826  23.924   1.712
47299W        W48164  20.823  24.697   3.560
47300W        W48165  19.902  24.017   3.570
47301W        W48166  19.883  23.733   3.048
47302W        W48167  18.292  23.124   3.570
47303W        W48168  21.124  24.659   3.169
47304W        W48169  18.705  22.241   1.167
47305W        W48170  19.232  24.499   2.166
47306W        W48171  21.695  24.282   1.456
47307W        W48172  21.108  22.682   2.023
47308W        W48173  21.393  22.635   0.118
47309W        W48174  21.858  23.436   2.424
47310W        W48175  19.825  25.143   2.177
47311W        W48176  21.599  24.609   0.615
47312W        W48177  18.728  25.395   0.369
47313W        W48178  19.121  25.441   1.045
47314W        W48179  18.918  22.195   2.471
47315W        W48180  21.541  23.213   2.746
47316W        W48181  20.946  23.635   1.205
47317W        W48182  20.912  23.323   0.232
47318W        W48183  20.120  24.467   2.372
47319W        W48184  19.926  22.797   1.571
47320W        W48185  20.526  24.884   2.565
47321W        W48186  21.397  23.675   0.987
47322W        W48187  20.299  22.333   1.003
47323W        W48188  18.956  25.027   0.686
47324W        W48189  18.327  22.526   1.285
47325W        W48190  21.113  23.133   1.759
47326W        W48191  18.571  24.750   1.674
47327W        W48192  19.912  25.100   0.544
47328W        W48193  21.304  23.126   0.008
47329W        W48194  18.327  24.884   2.172
47330W        W48195  19.118  24.456   2.652
47331W        W48196  19.491  23.816   1.271
47332W        W48197  19.513  22.221   2.364
47333W        W48198  21.742  21.983   1.661
47334W        W48199  18.961  23.855   0.129
47335W        W48200  18.616  22.888   0.308
47336W        W48201  18.678  24.844   1.102
47337W        W48202  19.809  24.327   1.350
47338W        W48203  21.141  25.186   3.064
47339W        W48204  20.067  22.828   0.748
47340W        W48205  21.450  25.226   1.520
47341W        W48206  21.127  23.079   3.118
47342W        W48207  21.840  24.735   1.252
47343W        W48208  20.467  24.027   2.736
47344W        W48209  18.233  23.578   0.942
47345W        W48210  19.344  23.993   2.515
47346W        W48211  20.548  23.257   0.893
47347W        W48212  20.425  23.747   0.997
47348W        W48213  18.768  23.167   2.471
47349W        W48214  18.753  23.043   3.393
47350W        W48215  18.643  21.960   1.552
47351W        W48216  20.411  22.307   2.113
47352W        W48217  20.059  22.492   3.276
47353W        W48218  20.414  22.641   0.454
47354W        W48219  21.597  25.034   3.208
47355W        W48220  20.564  22.115   3.247
47356W        W48221  21.583  24.416   3.369
47357W        W48222  21.013  22.583   2.965
47358W        W48223  20.813  22.521   1.235
47359W        W48224  21.206  23.655   3.639
47360W        W48225  18.946  25.231   1.625
47361W        W48226  19.604  22.948   0.611
47362W        W48227  19.173  22.232   3.275
47363W        W48228  21.225  22.716   0.956
47364W        W48229  21.592  23.198   0.901
47365W        W48230  19.335  25.415   3.372
47366W        W48231  19.261  21.951   0.607
47367W        W48232  21.732  24.734   0.087
47368W        W48233  18.639  23.937   1.789
47369W        W48234  20.556  22.524   0.019
47370W        W48235  21.690  24.856   1.739
47371W        W48236  21.729  22.050   2.489
47372W        W48237  20.174  23.262   3.043
47373W        W48238  20.267  24.601   0.746
47374W        W48239  20.667  23.895   3.486
47375W        W48240  20.341  21.872   1.795
47376W        W48241  18.953  22.775   1.858
47377W        W48242  18.507  23.975   2.632
47378W        W48243  20.366  25.168   1.338
47379W        W48244  21.560  22.765   2.210
47380W        W48245  20.197  25.112   2.977
47381W        W48246  21.540  24.171   0.182
47382W        W48247  19.975  23.654   1.243
47383W        W48248  21.827  22.165   2.984
47384W        W48249  19.976  24.000   2.578
47385W        W48250  20.193  22.886   2.023
47386W        W48251  21.045  23.184   0.861
47387W        W48252  21.332  22.917   0.503
47388W        W48253  21.141  24.957   0.892
47389W        W48254  20.975  24.560   1.688
47390W        W48255  20.871  23.639   0.666
47391W        W48256  20.304  23.849   1.652
47392W        W48257  21.185  23.637   1.719
47393W        W48258  18.560  22.652   2.143
47394W        W48259  21.338  23.704   2.970
47395W        W48260  21.689  25.322   2.116
47396W        W48261  19.619  24.766   1.518
47397W        W48262  20.626  25.299   2.842
47398W        W48263  20.620  22.629   2.606
47399W        W48264  19.827  25.337   2.667
47400W        W48265  21.524  22.291   1.133
47401W        W48266  21.315  23.610   2.434
47402W        W48267  18.298  22.931   2.472
47403W        W48268  21.158  22.726   1.490
47404W        W48269  21.569  22.877   3.267
47405W        W48270  20.454  24.576   1.485
47406W        W48271  19.710  25.167   1.098
47407W        W48272  18.825  22.347   0.356
47408W        W48273  19.929  22.001   2.166
47409W        W48274  18.957  25.121   0.014
47410W        W48275  19.331  23.587   0.765
47411W        W48276  19.985  24.216   3.078
47412W        W48277  19.815  22.574   1.068
47413W        W48278  21.171  22.171   1.496
47414W        W48279  20.891  25.453   1.824
47415W        W48280  20.303  25.101   2.164
47416W        W48281  19.699  24.138   2.125
47417W        W48282  21.469  24.861   2.251
47418W        W48283  19.163  22.364   1.020
47419W        W48284  19.685  24.661   1.980
47420W        W48285  19.168  22.592   0.045
47421W        W48286  19.969  23.201   2.439
47422W        W48287  20.817  22.067   2.309
47423W        W48288  18.237  23.910   2.194
47424W        W48289  19.941  23.728   0.352
47425W        W48290  19.209  22.043   0.122
47426W        W48291  19.947  23.124   1.173
47427W        W48292  20.917  22.100   2.872
47428W        W48293  19.505  24.112   2.981
47429W        W48294  20.309  23.894   3.198
47430W        W48295  20.926  23.924   3.091
47431W        W48296  20.210  22.064   3.596
47432W        W48297  19.432  22.680   1.989
47433W        W48298  18.858  22.636   1.387
47434W        W48299  18.644  25.348   1.063
47435W        W48300  19.976  24.678   3.188
47436W        W48301  19.011  24.163   0.547
47437W        W48302  20.691  23.548   1.768
47438W        W48303  20.971  23.347   2.167
47439W        W48304  20.176  24.021   2.101
47440W        W48305  20.646  24.395   0.233
47441W        W48306  20.318  22.416   1.561
47442W        W48307  21.797  22.694   0.829
47443W        W48308  18.291  25.283   2.860
47444W        W48309  18.708  24.509   2.392
47445W        W48310  18.275  25.355   0.624
47446W        W48311  20.174  22.625   2.430
47447W        W48312  19.537  24.648   0.279
47448W        W48313  21.442  25.030   0.465
47449W        W48314  20.417  23.683   0.479
47450W        W48315  19.260  22.874   0.996
47451W        W48316  20.092  22.784   0.048
47452W        W48317  20.676  24.349   3.226
47453W        W48318  21.029  22.255   0.843
47454W        W48319  18.359  22.103   0.291
47455W        W48320  19.645  24.422   2.581
47456W        W48321  19.444  24.338   1.673
47457W        W48322  19.186  24.290   0.071
47458W        W48323  18.427  24.531   0.839
47459W        W48324  18.931  23.601   3.281
47460W        W48325  19.635  22.161   3.467
47461W        W48326  20.344  22.303   2.823
47462W        W48327  19.539  22.071   1.104
47463W        W48328  20.598  22.148   0.609
47464W        W48329  18.543  22.080   2.186
47465W        W48330  18.591  23.043   1.556
47466W        W48331  21.280  22.151   1.962
47467W        W48332  18.702  22.649   0.776
47468W        W48333  21.273  22.337   2.392
47469W        W48334  21.669  23.540   0.077
47470W        W48335  18.961  22.298   1.896
47471W        W48336  20.075  22.870   2.836
47472W        W48337  18.223  22.560   0.314
47473W        W48338  19.009  23.949   2.875
47474W        W48339  20.367  23.347   2.054
47475W        W48340  20.234  25.426   0.350
47476W        W48341  18.380  23.933   0.047
47477W        W48342  19.115  24.344   3.173
47478W        W48343  18.636  23.511   2.804
47479W        W48344  19.627  23.616   2.598
47480W        W48345  21.395  21.975   2.860
47481W        W48346  21.793  23.585   2.851
47482W        W48347  21.781  23.785   0.537
47483W        W48348  20.644  24.117   0.636
47484W        W48349  21.118  25.417   0.331
47485W        W48350  20.295  23.407   3.473
47486W        W48351  18.625  24.374   3.513
47487W        W48352  21.831  22.296   3.465
47488W        W48353  21.549  23.224   2.086
47489W        W48354  19.857  25.354   3.563
47490W        W48355  19.712  21.983   0.290
47491W        W48356  21.251  24.582   0.233
47492W        W48357  19.020  22.675   3.119
47493W        W48358  19.454  24.669   2.981
47494W        W48359  21.580  22.660   2.779
47495W        W48360  20.791  25.319   0.747
47496W        W48361  21.030  23.938   2.114
47497W        W48362  19.280  22.354   2.781
47498W        W48363  19.749  23.423   3.538
47499W        W48364  19.252  24.602   0.732
47500W        W48365  21.007  24.100   0.996
47501W        W48366  18.775  22.726   2.720
47502W        W48367  20.104  24.788   1.184
47503W        W48368  21.854  23.348   1.365
47504W        W48369  20.076  21.981   3.084
47505W        W48370  20.856  24.686   2.163
47506W        W48371  21.159  25.030   1.871
47507W        W48372  20.378  24.832   0.299
47508W        W48373  18.388  24.724   3.141
47509W        W48374  19.131  22.716   2.379
47510W        W48375  19.101  22.064   1.489
47511W        W48376  20.722  22.906   2.181
47512W        W48377  19.520  24.077   0.381
47513W        W48378  21.518  24.019   1.880
47514W        W48379  18.845  24.777   3.303
47515W        W48380  21.232  25.459   1.100
47516W        W48381  19.331  22.479   1.545
47517W        W48382  19.100  23.972   1.635
47518W        W48383  19.413  25.383   2.385
47519W        W48384  21.480  25.479   3.417
47520W        W48385  20.639  23.667   2.350
47521W        W48386  18.488  23.465   0.265
47522W        W48387  21.622  25.123   0.962
47523W        W48388  21.459  22.447   0.581
47524W        W48389  19.598  21.966   2.984
47525W        W48390  21.304  24.768   1.442
47526W        W48391  21.333  23.324   1.347
47527W        W48392  19.450  22.997   1.563
47528W        W48393  19.695  23.259   2.887
47529W        W48394  20.806  24.412   2.750
47530W        W48395  19.456  22.866   2.862
47531W        W48396  19.435  25.332   1.478
47532W        W48397  18.752  25.291   3.112
47533W        W48398  18.864  24.652   0.242
47534W        W48399  21.381  24.410   1.052
47535W        W48400  18.985  23.202   2.938
47536W        W48401  21.758  23.132   0.419
47537W        W48402  19.503  24.189   0.890
47538W        W48403  20.602  23.571   2.971
47539W        W48404  20.493  23.199   2.515
47540W        W48405  19.053  23.571   2.544
47541W        W48406  21.263  25.459   2.373
47542W        W48407  21.054  22.093   3.367
47543W        W48408  18.718  22.243   2.954
47544W        W48409  19.057  23.266   2.007
47545W        W48410  19.426  23.080   0.129
47546W        W48411  18.229  24.839   2.674
47547W        W48412  19.814  23.548   2.117
47548W        W48413  19.637  22.573   0.222
47549W        W48414  18.772  23.389   1.003
47550W        W48415  18.543  25.241   2.440
47551W        W48416  21.338  23.467   0.548
47552W        W48417  21.433  22.383   3.234
47553W        W48418  20.869  24.592   1.197
47554W        W48419  18.467  23.516   3.374
47555W        W48420  21.433  21.980   0.670
47556W        W48421  20.953  24.455   0.681
47557W        W48422  19.855  23.513   0.766
47558W        W48423  21.042  22.317   0.289
47559W        W48424  21.107  22.924   2.475
47560W        W48425  18.816  23.517   1.682
47561W        W48426  19.110  24.456   1.331
47562W        W48427  20.873  23.076   1.296
47563W        W48428  19.896  22.455   1.992
47564W        W48429  21.858  24.366   2.503
47565W        W48430  21.776  22.353   2.064
47566W        W48431  18.315  25.183   1.440
47567W        W48432  18.824  24.370   0.976
47568W        W48433  18.739  21.987   3.529
47569W        W48434  19.858  24.840   3.631
47570W        W48435  21.613  23.808   1.421
47571W        W48436  20.967  23.985   0.301
47572W        W48437  20.262  25.506   2.513
47573W        W48438  21.119  24.228   3.550
47574W        W48439  19.934  21.938   0.830
47575W        W48440  20.647  22.807   1.689
47576W        W48441  18.333  24.394   2.021
47577W        W48442  19.586  22.356   0.662
47578W        W48443  19.390  23.840   3.511
47579W        W48444  20.384  22.821   1.225
47580W        W48445  20.589  24.231   2.347
47581W        W48446  18.743  24.836   2.782
47582W        W48447  19.334  24.819   3.505
47583W        W48448  19.185  22.616   0.519
47584W        W48449  20.702  22.758   0.844
47585W        W48450  20.660  24.866   3.081
47586W        W48451  19.345  23.458   1.680
47587W        W48452  19.000  25.156   2.545
47588W        W48453  21.745  25.273   0.146
47589W        W48454  18.608  23.945   3.142
47590W        W48455  20.603  24.207   1.830
47591W        W48456  19.039  23.856   1.072
47592W        W48457  19.410  24.863   2.467
47593W        W48458  19.788  22.282   1.508
47594W        W48459  18.399  24.266   0.438
47595W        W48460  19.918  23.217   0.308
47596W        W48461  18.564  23.766   1.327
47597W        W48462  19.854  22.408   2.791
47598W        W48463  21.526  22.117   0.218
47599W        W48464  21.619  23.863   3.317
47600W        W48465  20.273  25.120   3.469
47601W        W48466  21.831  24.214   2.991
47602W        W48467  21.239  25.012   3.602
47603W        W48468  18.978  25.468   2.080
47604W        W48469  21.837  24.090   0.954
47605W        W48470  20.367  23.357   1.467
47606W        W48471  20.134  21.969   1.357
47607W        W48472  19.193  24.953   1.194
47608W        W48473  19.692  22.694   2.419
47609W        W48474  19.392  22.063   1.888
47610W        W48475  18.455  24.885   0.436
47611W        W48476  20.271  24.249   1.154
47612W        W48477  19.146  25.044   3.033
47613W        W48478  18.623  23.867   0.729
47614W        W48479  18.508  22.410   1.728
47615W        W48480  20.056  24.375   1.785
47616W        W48481  18.308  22.229   0.805
47617W        W48482  20.972  23.435   2.732
47618W        W48483  20.849  22.821   0.304
47619W        W48484  21.366  24.493   1.952
47620W        W48485  20.027  24.977   1.783
47621W        W48486  19.439  25.081   0.694
47622W        W48487  20.721  21.984   0.124
47623W        W48488  18.521  25.244   1.865
47624W        W48489  20.718  23.002   3.500
47625W        W48490  18.701  22.532   3.499
47626W        W48491  18.432  23.132   0.832
47627W        W48492  19.123  23.121   0.557
47628W        W48493  20.886  23.448   3.374
47629W        W48494  19.229  23.729   2.083
47630W        W48495  20.703  22.015   1.203
47631W        W48496  19.834  25.446   1.706
47632W        W48497  21.048  24.908   2.643
47633W        W48498  20.632  25.057   1.754
47634W        W48499  20.651  24.037   1.348
47635W        W48500  20.113  22.262   0.419
47636W        W48501  21.794  21.890   1.141
47637W        W48502  19.482  23.525   0.304
47638W        W48503  21.648  22.862   1.294
47639W        W48504  20.340  24.032   0.171
47640W        W48505  21.276  24.232   2.919
47641W        W48506  20.930  24.933   0.386
47642W        W48507  19.545  22.608   3.292
47643W        W48508  19.365  23.192   2.533
47644W        W48509  21.457  24.687   2.810
47645W        W48510  20.557  22.637   3.187
47646W        W48511  18.401  23.108   2.964
47647W        W48512  20.161  23.585   2.690
47648W        W48513  18.518  24.343   1.347
47649W        W48514  18.665  23.640   2.237
47650W        W48515  20.982  23.926   2.587
47651W        W48516  20.754  25.306   3.398
47652W        W48517  20.650  23.045   2.951
47653W        W48518  20.927  25.099   1.356
47654W        W48519  19.929  24.819   2.679
47655W        W48520  19.414  25.174   1.948
47656W        W48521  21.219  24.345   2.367
47657W        W48522  20.269  24.417   3.504
47658W        W48523  18.874  24.370   1.843
47659W        W48524  21.220  24.129   1.488
47660W        W48525  20.861  25.195   2.239
47661W        W48526  18.839  24.924   2.109
47662W        W48527  19.860  22.976   3.319
47663W        W48528  20.311  25.142   0.830
47664W        W48529  19.619  24.397   3.468
47665W        W48530  19.745  24.635   0.845
47666W        W48531  18.966  23.375   0.104
47667W        W48532  18.305  25.461   7.003
47668W        W48533  18.681  24.354   6.526
47669W        W48534  21.386  24.084   4.296
47670W        W48535  21.516  25.169   6.323
47671W        W48536  19.434  25.160   3.849
47672W        W48537  19.517  23.312   4.832
47673W        W48538  19.032  23.160   4.996
47674W        W48539  20.023  23.975   4.430
47675W        W48540  19.698  25.067   6.785
47676W        W48541  18.347  22.628   6.748
47677W        W48542  19.109  21.908   6.550
47678W        W48543  20.803  22.296   5.437
47679W        W48544  20.452  23.167   4.007
47680W        W48545  21.022  22.601   7.098
47681W        W48546  18.388  22.393   6.223
47682W        W48547  18.487  25.012   7.244
47683W        W48548  20.009  24.402   3.976
47684W        W48549  18.441  23.185   5.669
47685W        W48550  19.334  23.076   6.906
47686W        W48551  21.793  22.935   5.405
47687W        W48552  21.557  23.978   6.264
47688W        W48553  19.865  23.311   5.291
47689W        W48554  20.411  24.650   5.660
47690W        W48555  18.911  24.084   5.892
47691W        W48556  18.270  23.612   5.463
47692W        W48557  19.306  23.584   6.655
47693W        W48558  21.577  23.367   6.909
47694W        W48559  19.193  24.811   5.354
47695W        W48560  20.314  24.500   6.488
47696W        W48561  19.534  23.140   5.713
47697W        W48562  19.826  23.924   5.356
47698W        W48563  20.823  24.697   7.204
47699W        W48564  19.902  24.017   7.214
47700W        W48565  19.883  23.733   6.692
47701W        W48566  18.292  23.124   7.214
47702W        W48567  21.124  24.659   6.813
47703W        W48568  18.705  22.241   4.811
47704W        W48569  19.232  24.499   5.810
47705W        W48570  21.695  24.282   5.100
47706W        W48571  21.108  22.682   5.667
47707W        W48572  21.393  22.635   3.762
47708W        W48573  21.858  23.436   6.068
47709W        W48574  19.825  25.143   5.821
47710W        W48575  21.599  24.609   4.259
47711W        W48576  18.728  25.395   4.013
47712W        W48577  19.121  25.441   4.689
47713W        W48578  18.918  22.195   6.115
47714W        W48579  21.541  23.213   6.390
47715W        W48580  20.946  23.635   4.849
47716W        W48581  20.912  23.323   3.876
47717W        W48582  20.120  24.467   6.016
47718W        W48583  19.926  22.797   5.215
47719W        W48584  20.526  24.884   6.209
47720W        W48585  21.397  23.675   4.631
47721W        W48586  20.299  22.333   4.647
47722W        W48587  18.956  25.027   4.330
47723W        W48588  18.327  22.526   4.929
47724W        W48589  21.113  23.133   5.403
47725W        W48590  18.571  24.750   5.318
47726W        W48591  19.912  25.100   4.188
47727W        W48592  21.304  23.126   3.652
47728W        W48593  18.327  24.884   5.816
47729W        W48594  19.118  24.456   6.296
47730W        W48595  19.491  23.816   4.915
47731W        W48596  19.513  22.221   6.008
47732W        W48597  21.742  21.983   5.305
47733W        W48598  18.961  23.855   3.773
47734W        W48599  18.616  22.888   3.952
47735W        W48600  18.678  24.844   4.746
47736W        W48601  19.809  24.327   4.994
47737W        W48602  21.141  25.186   6.708
47738W        W48603  20.067  22.828   4.392
47739W        W48604  21.450  25.226   5.164
47740W        W48605  21.127  23.079   6.762
47741W        W48606  21.840  24.735   4.896
47742W        W48607  20.467  24.027   6.380
47743W        W48608  18.233  23.578   4.586
47744W        W48609  19.344  23.993   6.159
47745W        W48610  20.548  23.257   4.537
47746W        W48611  20.425  23.747   4.641
47747W        W48612  18.768  23.167   6.115
47748W        W48613  18.753  23.043   7.037
47749W        W48614  18.643  21.960   5.196
47750W        W48615  20.411  22.307   5.757
47751W        W48616  20.059  22.492   6.920
47752W        W48617  20.414  22.641   4.098
47753W        W48618  21.597  25.034   6.852
47754W        W48619  20.564  22.115   6.891
47755W        W48620  21.583  24.416   7.013
47756W        W48621  21.013  22.583   6.609
47757W        W48622  20.813  22.521   4.879
47758W        W48623  21.206  23.655   7.283
47759W        W48624  18.946  25.231   5.269
47760W        W48625  19.604  22.948   4.255
47761W        W48626  19.173  22.232   6.919
47762W        W48627  21.225  22.716   4.600
47763W        W48628  21.592  23.198   4.545
47764W        W48629  19.335  25.415   7.016
47765W        W48630  19.261  21.951   4.251
47766W        W48631  21.582  22.485   5.286
47767W        W48632  21.732  24.734   3.731
47768W        W48633  18.639  23.937   5.433
47769W        W48634  20.556  22.524   3.663
47770W        W48635  21.690  24.856   5.383
47771W        W48636  21.729  22.050   6.133
47772W        W48637  20.174  23.262   6.687
47773W        W48638  20.267  24.601   4.390
47774W        W48639  20.667  23.895   7.130
47775W        W48640  20.341  21.872   5.439
47776W        W48641  18.953  22.775   5.502
47777W        W48642  18.507  23.975   6.276
47778W        W48643  20.366  25.168   4.982
47779W        W48644  21.560  22.765   5.854
47780W        W48645  20.197  25.112   6.621
47781W        W48646  21.540  24.171   3.826
47782W        W48647  19.975  23.654   4.887
47783W        W48648  21.827  22.165   6.628
47784W        W48649  19.976  24.000   6.222
47785W        W48650  20.193  22.886   5.667
47786W        W48651  21.045  23.184   4.505
47787W        W48652  21.332  22.917   4.147
47788W        W48653  21.141  24.957   4.536
47789W        W48654  20.975  24.560   5.332
47790W        W48655  20.871  23.639   4.310
47791W        W48656  20.304  23.849   5.296
47792W        W48657  21.185  23.637   5.363
47793W        W48658  18.560  22.652   5.787
47794W        W48659  21.338  23.704   6.614
47795W        W48660  21.689  25.322   5.760
47796W        W48661  19.619  24.766   5.162
47797W        W48662  20.626  25.299   6.486
47798W        W48663  20.620  22.629   6.250
47799W        W48664  19.827  25.337   6.311
47800W        W48665  21.524  22.291   4.777
47801W        W48666  21.315  23.610   6.078
47802W        W48667  18.298  22.931   6.116
47803W        W48668  21.158  22.726   5.134
47804W        W48669  21.569  22.877   6.911
47805W        W48670  20.454  24.576   5.129
47806W        W48671  19.710  25.167   4.742
47807W        W48672  18.825  22.347   4.000
47808W        W48673  19.929  22.001   5.810
47809W        W48674  18.957  25.121   3.658
47810W        W48675  19.331  23.587   4.409
47811W        W48676  19.985  24.216   6.722
47812W        W48677  19.815  22.574   4.712
47813W        W48678  21.171  22.171   5.140
47814W        W48679  20.891  25.453   5.468
47815W        W48680  20.303  25.101   5.808
47816W        W48681  19.699  24.138   5.769
47817W        W48682  21.469  24.861   5.895
47818W        W48683  19.163  22.364   4.664
47819W        W48684  19.685  24.661   5.624
47820W        W48685  19.168  22.592   3.689
47821W        W48686  19.969  23.201   6.083
47822W        W48687  20.817  22.067   5.953
47823W        W48688  18.237  23.910   5.838
47824W        W48689  19.941  23.728   3.996
47825W        W48690  19.209  22.043   3.766
47826W        W48691  19.947  23.124   4.817
47827W        W48692  20.917  22.100   6.516
47828W        W48693  19.505  24.112   6.625
47829W        W48694  20.309  23.894   6.842
47830W        W48695  20.926  23.924   6.735
47831W        W48696  20.210  22.064   7.240
47832W        W48697  19.432  22.680   5.633
47833W        W48698  18.858  22.636   5.031
47834W        W48699  18.644  25.348   4.707
47835W        W48700  19.976  24.678   6.832
47836W        W48701  19.011  24.163   4.191
47837W        W48702  20.691  23.548   5.412
47838W        W48703  20.971  23.347   5.811
47839W        W48704  20.176  24.021   5.745
47840W        W48705  20.646  24.395   3.877
47841W        W48706  20.318  22.416   5.205
47842W        W48707  21.797  22.694   4.473
47843W        W48708  18.291  25.283   6.504
47844W        W48709  18.708  24.509   6.036
47845W        W48710  18.275  25.355   4.268
47846W        W48711  20.174  22.625   6.074
47847W        W48712  19.537  24.648   3.923
47848W        W48713  21.442  25.030   4.109
47849W        W48714  20.417  23.683   4.123
47850W        W48715  19.260  22.874   4.640
47851W        W48716  20.092  22.784   3.692
47852W        W48717  20.676  24.349   6.870
47853W        W48718  21.029  22.255   4.487
47854W        W48719  18.359  22.103   3.935
47855W        W48720  19.645  24.422   6.225
47856W        W48721  19.444  24.338   5.317
47857W        W48722  19.186  24.290   3.715
47858W        W48723  18.427  24.531   4.483
47859W        W48724  18.931  23.601   6.925
47860W        W48725  19.635  22.161   7.111
47861W        W48726  20.344  22.303   6.467
47862W        W48727  19.539  22.071   4.748
47863W        W48728  20.598  22.148   4.253
47864W        W48729  18.543  22.080   5.830
47865W        W48730  18.591  23.043   5.200
47866W        W48731  21.280  22.151   5.606
47867W        W48732  18.702  22.649   4.420
47868W        W48733  21.273  22.337   6.036
47869W        W48734  21.669  23.540   3.721
47870W        W48735  18.961  22.298   5.540
47871W        W48736  20.075  22.870   6.480
47872W        W48737  18.223  22.560   3.958
47873W        W48738  19.009  23.949   6.519
47874W        W48739  20.367  23.347   5.698
47875W        W48740  20.234  25.426   3.994
47876W        W48741  18.380  23.933   3.691
47877W        W48742  19.115  24.344   6.817
47878W        W48743  18.636  23.511   6.448
47879W        W48744  19.627  23.616   6.242
47880W        W48745  21.395  21.975   6.504
47881W        W48746  21.793  23.585   6.495
47882W        W48747  21.781  23.785   4.181
47883W        W48748  20.644  24.117   4.280
47884W        W48749  21.118  25.417   3.975
47885W        W48750  20.295  23.407   7.117
47886W        W48751  18.625  24.374   7.157
47887W        W48752  21.831  22.296   7.109
47888W        W48753  21.549  23.224   5.730
47889W        W48754  19.857  25.354   7.207
47890W        W48755  19.712  21.983   3.934
47891W        W48756  21.251  24.582   3.877
47892W        W48757  19.020  22.675   6.763
47893W        W48758  19.454  24.669   6.625
47894W        W48759  21.580  22.660   6.423
47895W        W48760  20.791  25.319   4.391
47896W        W48761  21.030  23.938   5.758
47897W        W48762  19.280  22.354   6.425
47898W        W48763  19.749  23.423   7.182
47899W        W48764  19.252  24.602   4.376
47900W        W48765  21.007  24.100   4.640
47901W        W48766  18.775  22.726   6.364
47902W        W48767  20.104  24.788   4.828
47903W        W48768  21.854  23.348   5.009
47904W        W48769  20.076  21.981   6.728
47905W        W48770  20.856  24.686   5.807
47906W        W48771  21.159  25.030   5.515
47907W        W48772  20.378  24.832   3.943
47908W        W48773  18.388  24.724   6.785
47909W        W48774  19.131  22.716   6.023
47910W        W48775  19.101  22.064   5.133
47911W        W48776  20.722  22.906   5.825
47912W        W48777  19.520  24.077   4.025
47913W        W48778  21.518  24.019   5.524
47914W        W48779  18.845  24.777   6.947
47915W        W48780  21.232  25.459   4.744
47916W        W48781  19.331  22.479   5.189
47917W        W48782  19.100  23.972   5.279
47918W        W48783  19.413  25.383   6.029
47919W        W48784  21.480  25.479   7.061
47920W        W48785  20.639  23.667   5.994
47921W        W48786  18.488  23.465   3.909
47922W        W48787  21.622  25.123   4.606
47923W        W48788  21.459  22.447   4.225
47924W        W48789  19.598  21.966   6.628
47925W        W48790  21.304  24.768   5.086
47926W        W48791  21.333  23.324   4.991
47927W        W48792  19.450  22.997   5.207
47928W        W48793  19.695  23.259   6.531
47929W        W48794  20.806  24.412   6.394
47930W        W48795  19.456  22.866   6.506
47931W        W48796  19.435  25.332   5.122
47932W        W48797  18.752  25.291   6.756
47933W        W48798  18.864  24.652   3.886
47934W        W48799  21.381  24.410   4.696
47935W        W48800  18.985  23.202   6.582
47936W        W48801  21.758  23.132   4.063
47937W        W48802  19.503  24.189   4.534
47938W        W48803  20.602  23.571   6.615
47939W        W48804  20.493  23.199   6.159
47940W        W48805  19.053  23.571   6.188
47941W        W48806  21.263  25.459   6.017
47942W        W48807  21.054  22.093   7.011
47943W        W48808  18.718  22.243   6.598
47944W        W48809  19.057  23.266   5.651
47945W        W48810  19.426  23.080   3.773
47946W        W48811  18.229  24.839   6.318
47947W        W48812  19.814  23.548   5.761
47948W        W48813  19.637  22.573   3.866
47949W        W48814  18.772  23.389   4.647
47950W        W48815  18.543  25.241   6.084
47951W        W48816  21.338  23.467   4.192
47952W        W48817  21.433  22.383   6.878
47953W        W48818  20.869  24.592   4.841
47954W        W48819  18.467  23.516   7.018
47955W        W48820  21.433  21.980   4.314
47956W        W48821  20.953  24.455   4.325
47957W        W48822  19.855  23.513   4.410
47958W        W48823  21.042  22.317   3.933
47959W        W48824  21.107  22.924   6.119
47960W        W48825  18.816  23.517   5.326
47961W        W48826  19.110  24.456   4.975
47962W        W48827  20.873  23.076   4.940
47963W        W48828  19.896  22.455   5.636
47964W        W48829  21.858  24.366   6.147
47965W        W48830  21.776  22.353   5.708
47966W        W48831  18.315  25.183   5.084
47967W        W48832  18.824  24.370   4.620
47968W        W48833  18.739  21.987   7.173
47969W        W48834  19.858  24.840   7.275
47970W        W48835  21.613  23.808   5.065
47971W        W48836  20.967  23.985   3.945
47972W        W48837  20.262  25.506   6.157
47973W        W48838  21.119  24.228   7.194
47974W        W48839  19.934  21.938   4.474
47975W        W48840  20.647  22.807   5.333
47976W        W48841  18.333  24.394   5.665
47977W        W48842  19.586  22.356   4.306
47978W        W48843  19.390  23.840   7.155
47979W        W48844  20.384  22.821   4.869
47980W        W48845  20.589  24.231   5.991
47981W        W48846  18.743  24.836   6.426
47982W        W48847  19.334  24.819   7.149
47983W        W48848  19.185  22.616   4.163
47984W        W48849  20.702  22.758   4.488
47985W        W48850  20.660  24.866   6.725
47986W        W48851  19.345  23.458   5.324
47987W        W48852  19.000  25.156   6.189
47988W        W48853  21.745  25.273   3.790
47989W        W48854  18.608  23.945   6.786
47990W        W48855  20.603  24.207   5.474
47991W        W48856  19.039  23.856   4.716
47992W        W48857  19.410  24.863   6.111
47993W        W48858  19.788  22.282   5.152
47994W        W48859  18.399  24.266   4.082
47995W        W48860  19.918  23.217   3.952
47996W        W48861  18.564  23.766   4.971
47997W        W48862  19.854  22.408   6.435
47998W        W48863  21.526  22.117   3.862
47999W        W48864  21.619  23.863   6.961
48000W        W48865  20.273  25.120   7.113
48001W        W48866  21.831  24.214   6.635
48002W        W48867  21.239  25.012   7.246
48003W        W48868  18.978  25.468   5.724
48004W        W48869  21.837  24.090   4.598
48005W        W48870  20.367  23.357   5.111
48006W        W48871  20.134  21.969   5.001
48007W        W48872  19.193  24.953   4.838
48008W        W48873  19.692  22.694   6.063
48009W        W48874  19.392  22.063   5.532
48010W        W48875  18.455  24.885   4.080
48011W        W48876  20.271  24.249   4.798
48012W        W48877  19.146  25.044   6.677
48013W        W48878  18.623  23.867   4.373
48014W        W48879  18.508  22.410   5.372
48015W        W48880  20.056  24.375   5.429
48016W        W48881  18.308  22.229   4.449
48017W        W48882  20.972  23.435   6.376
48018W        W48883  20.849  22.821   3.948
48019W        W48884  21.366  24.493   5.596
48020W        W48885  20.027  24.977   5.427
48021W        W48886  19.439  25.081   4.338
48022W        W48887  20.721  21.984   3.768
48023W        W48888  18.521  25.244   5.509
48024W        W48889  20.718  23.002   7.144
48025W        W48890  18.701  22.532   7.143
48026W        W48891  18.432  23.132   4.476
48027W        W48892  19.123  23.121   4.201
48028W        W48893  20.886  23.448   7.018
48029W        W48894  19.229  23.729   5.727
48030W        W48895  20.703  22.015   4.847
48031W        W48896  19.834  25.446   5.350
48032W        W48897  21.048  24.908   6.287
48033W        W48898  20.632  25.057   5.398
48034W        W48899  20.651  24.037   4.992
48035W        W48900  20.113  22.262   4.063
48036W        W48901  21.794  21.890   4.785
48037W        W48902  19.482  23.525   3.948
48038W        W48903  21.648  22.862   4.938
48039W        W48904  20.340  24.032   3.815
48040W        W48905  21.276  24.232   6.563
48041W        W48906  20.930  24.933   4.030
48042W        W48907  19.545  22.608   6.936
48043W        W48908  19.365  23.192   6.177
48044W        W48909  21.457  24.687   6.454
48045W        W48910  20.557  22.637   6.831
48046W        W48911  18.401  23.108   6.608
48047W        W48912  20.161  23.585   6.334
48048W        W48913  18.518  24.343   4.991
48049W        W48914  18.665  23.640   5.881
48050W        W48915  20.982  23.926   6.231
48051W        W48916  20.754  25.306   7.042
48052W        W48917  20.650  23.045   6.595
48053W        W48918  20.927  25.099   5.000
48054W        W48919  19.929  24.819   6.323
48055W        W48920  19.414  25.174   5.592
48056W        W48921  21.219  24.345   6.011
48057W        W48922  20.269  24.417   7.148
48058W        W48923  18.874  24.370   5.487
48059W        W48924  21.220  24.129   5.132
48060W        W48925  20.861  25.195   5.883
48061W        W48926  18.839  24.924   5.753
48062W        W48927  19.860  22.976   6.963
48063W        W48928  20.311  25.142   4.474
48064W        W48929  19.619  24.397   7.112
48065W        W48930  19.745  24.635   4.489
48066W        W48931  18.966  23.375   3.748
48067W        W48932  18.305  25.461  10.648
48068W        W48933  18.681  24.354  10.171
48069W        W48934  21.386  24.084   7.941
48070W        W48935  21.516  25.169   9.968
48071W        W48936  19.434  25.160   7.494
48072W        W48937  19.517  23.312   8.477
48073W        W48938  19.032  23.160   8.641
48074W        W48939  20.023  23.975   8.075
48075W        W48940  19.698  25.067  10.430
48076W        W48941  18.347  22.628  10.393
48077W        W48942  19.109  21.908  10.195
48078W        W48943  20.803  22.296   9.082
48079W        W48944  20.452  23.167   7.652
48080W        W48945  21.022  22.601  10.743
48081W        W48946  18.388  22.393   9.868
48082W        W48947  18.487  25.012  10.889
48083W        W48948  20.009  24.402   7.621
48084W        W48949  18.441  23.185   9.314
48085W        W48950  19.334  23.076  10.551
48086W        W48951  21.793  22.935   9.050
48087W        W48952  21.557  23.978   9.909
48088W        W48953  19.865  23.311   8.936
48089W        W48954  20.411  24.650   9.305
48090W        W48955  18.911  24.084   9.537
48091W        W48956  18.270  23.612   9.108
48092W        W48957  19.306  23.584  10.300
48093W        W48958  21.577  23.367  10.554
48094W        W48959  19.193  24.811   8.999
48095W        W48960  20.314  24.500  10.133
48096W        W48961  19.534  23.140   9.358
48097W        W48962  19.826  23.924   9.001
48098W        W48963  20.823  24.697  10.849
48099W        W48964  19.902  24.017  10.859
48100W        W48965  19.883  23.733  10.337
48101W        W48966  18.292  23.124  10.859
48102W        W48967  21.124  24.659  10.458
48103W        W48968  18.705  22.241   8.456
48104W        W48969  19.232  24.499   9.455
48105W        W48970  21.695  24.282   8.745
48106W        W48971  21.108  22.682   9.312
48107W        W48972  21.393  22.635   7.407
48108W        W48973  21.858  23.436   9.713
48109W        W48974  19.825  25.143   9.466
48110W        W48975  21.599  24.609   7.904
48111W        W48976  18.728  25.395   7.658
48112W        W48977  19.121  25.441   8.334
48113W        W48978  18.918  22.195   9.760
48114W        W48979  21.541  23.213  10.035
48115W        W48980  20.946  23.635   8.494
48116W        W48981  20.912  23.323   7.521
48117W        W48982  20.120  24.467   9.661
48118W        W48983  19.926  22.797   8.860
48119W        W48984  20.526  24.884   9.854
48120W        W48985  21.397  23.675   8.276
48121W        W48986  20.299  22.333   8.292
48122W        W48987  18.956  25.027   7.975
48123W        W48988  18.327  22.526   8.574
48124W        W48989  21.113  23.133   9.048
48125W        W48990  18.571  24.750   8.963
48126W        W48991  19.912  25.100   7.833
48127W        W48992  21.304  23.126   7.297
48128W        W48993  18.327  24.884   9.461
48129W        W48994  19.118  24.456   9.941
48130W        W48995  19.491  23.816   8.560
48131W        W48996  19.513  22.221   9.653
48132W        W48997  21.742  21.983   8.950
48133W        W48998  18.961  23.855   7.418
48134W        W48999  18.616  22.888   7.597
48135W        W49000  18.678  24.844   8.391
48136W        W49001  19.809  24.327   8.639
48137W        W49002  21.141  25.186  10.353
48138W        W49003  20.067  22.828   8.037
48139W        W49004  21.450  25.226   8.809
48140W        W49005  21.127  23.079  10.407
48141W        W49006  21.840  24.735   8.541
48142W        W49007  20.467  24.027  10.025
48143W        W49008  18.233  23.578   8.231
48144W        W49009  19.344  23.993   9.804
48145W        W49010  20.548  23.257   8.182
48146W        W49011  20.425  23.747   8.286
48147W        W49012  18.768  23.167   9.760
48148W        W49013  18.753  23.043  10.682
48149W        W49014  18.643  21.960   8.841
48150W        W49015  20.411  22.307   9.402
48151W        W49016  20.059  22.492  10.565
48152W        W49017  20.414  22.641   7.743
48153W        W49018  21.597  25.034  10.497
48154W        W49019  20.564  22.115  10.536
48155W        W49020  21.583  24.416  10.658
48156W        W49021  21.013  22.583  10.254
48157W        W49022  20.813  22.521   8.524
48158W        W49023  21.206  23.655  10.928
48159W        W49024  18.946  25.231   8.914
48160W        W49025  19.604  22.948   7.900
48161W        W49026  19.173  22.232  10.564
48162W        W49027  21.225  22.716   8.245
48163W        W49028  21.592  23.198   8.190
48164W        W49029  19.335  25.415  10.661
48165W        W49030  19.261  21.951   7.896
48166W        W49031  21.582  22.485   8.931
48167W        W49032  21.732  24.734   7.376
48168W        W49033  18.639  23.937   9.078
48169W        W49034  20.556  22.524   7.308
48170W        W49035  21.690  24.856   9.028
48171W        W49036  21.729  22.050   9.778
48172W        W49037  20.174  23.262  10.332
48173W        W49038  20.267  24.601   8.035
48174W        W49039  20.667  23.895  10.775
48175W        W49040  20.341  21.872   9.084
48176W        W49041  18.953  22.775   9.147
48177W        W49042  18.507  23.975   9.921
48178W        W49043  20.366  25.168   8.627
48179W        W49044  21.560  22.765   9.499
48180W        W49045  20.197  25.112  10.266
48181W        W49046  21.540  24.171   7.471
48182W        W49047  19.975  23.654   8.532
48183W        W49048  21.827  22.165  10.273
48184W        W49049  19.976  24.000   9.867
48185W        W49050  20.193  22.886   9.312
48186W        W49051  21.045  23.184   8.150
48187W        W49052  21.332  22.917   7.792
48188W        W49053  21.141  24.957   8.181
48189W        W49054  20.975  24.560   8.977
48190W        W49055  20.871  23.639   7.955
48191W        W49056  20.304  23.849   8.941
48192W        W49057  21.185  23.637   9.008
48193W        W49058  18.560  22.652   9.432
48194W        W49059  21.338  23.704  10.259
48195W        W49060  21.689  25.322   9.405
48196W        W49061  19.619  24.766   8.807
48197W        W49062  20.626  25.299  10.131
48198W        W49063  20.620  22.629   9.895
48199W        W49064  19.827  25.337   9.956
48200W        W49065  21.524  22.291   8.422
48201W        W49066  21.315  23.610   9.723
48202W        W49067  18.298  22.931   9.761
48203W        W49068  21.158  22.726   8.779
48204W        W49069  21.569  22.877  10.556
48205W        W49070  20.454  24.576   8.774
48206W        W49071  19.710  25.167   8.387
48207W        W49072  18.825  22.347   7.645
48208W        W49073  19.929  22.001   9.455
48209W        W49074  18.957  25.121   7.303
48210W        W49075  19.331  23.587   8.054
48211W        W49076  19.985  24.216  10.367
48212W        W49077  19.815  22.574   8.357
48213W        W49078  21.171  22.171   8.785
48214W        W49079  20.891  25.453   9.113
48215W        W49080  20.303  25.101   9.453
48216W        W49081  19.699  24.138   9.414
48217W        W49082  21.469  24.861   9.540
48218W        W49083  19.163  22.364   8.309
48219W        W49084  19.685  24.661   9.269
48220W        W49085  19.168  22.592   7.334
48221W        W49086  19.969  23.201   9.728
48222W        W49087  20.817  22.067   9.598
48223W        W49088  18.237  23.910   9.483
48224W        W49089  19.941  23.728   7.641
48225W        W49090  19.209  22.043   7.411
48226W        W49091  19.947  23.124   8.462
48227W        W49092  20.917  22.100  10.161
48228W        W49093  19.505  24.112  10.270
48229W        W49094  20.309  23.894  10.487
48230W        W49095  20.926  23.924  10.380
48231W        W49096  20.210  22.064  10.885
48232W        W49097  19.432  22.680   9.278
48233W        W49098  18.858  22.636   8.676
48234W        W49099  18.644  25.348   8.352
48235W        W49100  19.976  24.678  10.477
48236W        W49101  19.011  24.163   7.836
48237W        W49102  20.691  23.548   9.057
48238W        W49103  20.971  23.347   9.456
48239W        W49104  20.176  24.021   9.390
48240W        W49105  20.646  24.395   7.522
48241W        W49106  20.318  22.416   8.850
48242W        W49107  21.797  22.694   8.118
48243W        W49108  18.291  25.283  10.149
48244W        W49109  18.708  24.509   9.681
48245W        W49110  18.275  25.355   7.913
48246W        W49111  20.174  22.625   9.719
48247W        W49112  19.537  24.648   7.568
48248W        W49113  21.442  25.030   7.754
48249W        W49114  20.417  23.683   7.768
48250W        W49115  19.260  22.874   8.285
48251W        W49116  20.092  22.784   7.337
48252W        W49117  20.676  24.349  10.515
48253W        W49118  21.029  22.255   8.132
48254W        W49119  18.359  22.103   7.580
48255W        W49120  19.645  24.422   9.870
48256W        W49121  19.444  24.338   8.962
48257W        W49122  19.186  24.290   7.360
48258W        W49123  18.427  24.531   8.128
48259W        W49124  18.931  23.601  10.570
48260W        W49125  19.635  22.161  10.756
48261W        W49126  20.344  22.303  10.112
48262W        W49127  19.539  22.071   8.393
48263W        W49128  20.598  22.148   7.898
48264W        W49129  18.543  22.080   9.475
48265W        W49130  18.591  23.043   8.845
48266W        W49131  21.280  22.151   9.251
48267W        W49132  18.702  22.649   8.065
48268W        W49133  21.273  22.337   9.681
48269W        W49134  21.669  23.540   7.366
48270W        W49135  18.961  22.298   9.185
48271W        W49136  20.075  22.870  10.125
48272W        W49137  18.223  22.560   7.603
48273W        W49138  19.009  23.949  10.164
48274W        W49139  20.367  23.347   9.343
48275W        W49140  20.234  25.426   7.639
48276W        W49141  18.380  23.933   7.336
48277W        W49142  19.115  24.344  10.462
48278W        W49143  18.636  23.511  10.093
48279W        W49144  19.627  23.616   9.887
48280W        W49145  21.395  21.975  10.149
48281W        W49146  21.793  23.585  10.140
48282W        W49147  21.781  23.785   7.826
48283W        W49148  20.644  24.117   7.925
48284W        W49149  21.118  25.417   7.620
48285W        W49150  20.295  23.407  10.762
48286W        W49151  18.625  24.374  10.802
48287W        W49152  21.831  22.296  10.754
48288W        W49153  21.549  23.224   9.375
48289W        W49154  19.857  25.354  10.852
48290W        W49155  19.712  21.983   7.579
48291W        W49156  21.251  24.582   7.522
48292W        W49157  19.020  22.675  10.408
48293W        W49158  19.454  24.669  10.270
48294W        W49159  21.580  22.660  10.068
48295W        W49160  20.791  25.319   8.036
48296W        W49161  21.030  23.938   9.403
48297W        W49162  19.280  22.354  10.070
48298W        W49163  19.749  23.423  10.827
48299W        W49164  19.252  24.602   8.021
48300W        W49165  21.007  24.100   8.285
48301W        W49166  18.775  22.726  10.009
48302W        W49167  20.104  24.788   8.473
48303W        W49168  21.854  23.348   8.654
48304W        W49169  20.076  21.981  10.373
48305W        W49170  20.856  24.686   9.452
48306W        W49171  21.159  25.030   9.160
48307W        W49172  20.378  24.832   7.588
48308W        W49173  18.388  24.724  10.430
48309W        W49174  19.131  22.716   9.668
48310W        W49175  19.101  22.064   8.778
48311W        W49176  20.722  22.906   9.470
48312W        W49177  19.520  24.077   7.670
48313W        W49178  21.518  24.019   9.169
48314W        W49179  18.845  24.777  10.592
48315W        W49180  21.232  25.459   8.389
48316W        W49181  19.331  22.479   8.834
48317W        W49182  19.100  23.972   8.924
48318W        W49183  19.413  25.383   9.674
48319W        W49184  21.480  25.479  10.706
48320W        W49185  20.639  23.667   9.639
48321W        W49186  18.488  23.465   7.554
48322W        W49187  21.622  25.123   8.251
48323W        W49188  21.459  22.447   7.870
48324W        W49189  19.598  21.966  10.273
48325W        W49190  21.304  24.768   8.731
48326W        W49191  21.333  23.324   8.636
48327W        W49192  19.450  22.997   8.852
48328W        W49193  19.695  23.259  10.176
48329W        W49194  20.806  24.412  10.039
48330W        W49195  19.456  22.866  10.151
48331W        W49196  19.435  25.332   8.767
48332W        W49197  18.752  25.291  10.401
48333W        W49198  18.864  24.652   7.531
48334W        W49199  21.381  24.410   8.341
48335W        W49200  18.985  23.202  10.227
48336W        W49201  21.758  23.132   7.708
48337W        W49202  19.503  24.189   8.179
48338W        W49203  20.602  23.571  10.260
48339W        W49204  20.493  23.199   9.804
48340W        W49205  19.053  23.571   9.833
48341W        W49206  21.263  25.459   9.662
48342W        W49207  21.054  22.093  10.656
48343W        W49208  18.718  22.243  10.243
48344W        W49209  19.057  23.266   9.296
48345W        W49210  19.426  23.080   7.418
48346W        W49211  18.229  24.839   9.963
48347W        W49212  19.814  23.548   9.406
48348W        W49213  19.637  22.573   7.511
48349W        W49214  18.772  23.389   8.292
48350W        W49215  18.543  25.241   9.729
48351W        W49216  21.338  23.467   7.837
48352W        W49217  21.433  22.383  10.523
48353W        W49218  20.869  24.592   8.486
48354W        W49219  18.467  23.516  10.663
48355W        W49220  21.433  21.980   7.959
48356W        W49221  20.953  24.455   7.970
48357W        W49222  19.855  23.513   8.055
48358W        W49223  21.042  22.317   7.578
48359W        W49224  21.107  22.924   9.764
48360W        W49225  18.816  23.517   8.971
48361W        W49226  19.110  24.456   8.620
48362W        W49227  20.873  23.076   8.585
48363W        W49228  19.896  22.455   9.281
48364W        W49229  21.858  24.366   9.792
48365W        W49230  21.776  22.353   9.353
48366W        W49231  18.315  25.183   8.729
48367W        W49232  18.824  24.370   8.265
48368W        W49233  18.739  21.987  10.818
48369W        W49234  19.858  24.840  10.920
48370W        W49235  21.613  23.808   8.710
48371W        W49236  20.967  23.985   7.590
48372W        W49237  20.262  25.506   9.802
48373W        W49238  21.119  24.228  10.839
48374W        W49239  19.934  21.938   8.119
48375W        W49240  20.647  22.807   8.978
48376W        W49241  18.333  24.394   9.310
48377W        W49242  19.586  22.356   7.951
48378W        W49243  19.390  23.840  10.800
48379W        W49244  20.384  22.821   8.514
48380W        W49245  20.589  24.231   9.636
48381W        W49246  18.743  24.836  10.071
48382W        W49247  19.334  24.819  10.794
48383W        W49248  19.185  22.616   7.808
48384W        W49249  20.702  22.758   8.133
48385W        W49250  20.660  24.866  10.370
48386W        W49251  19.345  23.458   8.969
48387W        W49252  19.000  25.156   9.834
48388W        W49253  21.745  25.273   7.435
48389W        W49254  18.608  23.945  10.431
48390W        W49255  20.603  24.207   9.119
48391W        W49256  19.039  23.856   8.361
48392W        W49257  19.410  24.863   9.756
48393W        W49258  19.788  22.282   8.797
48394W        W49259  18.399  24.266   7.727
48395W        W49260  19.918  23.217   7.597
48396W        W49261  18.564  23.766   8.616
48397W        W49262  19.854  22.408  10.080
48398W        W49263  21.526  22.117   7.507
48399W        W49264  21.619  23.863  10.606
48400W        W49265  20.273  25.120  10.758
48401W        W49266  21.831  24.214  10.280
48402W        W49267  21.239  25.012  10.891
48403W        W49268  18.978  25.468   9.369
48404W        W49269  21.837  24.090   8.243
48405W        W49270  20.367  23.357   8.756
48406W        W49271  20.134  21.969   8.646
48407W        W49272  19.193  24.953   8.483
48408W        W49273  19.692  22.694   9.708
48409W        W49274  19.392  22.063   9.177
48410W        W49275  18.455  24.885   7.725
48411W        W49276  20.271  24.249   8.443
48412W        W49277  19.146  25.044  10.322
48413W        W49278  18.623  23.867   8.018
48414W        W49279  18.508  22.410   9.017
48415W        W49280  20.056  24.375   9.074
48416W        W49281  18.308  22.229   8.094
48417W        W49282  20.972  23.435  10.021
48418W        W49283  20.849  22.821   7.593
48419W        W49284  21.366  24.493   9.241
48420W        W49285  20.027  24.977   9.072
48421W        W49286  19.439  25.081   7.983
48422W        W49287  20.721  21.984   7.413
48423W        W49288  18.521  25.244   9.154
48424W        W49289  20.718  23.002  10.789
48425W        W49290  18.701  22.532  10.788
48426W        W49291  18.432  23.132   8.121
48427W        W49292  19.123  23.121   7.846
48428W        W49293  20.886  23.448  10.663
48429W        W49294  19.229  23.729   9.372
48430W        W49295  20.703  22.015   8.492
48431W        W49296  19.834  25.446   8.995
48432W        W49297  21.048  24.908   9.932
48433W        W49298  20.632  25.057   9.043
48434W        W49299  20.651  24.037   8.637
48435W        W49300  20.113  22.262   7.708
48436W        W49301  21.794  21.890   8.430
48437W        W49302  19.482  23.525   7.593
48438W        W49303  21.648  22.862   8.583
48439W        W49304  20.340  24.032   7.460
48440W        W49305  21.276  24.232  10.208
48441W        W49306  20.930  24.933   7.675
48442W        W49307  19.545  22.608  10.581
48443W        W49308  19.365  23.192   9.822
48444W        W49309  21.457  24.687  10.099
48445W        W49310  20.557  22.637  10.476
48446W        W49311  18.401  23.108  10.253
48447W        W49312  20.161  23.585   9.979
48448W        W49313  18.518  24.343   8.636
48449W        W49314  18.665  23.640   9.526
48450W        W49315  20.982  23.926   9.876
48451W        W49316  20.754  25.306  10.687
48452W        W49317  20.650  23.045  10.240
48453W        W49318  20.927  25.099   8.645
48454W        W49319  19.929  24.819   9.968
48455W        W49320  19.414  25.174   9.237
48456W        W49321  21.219  24.345   9.656
48457W        W49322  20.269  24.417  10.793
48458W        W49323  18.874  24.370   9.132
48459W        W49324  21.220  24.129   8.777
48460W        W49325  20.861  25.195   9.528
48461W        W49326  18.839  24.924   9.398
48462W        W49327  19.860  22.976  10.608
48463W        W49328  20.311  25.142   8.119
48464W        W49329  19.619  24.397  10.757
48465W        W49330  19.745  24.635   8.134
48466W        W49331  18.966  23.375   7.393
48467W        W49332  18.305  25.461  14.292
48468W        W49333  18.681  24.354  13.815
48469W        W49334  21.386  24.084  11.585
48470W        W49335  21.516  25.169  13.612
48471W        W49336  19.434  25.160  11.138
48472W        W49337  19.517  23.312  12.121
48473W        W49338  19.032  23.160  12.285
48474W        W49339  20.023  23.975  11.719
48475W        W49340  19.698  25.067  14.074
48476W        W49341  18.347  22.628  14.037
48477W        W49342  19.109  21.908  13.839
48478W        W49343  20.803  22.296  12.726
48479W        W49344  20.452  23.167  11.296
48480W        W49345  21.022  22.601  14.387
48481W        W49346  18.388  22.393  13.512
48482W        W49347  18.487  25.012  14.533
48483W        W49348  20.009  24.402  11.265
48484W        W49349  18.441  23.185  12.958
48485W        W49350  19.334  23.076  14.195
48486W        W49351  21.793  22.935  12.694
48487W        W49352  21.557  23.978  13.553
48488W        W49353  19.865  23.311  12.580
48489W        W49354  20.411  24.650  12.949
48490W        W49355  18.911  24.084  13.181
48491W        W49356  18.270  23.612  12.752
48492W        W49357  19.306  23.584  13.944
48493W        W49358  21.577  23.367  14.198
48494W        W49359  19.193  24.811  12.643
48495W        W49360  20.314  24.500  13.777
48496W        W49361  19.534  23.140  13.002
48497W        W49362  19.826  23.924  12.645
48498W        W49363  20.823  24.697  14.493
48499W        W49364  19.902  24.017  14.503
48500W        W49365  19.883  23.733  13.981
48501W        W49366  18.292  23.124  14.503
48502W        W49367  21.124  24.659  14.102
48503W        W49368  18.705  22.241  12.100
48504W        W49369  19.232  24.499  13.099
48505W        W49370  21.695  24.282  12.389
48506W        W49371  21.108  22.682  12.956
48507W        W49372  21.393  22.635  11.051
48508W        W49373  21.858  23.436  13.357
48509W        W49374  19.825  25.143  13.110
48510W        W49375  21.599  24.609  11.548
48511W        W49376  18.728  25.395  11.302
48512W        W49377  19.121  25.441  11.978
48513W        W49378  18.918  22.195  13.404
48514W        W49379  21.541  23.213  13.679
48515W        W49380  20.946  23.635  12.138
48516W        W49381  20.912  23.323  11.165
48517W        W49382  20.120  24.467  13.305
48518W        W49383  19.926  22.797  12.504
48519W        W49384  20.526  24.884  13.498
48520W        W49385  21.397  23.675  11.920
48521W        W49386  20.299  22.333  11.936
48522W        W49387  18.956  25.027  11.619
48523W        W49388  18.327  22.526  12.218
48524W        W49389  21.113  23.133  12.692
48525W        W49390  18.571  24.750  12.607
48526W        W49391  19.912  25.100  11.477
48527W        W49392  21.304  23.126  10.941
48528W        W49393  18.327  24.884  13.105
48529W        W49394  19.118  24.456  13.585
48530W        W49395  19.491  23.816  12.204
48531W        W49396  19.513  22.221  13.297
48532W        W49397  21.742  21.983  12.594
48533W        W49398  18.961  23.855  11.062
48534W        W49399  18.616  22.888  11.241
48535W        W49400  18.678  24.844  12.035
48536W        W49401  19.809  24.327  12.283
48537W        W49402  21.141  25.186  13.997
48538W        W49403  20.067  22.828  11.681
48539W        W49404  21.450  25.226  12.453
48540W        W49405  21.127  23.079  14.051
48541W        W49406  21.840  24.735  12.185
48542W        W49407  20.467  24.027  13.669
48543W        W49408  18.233  23.578  11.875
48544W        W49409  19.344  23.993  13.448
48545W        W49410  20.548  23.257  11.826
48546W        W49411  20.425  23.747  11.930
48547W        W49412  18.768  23.167  13.404
48548W        W49413  18.753  23.043  14.326
48549W        W49414  18.643  21.960  12.485
48550W        W49415  20.411  22.307  13.046
48551W        W49416  20.059  22.492  14.209
48552W        W49417  20.414  22.641  11.387
48553W        W49418  21.597  25.034  14.141
48554W        W49419  20.564  22.115  14.180
48555W        W49420  21.583  24.416  14.302
48556W        W49421  21.013  22.583  13.898
48557W        W49422  20.813  22.521  12.168
48558W        W49423  21.206  23.655  14.572
48559W        W49424  18.946  25.231  12.558
48560W        W49425  19.604  22.948  11.544
48561W        W49426  19.173  22.232  14.208
48562W        W49427  21.225  22.716  11.889
48563W        W49428  21.592  23.198  11.834
48564W        W49429  19.335  25.415  14.305
48565W        W49430  19.261  21.951  11.540
48566W        W49431  21.582  22.485  12.575
48567W        W49432  21.732  24.734  11.020
48568W        W49433  18.639  23.937  12.722
48569W        W49434  20.556  22.524  10.952
48570W        W49435  21.690  24.856  12.672
48571W        W49436  21.729  22.050  13.422
48572W        W49437  20.174  23.262  13.976
48573W        W49438  20.267  24.601  11.679
48574W        W49439  20.667  23.895  14.419
48575W        W49440  20.341  21.872  12.728
48576W        W49441  18.953  22.775  12.791
48577W        W49442  18.507  23.975  13.565
48578W        W49443  20.366  25.168  12.271
48579W        W49444  21.560  22.765  13.143
48580W        W49445  20.197  25.112  13.910
48581W        W49446  21.540  24.171  11.115
48582W        W49447  19.975  23.654  12.176
48583W        W49448  21.827  22.165  13.917
48584W        W49449  19.976  24.000  13.511
48585W        W49450  20.193  22.886  12.956
48586W        W49451  21.045  23.184  11.794
48587W        W49452  21.332  22.917  11.436
48588W        W49453  21.141  24.957  11.825
48589W        W49454  20.975  24.560  12.621
48590W        W49455  20.871  23.639  11.599
48591W        W49456  20.304  23.849  12.585
48592W        W49457  21.185  23.637  12.652
48593W        W49458  18.560  22.652  13.076
48594W        W49459  21.338  23.704  13.903
48595W        W49460  21.689  25.322  13.049
48596W        W49461  19.619  24.766  12.451
48597W        W49462  20.626  25.299  13.775
48598W        W49463  20.620  22.629  13.539
48599W        W49464  19.827  25.337  13.600
48600W        W49465  21.524  22.291  12.066
48601W        W49466  21.315  23.610  13.367
48602W        W49467  18.298  22.931  13.405
48603W        W49468  21.158  22.726  12.423
48604W        W49469  21.569  22.877  14.200
48605W        W49470  20.454  24.576  12.418
48606W        W49471  19.710  25.167  12.031
48607W        W49472  18.825  22.347  11.289
48608W        W49473  19.929  22.001  13.099
48609W        W49474  18.957  25.121  10.947
48610W        W49475  19.331  23.587  11.698
48611W        W49476  19.985  24.216  14.011
48612W        W49477  19.815  22.574  12.001
48613W        W49478  21.171  22.171  12.429
48614W        W49479  20.891  25.453  12.757
48615W        W49480  20.303  25.101  13.097
48616W        W49481  19.699  24.138  13.058
48617W        W49482  21.469  24.861  13.184
48618W        W49483  19.163  22.364  11.953
48619W        W49484  19.685  24.661  12.913
48620W        W49485  19.168  22.592  10.978
48621W        W49486  19.969  23.201  13.372
48622W        W49487  20.817  22.067  13.242
48623W        W49488  18.237  23.910  13.127
48624W        W49489  19.941  23.728  11.285
48625W        W49490  19.209  22.043  11.055
48626W        W49491  19.947  23.124  12.106
48627W        W49492  20.917  22.100  13.805
48628W        W49493  19.505  24.112  13.914
48629W        W49494  20.309  23.894  14.131
48630W        W49495  20.926  23.924  14.024
48631W        W49496  20.210  22.064  14.529
48632W        W49497  19.432  22.680  12.922
48633W        W49498  18.858  22.636  12.320
48634W        W49499  18.644  25.348  11.996
48635W        W49500  19.976  24.678  14.121
48636W        W49501  19.011  24.163  11.480
48637W        W49502  20.691  23.548  12.701
48638W        W49503  20.971  23.347  13.100
48639W        W49504  20.176  24.021  13.034
48640W        W49505  20.646  24.395  11.166
48641W        W49506  20.318  22.416  12.494
48642W        W49507  21.797  22.694  11.762
48643W        W49508  18.291  25.283  13.793
48644W        W49509  18.708  24.509  13.325
48645W        W49510  18.275  25.355  11.557
48646W        W49511  20.174  22.625  13.363
48647W        W49512  19.537  24.648  11.212
48648W        W49513  21.442  25.030  11.398
48649W        W49514  20.417  23.683  11.412
48650W        W49515  19.260  22.874  11.929
48651W        W49516  20.092  22.784  10.981
48652W        W49517  20.676  24.349  14.159
48653W        W49518  21.029  22.255  11.776
48654W        W49519  18.359  22.103  11.224
48655W        W49520  19.645  24.422  13.514
48656W        W49521  19.444  24.338  12.606
48657W        W49522  19.186  24.290  11.004
48658W        W49523  18.427  24.531  11.772
48659W        W49524  18.931  23.601  14.214
48660W        W49525  19.635  22.161  14.400
48661W        W49526  20.344  22.303  13.756
48662W        W49527  19.539  22.071  12.037
48663W        W49528  20.598  22.148  11.542
48664W        W49529  18.543  22.080  13.119
48665W        W49530  18.591  23.043  12.489
48666W        W49531  21.280  22.151  12.895
48667W        W49532  18.702  22.649  11.709
48668W        W49533  21.273  22.337  13.325
48669W        W49534  21.669  23.540  11.010
48670W        W49535  18.961  22.298  12.829
48671W        W49536  20.075  22.870  13.769
48672W        W49537  18.223  22.560  11.247
48673W        W49538  19.009  23.949  13.808
48674W        W49539  20.367  23.347  12.987
48675W        W49540  20.234  25.426  11.283
48676W        W49541  18.380  23.933  10.980
48677W        W49542  19.115  24.344  14.106
48678W        W49543  18.636  23.511  13.737
48679W        W49544  19.627  23.616  13.531
48680W        W49545  21.395  21.975  13.793
48681W        W49546  21.793  23.585  13.784
48682W        W49547  21.781  23.785  11.470
48683W        W49548  20.644  24.117  11.569
48684W        W49549  21.118  25.417  11.264
48685W        W49550  20.295  23.407  14.406
48686W        W49551  18.625  24.374  14.446
48687W        W49552  21.831  22.296  14.398
48688W        W49553  21.549  23.224  13.019
48689W        W49554  19.857  25.354  14.496
48690W        W49555  19.712  21.983  11.223
48691W        W49556  21.251  24.582  11.166
48692W        W49557  19.020  22.675  14.052
48693W        W49558  19.454  24.669  13.914
48694W        W49559  21.580  22.660  13.712
48695W        W49560  20.791  25.319  11.680
48696W        W49561  21.030  23.938  13.047
48697W        W49562  19.280  22.354  13.714
48698W        W49563  19.749  23.423  14.471
48699W        W49564  19.252  24.602  11.665
48700W        W49565  21.007  24.100  11.929
48701W        W49566  18.775  22.726  13.653
48702W        W49567  21.854  23.348  12.298
48703W        W49568  20.076  21.981  14.017
48704W        W49569  20.856  24.686  13.096
48705W        W49570  21.159  25.030  12.804
48706W        W49571  20.378  24.832  11.232
48707W        W49572  18.388  24.724  14.074
48708W        W49573  19.131  22.716  13.312
48709W        W49574  19.101  22.064  12.422
48710W        W49575  20.722  22.906  13.114
48711W        W49576  19.520  24.077  11.314
48712W        W49577  21.518  24.019  12.813
48713W        W49578  18.845  24.777  14.236
48714W        W49579  21.232  25.459  12.033
48715W        W49580  19.331  22.479  12.478
48716W        W49581  19.100  23.972  12.568
48717W        W49582  19.413  25.383  13.318
48718W        W49583  21.480  25.479  14.350
48719W        W49584  20.639  23.667  13.283
48720W        W49585  18.488  23.465  11.198
48721W        W49586  21.622  25.123  11.895
48722W        W49587  21.459  22.447  11.514
48723W        W49588  19.598  21.966  13.917
48724W        W49589  21.304  24.768  12.375
48725W        W49590  21.333  23.324  12.280
48726W        W49591  19.450  22.997  12.496
48727W        W49592  19.695  23.259  13.820
48728W        W49593  20.806  24.412  13.683
48729W        W49594  19.456  22.866  13.795
48730W        W49595  19.435  25.332  12.411
48731W        W49596  18.752  25.291  14.045
48732W        W49597  18.864  24.652  11.175
48733W        W49598  21.381  24.410  11.985
48734W        W49599  18.985  23.202  13.871
48735W        W49600  21.758  23.132  11.352
48736W        W49601  19.503  24.189  11.823
48737W        W49602  20.602  23.571  13.904
48738W        W49603  20.493  23.199  13.448
48739W        W49604  19.053  23.571  13.477
48740W        W49605  21.263  25.459  13.306
48741W        W49606  21.054  22.093  14.300
48742W        W49607  18.718  22.243  13.887
48743W        W49608  19.057  23.266  12.940
48744W        W49609  19.426  23.080  11.062
48745W        W49610  18.229  24.839  13.607
48746W        W49611  19.814  23.548  13.050
48747W        W49612  19.637  22.573  11.155
48748W        W49613  18.772  23.389  11.936
48749W        W49614  18.543  25.241  13.373
48750W        W49615  21.338  23.467  11.481
48751W        W49616  21.433  22.383  14.167
48752W        W49617  20.869  24.592  12.130
48753W        W49618  18.467  23.516  14.307
48754W        W49619  21.433  21.980  11.603
48755W        W49620  20.953  24.455  11.614
48756W        W49621  19.855  23.513  11.699
48757W        W49622  21.042  22.317  11.222
48758W        W49623  21.107  22.924  13.408
48759W        W49624  18.816  23.517  12.615
48760W        W49625  19.110  24.456  12.264
48761W        W49626  20.873  23.076  12.229
48762W        W49627  19.896  22.455  12.925
48763W        W49628  21.858  24.366  13.436
48764W        W49629  21.776  22.353  12.997
48765W        W49630  18.315  25.183  12.373
48766W        W49631  18.824  24.370  11.909
48767W        W49632  18.739  21.987  14.462
48768W        W49633  19.858  24.840  14.564
48769W        W49634  21.613  23.808  12.354
48770W        W49635  20.967  23.985  11.234
48771W        W49636  20.262  25.506  13.446
48772W        W49637  21.119  24.228  14.483
48773W        W49638  19.934  21.938  11.763
48774W        W49639  20.647  22.807  12.622
48775W        W49640  18.333  24.394  12.954
48776W        W49641  19.586  22.356  11.595
48777W        W49642  19.390  23.840  14.444
48778W        W49643  20.384  22.821  12.158
48779W        W49644  20.589  24.231  13.280
48780W        W49645  18.743  24.836  13.715
48781W        W49646  19.334  24.819  14.438
48782W        W49647  19.185  22.616  11.452
48783W        W49648  20.702  22.758  11.777
48784W        W49649  20.660  24.866  14.014
48785W        W49650  19.345  23.458  12.613
48786W        W49651  19.000  25.156  13.478
48787W        W49652  21.745  25.273  11.079
48788W        W49653  18.608  23.945  14.075
48789W        W49654  20.603  24.207  12.763
48790W        W49655  19.039  23.856  12.005
48791W        W49656  19.410  24.863  13.400
48792W        W49657  19.788  22.282  12.441
48793W        W49658  18.399  24.266  11.371
48794W        W49659  19.918  23.217  11.241
48795W        W49660  18.564  23.766  12.260
48796W        W49661  19.854  22.408  13.724
48797W        W49662  21.526  22.117  11.151
48798W        W49663  21.619  23.863  14.250
48799W        W49664  20.273  25.120  14.402
48800W        W49665  21.831  24.214  13.924
48801W        W49666  21.239  25.012  14.535
48802W        W49667  18.978  25.468  13.013
48803W        W49668  21.837  24.090  11.887
48804W        W49669  20.367  23.357  12.400
48805W        W49670  20.134  21.969  12.290
48806W        W49671  19.193  24.953  12.127
48807W        W49672  19.692  22.694  13.352
48808W        W49673  19.392  22.063  12.821
48809W        W49674  18.455  24.885  11.369
48810W        W49675  20.271  24.249  12.087
48811W        W49676  19.146  25.044  13.966
48812W        W49677  18.623  23.867  11.662
48813W        W49678  18.508  22.410  12.661
48814W        W49679  20.056  24.375  12.718
48815W        W49680  18.308  22.229  11.738
48816W        W49681  20.972  23.435  13.665
48817W        W49682  20.849  22.821  11.237
48818W        W49683  21.366  24.493  12.885
48819W        W49684  20.027  24.977  12.716
48820W        W49685  19.439  25.081  11.627
48821W        W49686  20.721  21.984  11.057
48822W        W49687  18.521  25.244  12.798
48823W        W49688  20.718  23.002  14.433
48824W        W49689  18.701  22.532  14.432
48825W        W49690  18.432  23.132  11.765
48826W        W49691  19.123  23.121  11.490
48827W        W49692  20.886  23.448  14.307
48828W        W49693  19.229  23.729  13.016
48829W        W49694  20.703  22.015  12.136
48830W        W49695  19.834  25.446  12.639
48831W        W49696  21.048  24.908  13.576
48832W        W49697  20.632  25.057  12.687
48833W        W49698  20.651  24.037  12.281
48834W        W49699  20.113  22.262  11.352
48835W        W49700  21.794  21.890  12.074
48836W        W49701  19.482  23.525  11.237
48837W        W49702  21.648  22.862  12.227
48838W        W49703  20.340  24.032  11.104
48839W        W49704  21.276  24.232  13.852
48840W        W49705  20.930  24.933  11.319
48841W        W49706  19.545  22.608  14.225
48842W        W49707  19.365  23.192  13.466
48843W        W49708  21.457  24.687  13.743
48844W        W49709  20.557  22.637  14.120
48845W        W49710  18.401  23.108  13.897
48846W        W49711  20.161  23.585  13.623
48847W        W49712  18.518  24.343  12.280
48848W        W49713  18.665  23.640  13.170
48849W        W49714  20.982  23.926  13.520
48850W        W49715  20.754  25.306  14.331
48851W        W49716  20.650  23.045  13.884
48852W        W49717  20.927  25.099  12.289
48853W        W49718  19.929  24.819  13.612
48854W        W49719  19.414  25.174  12.881
48855W        W49720  21.219  24.345  13.300
48856W        W49721  20.269  24.417  14.437
48857W        W49722  18.874  24.370  12.776
48858W        W49723  21.220  24.129  12.421
48859W        W49724  20.861  25.195  13.172
48860W        W49725  18.839  24.924  13.042
48861W        W49726  19.860  22.976  14.252
48862W        W49727  20.311  25.142  11.763
48863W        W49728  19.619  24.397  14.401
48864W        W49729  19.745  24.635  11.778
48865W        W49730  18.966  23.375  11.037
48866W        W49731  18.305  25.461  17.936
48867W        W49732  18.681  24.354  17.459
48868W        W49733  21.386  24.084  15.229
48869W        W49734  21.516  25.169  17.256
48870W        W49735  19.434  25.160  14.782
48871W        W49736  19.517  23.312  15.765
48872W        W49737  19.032  23.160  15.929
48873W        W49738  20.023  23.975  15.363
48874W        W49739  19.698  25.067  17.718
48875W        W49740  18.347  22.628  17.681
48876W        W49741  19.109  21.908  17.483
48877W        W49742  20.803  22.296  16.370
48878W        W49743  20.452  23.167  14.940
48879W        W49744  21.022  22.601  18.031
48880W        W49745  18.388  22.393  17.156
48881W        W49746  18.487  25.012  18.177
48882W        W49747  20.009  24.402  14.909
48883W        W49748  18.441  23.185  16.602
48884W        W49749  19.334  23.076  17.839
48885W        W49750  21.793  22.935  16.338
48886W        W49751  21.557  23.978  17.197
48887W        W49752  19.865  23.311  16.224
48888W        W49753  20.411  24.650  16.593
48889W        W49754  18.911  24.084  16.825
48890W        W49755  18.270  23.612  16.396
48891W        W49756  19.306  23.584  17.588
48892W        W49757  21.577  23.367  17.842
48893W        W49758  19.193  24.811  16.287
48894W        W49759  20.314  24.500  17.421
48895W        W49760  19.534  23.140  16.646
48896W        W49761  19.826  23.924  16.289
48897W        W49762  20.823  24.697  18.137
48898W        W49763  19.902  24.017  18.147
48899W        W49764  19.883  23.733  17.625
48900W        W49765  18.292  23.124  18.147
48901W        W49766  21.124  24.659  17.746
48902W        W49767  18.705  22.241  15.744
48903W        W49768  19.232  24.499  16.743
48904W        W49769  21.695  24.282  16.033
48905W        W49770  21.108  22.682  16.600
48906W        W49771  21.393  22.635  14.695
48907W        W49772  21.858  23.436  17.001
48908W        W49773  19.825  25.143  16.754
48909W        W49774  21.599  24.609  15.192
48910W        W49775  18.728  25.395  14.946
48911W        W49776  19.121  25.441  15.622
48912W        W49777  18.918  22.195  17.048
48913W        W49778  21.541  23.213  17.323
48914W        W49779  20.946  23.635  15.782
48915W        W49780  20.912  23.323  14.809
48916W        W49781  20.120  24.467  16.949
48917W        W49782  19.926  22.797  16.148
48918W        W49783  20.526  24.884  17.142
48919W        W49784  21.397  23.675  15.564
48920W        W49785  20.299  22.333  15.580
48921W        W49786  18.956  25.027  15.263
48922W        W49787  18.327  22.526  15.862
48923W        W49788  21.113  23.133  16.336
48924W        W49789  18.571  24.750  16.251
48925W        W49790  19.912  25.100  15.121
48926W        W49791  21.304  23.126  14.585
48927W        W49792  18.327  24.884  16.749
48928W        W49793  19.118  24.456  17.229
48929W        W49794  19.491  23.816  15.848
48930W        W49795  19.513  22.221  16.941
48931W        W49796  21.742  21.983  16.238
48932W        W49797  18.961  23.855  14.706
48933W        W49798  18.616  22.888  14.885
48934W        W49799  18.678  24.844  15.679
48935W        W49800  19.809  24.327  15.927
48936W        W49801  21.141  25.186  17.641
48937W        W49802  20.067  22.828  15.325
48938W        W49803  21.450  25.226  16.097
48939W        W49804  21.127  23.079  17.695
48940W        W49805  21.840  24.735  15.829
48941W        W49806  20.467  24.027  17.313
48942W        W49807  18.233  23.578  15.519
48943W        W49808  19.344  23.993  17.092
48944W        W49809  20.548  23.257  15.470
48945W        W49810  20.425  23.747  15.574
48946W        W49811  18.768  23.167  17.048
48947W        W49812  18.753  23.043  17.970
48948W        W49813  18.643  21.960  16.129
48949W        W49814  20.411  22.307  16.690
48950W        W49815  20.059  22.492  17.853
48951W        W49816  20.414  22.641  15.031
48952W        W49817  21.597  25.034  17.785
48953W        W49818  20.564  22.115  17.824
48954W        W49819  21.583  24.416  17.946
48955W        W49820  21.013  22.583  17.542
48956W        W49821  20.813  22.521  15.812
48957W        W49822  21.206  23.655  18.216
48958W        W49823  18.946  25.231  16.202
48959W        W49824  19.604  22.948  15.188
48960W        W49825  19.173  22.232  17.852
48961W        W49826  21.225  22.716  15.533
48962W        W49827  21.592  23.198  15.478
48963W        W49828  19.335  25.415  17.949
48964W        W49829  19.261  21.951  15.184
48965W        W49830  21.582  22.485  16.219
48966W        W49831  21.732  24.734  14.664
48967W        W49832  18.639  23.937  16.366
48968W        W49833  20.556  22.524  14.596
48969W        W49834  21.690  24.856  16.316
48970W        W49835  21.729  22.050  17.066
48971W        W49836  20.174  23.262  17.620
48972W        W49837  20.267  24.601  15.323
48973W        W49838  20.667  23.895  18.063
48974W        W49839  20.341  21.872  16.372
48975W        W49840  18.953  22.775  16.435
48976W        W49841  18.507  23.975  17.209
48977W        W49842  20.366  25.168  15.915
48978W        W49843  21.560  22.765  16.787
48979W        W49844  20.197  25.112  17.554
48980W        W49845  21.540  24.171  14.759
48981W        W49846  19.975  23.654  15.820
48982W        W49847  21.827  22.165  17.561
48983W        W49848  19.976  24.000  17.155
48984W        W49849  20.193  22.886  16.600
48985W        W49850  21.045  23.184  15.438
48986W        W49851  21.332  22.917  15.080
48987W        W49852  21.141  24.957  15.469
48988W        W49853  20.975  24.560  16.265
48989W        W49854  20.871  23.639  15.243
48990W        W49855  20.304  23.849  16.229
48991W        W49856  21.185  23.637  16.296
48992W        W49857  18.560  22.652  16.720
48993W        W49858  21.338  23.704  17.547
48994W        W49859  21.689  25.322  16.693
48995W        W49860  19.619  24.766  16.095
48996W        W49861  20.626  25.299  17.419
48997W        W49862  20.620  22.629  17.183
48998W        W49863  19.827  25.337  17.244
48999W        W49864  21.524  22.291  15.710
49000W        W49865  21.315  23.610  17.011
49001W        W49866  18.298  22.931  17.049
49002W        W49867  21.158  22.726  16.067
49003W        W49868  21.569  22.877  17.844
49004W        W49869  20.454  24.576  16.062
49005W        W49870  19.710  25.167  15.675
49006W        W49871  18.825  22.347  14.933
49007W        W49872  19.929  22.001  16.743
49008W        W49873  18.957  25.121  14.591
49009W        W49874  19.331  23.587  15.342
49010W        W49875  19.985  24.216  17.655
49011W        W49876  19.815  22.574  15.645
49012W        W49877  21.171  22.171  16.073
49013W        W49878  20.891  25.453  16.401
49014W        W49879  20.303  25.101  16.741
49015W        W49880  19.699  24.138  16.702
49016W        W49881  21.469  24.861  16.828
49017W        W49882  19.163  22.364  15.597
49018W        W49883  19.685  24.661  16.557
49019W        W49884  19.168  22.592  14.622
49020W        W49885  19.969  23.201  17.016
49021W        W49886  20.817  22.067  16.886
49022W        W49887  18.237  23.910  16.771
49023W        W49888  19.941  23.728  14.929
49024W        W49889  19.209  22.043  14.699
49025W        W49890  19.947  23.124  15.750
49026W        W49891  20.917  22.100  17.449
49027W        W49892  19.505  24.112  17.558
49028W        W49893  20.309  23.894  17.775
49029W        W49894  20.926  23.924  17.668
49030W        W49895  20.210  22.064  18.173
49031W        W49896  19.432  22.680  16.566
49032W        W49897  18.858  22.636  15.964
49033W        W49898  18.644  25.348  15.640
49034W        W49899  19.976  24.678  17.765
49035W        W49900  19.011  24.163  15.124
49036W        W49901  20.691  23.548  16.345
49037W        W49902  20.971  23.347  16.744
49038W        W49903  20.176  24.021  16.678
49039W        W49904  20.646  24.395  14.810
49040W        W49905  20.318  22.416  16.138
49041W        W49906  21.797  22.694  15.406
49042W        W49907  18.291  25.283  17.437
49043W        W49908  18.708  24.509  16.969
49044W        W49909  18.275  25.355  15.201
49045W        W49910  20.174  22.625  17.007
49046W        W49911  19.537  24.648  14.856
49047W        W49912  21.442  25.030  15.042
49048W        W49913  20.417  23.683  15.056
49049W        W49914  19.260  22.874  15.573
49050W        W49915  20.092  22.784  14.625
49051W        W49916  20.676  24.349  17.803
49052W        W49917  21.029  22.255  15.420
49053W        W49918  18.359  22.103  14.868
49054W        W49919  19.645  24.422  17.158
49055W        W49920  19.444  24.338  16.250
49056W        W49921  19.186  24.290  14.648
49057W        W49922  18.427  24.531  15.416
49058W        W49923  18.931  23.601  17.858
49059W        W49924  19.635  22.161  18.044
49060W        W49925  20.344  22.303  17.400
49061W        W49926  19.539  22.071  15.681
49062W        W49927  20.598  22.148  15.186
49063W        W49928  18.543  22.080  16.763
49064W        W49929  18.591  23.043  16.133
49065W        W49930  21.280  22.151  16.539
49066W        W49931  18.702  22.649  15.353
49067W        W49932  21.273  22.337  16.969
49068W        W49933  21.669  23.540  14.654
49069W        W49934  18.961  22.298  16.473
49070W        W49935  20.075  22.870  17.413
49071W        W49936  18.223  22.560  14.891
49072W        W49937  19.009  23.949  17.452
49073W        W49938  20.367  23.347  16.631
49074W        W49939  20.234  25.426  14.927
49075W        W49940  18.380  23.933  14.624
49076W        W49941  19.115  24.344  17.750
49077W        W49942  18.636  23.511  17.381
49078W        W49943  19.627  23.616  17.175
49079W        W49944  21.395  21.975  17.437
49080W        W49945  21.793  23.585  17.428
49081W        W49946  21.781  23.785  15.114
49082W        W49947  20.644  24.117  15.213
49083W        W49948  21.118  25.417  14.908
49084W        W49949  20.295  23.407  18.050
49085W        W49950  18.625  24.374  18.090
49086W        W49951  21.831  22.296  18.042
49087W        W49952  21.549  23.224  16.663
49088W        W49953  19.857  25.354  18.140
49089W        W49954  19.712  21.983  14.867
49090W        W49955  21.251  24.582  14.810
49091W        W49956  19.020  22.675  17.696
49092W        W49957  19.454  24.669  17.558
49093W        W49958  21.580  22.660  17.356
49094W        W49959  20.791  25.319  15.324
49095W        W49960  21.030  23.938  16.691
49096W        W49961  19.280  22.354  17.358
49097W        W49962  19.749  23.423  18.115
49098W        W49963  19.252  24.602  15.309
49099W        W49964  21.007  24.100  15.573
49100W        W49965  18.775  22.726  17.297
49101W        W49966  20.104  24.788  15.761
49102W        W49967  21.854  23.348  15.942
49103W        W49968  20.076  21.981  17.661
49104W        W49969  20.856  24.686  16.740
49105W        W49970  21.159  25.030  16.448
49106W        W49971  20.378  24.832  14.876
49107W        W49972  18.388  24.724  17.718
49108W        W49973  19.131  22.716  16.956
49109W        W49974  19.101  22.064  16.066
49110W        W49975  20.722  22.906  16.758
49111W        W49976  19.520  24.077  14.958
49112W        W49977  21.518  24.019  16.457
49113W        W49978  18.845  24.777  17.880
49114W        W49979  21.232  25.459  15.677
49115W        W49980  19.331  22.479  16.122
49116W        W49981  19.100  23.972  16.212
49117W        W49982  19.413  25.383  16.962
49118W        W49983  21.480  25.479  17.994
49119W        W49984  20.639  23.667  16.927
49120W        W49985  18.488  23.465  14.842
49121W        W49986  21.622  25.123  15.539
49122W        W49987  21.459  22.447  15.158
49123W        W49988  19.598  21.966  17.561
49124W        W49989  21.304  24.768  16.019
49125W        W49990  21.333  23.324  15.924
49126W        W49991  19.450  22.997  16.140
49127W        W49992  19.695  23.259  17.464
49128W        W49993  20.806  24.412  17.327
49129W        W49994  19.456  22.866  17.439
49130W        W49995  19.435  25.332  16.055
49131W        W49996  18.752  25.291  17.689
49132W        W49997  18.864  24.652  14.819
49133W        W49998  21.381  24.410  15.629
49134W        W49999  18.985  23.202  17.515
49135W        W50000  21.758  23.132  14.996
49136W        W50001  19.503  24.189  15.467
49137W        W50002  20.602  23.571  17.548
49138W        W50003  20.493  23.199  17.092
49139W        W50004  19.053  23.571  17.121
49140W        W50005  21.263  25.459  16.950
49141W        W50006  21.054  22.093  17.944
49142W        W50007  18.718  22.243  17.531
49143W        W50008  19.057  23.266  16.584
49144W        W50009  19.426  23.080  14.706
49145W        W50010  18.229  24.839  17.251
49146W        W50011  19.814  23.548  16.694
49147W        W50012  19.637  22.573  14.799
49148W        W50013  18.772  23.389  15.580
49149W        W50014  18.543  25.241  17.017
49150W        W50015  21.338  23.467  15.125
49151W        W50016  21.433  22.383  17.811
49152W        W50017  20.869  24.592  15.774
49153W        W50018  18.467  23.516  17.951
49154W        W50019  21.433  21.980  15.247
49155W        W50020  20.953  24.455  15.258
49156W        W50021  19.855  23.513  15.343
49157W        W50022  21.042  22.317  14.866
49158W        W50023  21.107  22.924  17.052
49159W        W50024  18.816  23.517  16.259
49160W        W50025  19.110  24.456  15.908
49161W        W50026  20.873  23.076  15.873
49162W        W50027  19.896  22.455  16.569
49163W        W50028  21.858  24.366  17.080
49164W        W50029  21.776  22.353  16.641
49165W        W50030  18.315  25.183  16.017
49166W        W50031  18.824  24.370  15.553
49167W        W50032  18.739  21.987  18.106
49168W        W50033  19.858  24.840  18.208
49169W        W50034  21.613  23.808  15.998
49170W        W50035  20.967  23.985  14.878
49171W        W50036  20.262  25.506  17.090
49172W        W50037  21.119  24.228  18.127
49173W        W50038  19.934  21.938  15.407
49174W        W50039  20.647  22.807  16.266
49175W        W50040  18.333  24.394  16.598
49176W        W50041  19.586  22.356  15.239
49177W        W50042  19.390  23.840  18.088
49178W        W50043  20.384  22.821  15.802
49179W        W50044  20.589  24.231  16.924
49180W        W50045  18.743  24.836  17.359
49181W        W50046  19.334  24.819  18.082
49182W        W50047  19.185  22.616  15.096
49183W        W50048  20.702  22.758  15.421
49184W        W50049  20.660  24.866  17.658
49185W        W50050  19.345  23.458  16.257
49186W        W50051  19.000  25.156  17.122
49187W        W50052  21.745  25.273  14.723
49188W        W50053  18.608  23.945  17.719
49189W        W50054  20.603  24.207  16.407
49190W        W50055  19.039  23.856  15.649
49191W        W50056  19.410  24.863  17.044
49192W        W50057  19.788  22.282  16.085
49193W        W50058  18.399  24.266  15.015
49194W        W50059  19.918  23.217  14.885
49195W        W50060  18.564  23.766  15.904
49196W        W50061  19.854  22.408  17.368
49197W        W50062  21.526  22.117  14.795
49198W        W50063  21.619  23.863  17.894
49199W        W50064  20.273  25.120  18.046
49200W        W50065  21.831  24.214  17.568
49201W        W50066  21.239  25.012  18.179
49202W        W50067  18.978  25.468  16.657
49203W        W50068  21.837  24.090  15.531
49204W        W50069  20.367  23.357  16.044
49205W        W50070  20.134  21.969  15.934
49206W        W50071  19.193  24.953  15.771
49207W        W50072  19.692  22.694  16.996
49208W        W50073  19.392  22.063  16.465
49209W        W50074  18.455  24.885  15.013
49210W        W50075  20.271  24.249  15.731
49211W        W50076  19.146  25.044  17.610
49212W        W50077  18.623  23.867  15.306
49213W        W50078  18.508  22.410  16.305
49214W        W50079  20.056  24.375  16.362
49215W        W50080  18.308  22.229  15.382
49216W        W50081  20.972  23.435  17.309
49217W        W50082  20.849  22.821  14.881
49218W        W50083  21.366  24.493  16.529
49219W        W50084  20.027  24.977  16.360
49220W        W50085  19.439  25.081  15.271
49221W        W50086  20.721  21.984  14.701
49222W        W50087  18.521  25.244  16.442
49223W        W50088  20.718  23.002  18.077
49224W        W50089  18.701  22.532  18.076
49225W        W50090  18.432  23.132  15.409
49226W        W50091  19.123  23.121  15.134
49227W        W50092  20.886  23.448  17.951
49228W        W50093  19.229  23.729  16.660
49229W        W50094  20.703  22.015  15.780
49230W        W50095  19.834  25.446  16.283
49231W        W50096  21.048  24.908  17.220
49232W        W50097  20.632  25.057  16.331
49233W        W50098  20.651  24.037  15.925
49234W        W50099  20.113  22.262  14.996
49235W        W50100  21.794  21.890  15.718
49236W        W50101  19.482  23.525  14.881
49237W        W50102  21.648  22.862  15.871
49238W        W50103  20.340  24.032  14.748
49239W        W50104  21.276  24.232  17.496
49240W        W50105  20.930  24.933  14.963
49241W        W50106  19.545  22.608  17.869
49242W        W50107  19.365  23.192  17.110
49243W        W50108  21.457  24.687  17.387
49244W        W50109  20.557  22.637  17.764
49245W        W50110  18.401  23.108  17.541
49246W        W50111  20.161  23.585  17.267
49247W        W50112  18.518  24.343  15.924
49248W        W50113  18.665  23.640  16.814
49249W        W50114  20.982  23.926  17.164
49250W        W50115  20.754  25.306  17.975
49251W        W50116  20.650  23.045  17.528
49252W        W50117  20.927  25.099  15.933
49253W        W50118  19.929  24.819  17.256
49254W        W50119  19.414  25.174  16.525
49255W        W50120  21.219  24.345  16.944
49256W        W50121  20.269  24.417  18.081
49257W        W50122  18.874  24.370  16.420
49258W        W50123  21.220  24.129  16.065
49259W        W50124  20.861  25.195  16.816
49260W        W50125  18.839  24.924  16.686
49261W        W50126  19.860  22.976  17.896
49262W        W50127  20.311  25.142  15.407
49263W        W50128  19.619  24.397  18.045
49264W        W50129  19.745  24.635  15.422
49265W        W50130  18.966  23.375  14.681
49266W        W50131  18.305  25.461  21.580
49267W        W50132  18.681  24.354  21.103
49268W        W50133  21.386  24.084  18.873
49269W        W50134  21.516  25.169  20.900
49270W        W50135  19.434  25.160  18.426
49271W        W50136  19.517  23.312  19.409
49272W        W50137  19.032  23.160  19.573
49273W        W50138  20.023  23.975  19.007
49274W        W50139  19.698  25.067  21.362
49275W        W50140  18.347  22.628  21.325
49276W        W50141  19.109  21.908  21.127
49277W        W50142  20.803  22.296  20.014
49278W        W50143  20.452  23.167  18.584
49279W        W50144  21.022  22.601  21.675
49280W        W50145  18.388  22.393  20.800
49281W        W50146  18.487  25.012  21.821
49282W        W50147  20.009  24.402  18.553
49283W        W50148  18.441  23.185  20.246
49284W        W50149  19.334  23.076  21.483
49285W        W50150  21.793  22.935  19.982
49286W        W50151  21.557  23.978  20.841
49287W        W50152  19.865  23.311  19.868
49288W        W50153  20.411  24.650  20.237
49289W        W50154  18.911  24.084  20.469
49290W        W50155  18.270  23.612  20.040
49291W        W50156  19.306  23.584  21.232
49292W        W50157  21.577  23.367  21.486
49293W        W50158  19.193  24.811  19.931
49294W        W50159  20.314  24.500  21.065
49295W        W50160  19.534  23.140  20.290
49296W        W50161  19.826  23.924  19.933
49297W        W50162  20.823  24.697  21.781
49298W        W50163  19.902  24.017  21.791
49299W        W50164  19.883  23.733  21.269
49300W        W50165  18.292  23.124  21.791
49301W        W50166  21.124  24.659  21.390
49302W        W50167  18.705  22.241  19.388
49303W        W50168  19.232  24.499  20.387
49304W        W50169  21.695  24.282  19.677
49305W        W50170  21.108  22.682  20.244
49306W        W50171  21.393  22.635  18.339
49307W        W50172  21.858  23.436  20.645
49308W        W50173  19.825  25.143  20.398
49309W        W50174  21.599  24.609  18.836
49310W        W50175  18.728  25.395  18.590
49311W        W50176  19.121  25.441  19.266
49312W        W50177  18.918  22.195  20.692
49313W        W50178  21.541  23.213  20.967
49314W        W50179  20.946  23.635  19.426
49315W        W50180  20.912  23.323  18.453
49316W        W50181  20.120  24.467  20.593
49317W        W50182  19.926  22.797  19.792
49318W        W50183  20.526  24.884  20.786
49319W        W50184  21.397  23.675  19.208
49320W        W50185  20.299  22.333  19.224
49321W        W50186  18.956  25.027  18.907
49322W        W50187  18.327  22.526  19.506
49323W        W50188  21.113  23.133  19.980
49324W        W50189  18.571  24.750  19.895
49325W        W50190  19.912  25.100  18.765
49326W        W50191  21.304  23.126  18.229
49327W        W50192  18.327  24.884  20.393
49328W        W50193  19.118  24.456  20.873
49329W        W50194  19.491  23.816  19.492
49330W        W50195  19.513  22.221  20.585
49331W        W50196  21.742  21.983  19.882
49332W        W50197  18.961  23.855  18.350
49333W        W50198  18.616  22.888  18.529
49334W        W50199  18.678  24.844  19.323
49335W        W50200  19.809  24.327  19.571
49336W        W50201  21.141  25.186  21.285
49337W        W50202  20.067  22.828  18.969
49338W        W50203  21.450  25.226  19.741
49339W        W50204  21.127  23.079  21.339
49340W        W50205  21.840  24.735  19.473
49341W        W50206  20.467  24.027  20.957
49342W        W50207  18.233  23.578  19.163
49343W        W50208  19.344  23.993  20.736
49344W        W50209  20.548  23.257  19.114
49345W        W50210  20.425  23.747  19.218
49346W        W50211  18.768  23.167  20.692
49347W        W50212  18.753  23.043  21.614
49348W        W50213  18.643  21.960  19.773
49349W        W50214  20.411  22.307  20.334
49350W        W50215  20.059  22.492  21.497
49351W        W50216  20.414  22.641  18.675
49352W        W50217  21.597  25.034  21.429
49353W        W50218  20.564  22.115  21.468
49354W        W50219  21.583  24.416  21.590
49355W        W50220  21.013  22.583  21.186
49356W        W50221  20.813  22.521  19.456
49357W        W50222  21.206  23.655  21.860
49358W        W50223  18.946  25.231  19.846
49359W        W50224  19.604  22.948  18.832
49360W        W50225  19.173  22.232  21.496
49361W        W50226  21.225  22.716  19.177
49362W        W50227  21.592  23.198  19.122
49363W        W50228  19.335  25.415  21.593
49364W        W50229  19.261  21.951  18.828
49365W        W50230  21.582  22.485  19.863
49366W        W50231  21.732  24.734  18.308
49367W        W50232  18.639  23.937  20.010
49368W        W50233  20.556  22.524  18.240
49369W        W50234  21.690  24.856  19.960
49370W        W50235  21.729  22.050  20.710
49371W        W50236  20.174  23.262  21.264
49372W        W50237  20.267  24.601  18.967
49373W        W50238  20.667  23.895  21.707
49374W        W50239  20.341  21.872  20.016
49375W        W50240  18.953  22.775  20.079
49376W        W50241  18.507  23.975  20.853
49377W        W50242  20.366  25.168  19.559
49378W        W50243  21.560  22.765  20.431
49379W        W50244  20.197  25.112  21.198
49380W        W50245  21.540  24.171  18.403
49381W        W50246  19.975  23.654  19.464
49382W        W50247  21.827  22.165  21.205
49383W        W50248  19.976  24.000  20.799
49384W        W50249  20.193  22.886  20.244
49385W        W50250  21.045  23.184  19.082
49386W        W50251  21.332  22.917  18.724
49387W        W50252  21.141  24.957  19.113
49388W        W50253  20.975  24.560  19.909
49389W        W50254  20.871  23.639  18.887
49390W        W50255  20.304  23.849  19.873
49391W        W50256  21.185  23.637  19.940
49392W        W50257  18.560  22.652  20.364
49393W        W50258  21.338  23.704  21.191
49394W        W50259  21.689  25.322  20.337
49395W        W50260  19.619  24.766  19.739
49396W        W50261  20.626  25.299  21.063
49397W        W50262  20.620  22.629  20.827
49398W        W50263  19.827  25.337  20.888
49399W        W50264  21.524  22.291  19.354
49400W        W50265  21.315  23.610  20.655
49401W        W50266  18.298  22.931  20.693
49402W        W50267  21.158  22.726  19.711
49403W        W50268  21.569  22.877  21.488
49404W        W50269  20.454  24.576  19.706
49405W        W50270  19.710  25.167  19.319
49406W        W50271  18.825  22.347  18.577
49407W        W50272  19.929  22.001  20.387
49408W        W50273  18.957  25.121  18.235
49409W        W50274  19.331  23.587  18.986
49410W        W50275  19.985  24.216  21.299
49411W        W50276  19.815  22.574  19.289
49412W        W50277  21.171  22.171  19.717
49413W        W50278  20.891  25.453  20.045
49414W        W50279  20.303  25.101  20.385
49415W        W50280  19.699  24.138  20.346
49416W        W50281  21.469  24.861  20.472
49417W        W50282  19.163  22.364  19.241
49418W        W50283  19.685  24.661  20.201
49419W        W50284  19.168  22.592  18.266
49420W        W50285  19.969  23.201  20.660
49421W        W50286  20.817  22.067  20.530
49422W        W50287  18.237  23.910  20.415
49423W        W50288  19.941  23.728  18.573
49424W        W50289  19.209  22.043  18.343
49425W        W50290  19.947  23.124  19.394
49426W        W50291  20.917  22.100  21.093
49427W        W50292  19.505  24.112  21.202
49428W        W50293  20.309  23.894  21.419
49429W        W50294  20.926  23.924  21.312
49430W        W50295  20.210  22.064  21.817
49431W        W50296  19.432  22.680  20.210
49432W        W50297  18.858  22.636  19.608
49433W        W50298  18.644  25.348  19.284
49434W        W50299  19.976  24.678  21.409
49435W        W50300  19.011  24.163  18.768
49436W        W50301  20.691  23.548  19.989
49437W        W50302  20.971  23.347  20.388
49438W        W50303  20.176  24.021  20.322
49439W        W50304  20.646  24.395  18.454
49440W        W50305  20.318  22.416  19.782
49441W        W50306  21.797  22.694  19.050
49442W        W50307  18.291  25.283  21.081
49443W        W50308  18.708  24.509  20.613
49444W        W50309  18.275  25.355  18.845
49445W        W50310  20.174  22.625  20.651
49446W        W50311  19.537  24.648  18.500
49447W        W50312  21.442  25.030  18.686
49448W        W50313  20.417  23.683  18.700
49449W        W50314  19.260  22.874  19.217
49450W        W50315  20.092  22.784  18.269
49451W        W50316  20.676  24.349  21.447
49452W        W50317  21.029  22.255  19.064
49453W        W50318  18.359  22.103  18.512
49454W        W50319  19.645  24.422  20.802
49455W        W50320  19.444  24.338  19.894
49456W        W50321  19.186  24.290  18.292
49457W        W50322  18.427  24.531  19.060
49458W        W50323  18.931  23.601  21.502
49459W        W50324  19.635  22.161  21.688
49460W        W50325  20.344  22.303  21.044
49461W        W50326  19.539  22.071  19.325
49462W        W50327  20.598  22.148  18.830
49463W        W50328  18.543  22.080  20.407
49464W        W50329  18.591  23.043  19.777
49465W        W50330  21.280  22.151  20.183
49466W        W50331  18.702  22.649  18.997
49467W        W50332  21.273  22.337  20.613
49468W        W50333  21.669  23.540  18.298
49469W        W50334  18.961  22.298  20.117
49470W        W50335  20.075  22.870  21.057
49471W        W50336  18.223  22.560  18.535
49472W        W50337  19.009  23.949  21.096
49473W        W50338  20.367  23.347  20.275
49474W        W50339  20.234  25.426  18.571
49475W        W50340  18.380  23.933  18.268
49476W        W50341  19.115  24.344  21.394
49477W        W50342  18.636  23.511  21.025
49478W        W50343  19.627  23.616  20.819
49479W        W50344  21.395  21.975  21.081
49480W        W50345  21.793  23.585  21.072
49481W        W50346  21.781  23.785  18.758
49482W        W50347  20.644  24.117  18.857
49483W        W50348  21.118  25.417  18.552
49484W        W50349  20.295  23.407  21.694
49485W        W50350  18.625  24.374  21.734
49486W        W50351  21.831  22.296  21.686
49487W        W50352  21.549  23.224  20.307
49488W        W50353  19.857  25.354  21.784
49489W        W50354  19.712  21.983  18.511
49490W        W50355  21.251  24.582  18.454
49491W        W50356  19.020  22.675  21.340
49492W        W50357  19.454  24.669  21.202
49493W        W50358  21.580  22.660  21.000
49494W        W50359  20.791  25.319  18.968
49495W        W50360  21.030  23.938  20.335
49496W        W50361  19.280  22.354  21.002
49497W        W50362  19.749  23.423  21.759
49498W        W50363  19.252  24.602  18.953
49499W        W50364  21.007  24.100  19.217
49500W        W50365  18.775  22.726  20.941
49501W        W50366  20.104  24.788  19.405
49502W        W50367  21.854  23.348  19.586
49503W        W50368  20.076  21.981  21.305
49504W        W50369  20.856  24.686  20.384
49505W        W50370  21.159  25.030  20.092
49506W        W50371  20.378  24.832  18.520
49507W        W50372  18.388  24.724  21.362
49508W        W50373  19.131  22.716  20.600
49509W        W50374  19.101  22.064  19.710
49510W        W50375  20.722  22.906  20.402
49511W        W50376  19.520  24.077  18.602
49512W        W50377  21.518  24.019  20.101
49513W        W50378  18.845  24.777  21.524
49514W        W50379  21.232  25.459  19.321
49515W        W50380  19.331  22.479  19.766
49516W        W50381  19.100  23.972  19.856
49517W        W50382  19.413  25.383  20.606
49518W        W50383  21.480  25.479  21.638
49519W        W50384  20.639  23.667  20.571
49520W        W50385  18.488  23.465  18.486
49521W        W50386  21.622  25.123  19.183
49522W        W50387  21.459  22.447  18.802
49523W        W50388  19.598  21.966  21.205
49524W        W50389  21.304  24.768  19.663
49525W        W50390  21.333  23.324  19.568
49526W        W50391  19.450  22.997  19.784
49527W        W50392  19.695  23.259  21.108
49528W        W50393  20.806  24.412  20.971
49529W        W50394  19.456  22.866  21.083
49530W        W50395  19.435  25.332  19.699
49531W        W50396  18.752  25.291  21.333
49532W        W50397  18.864  24.652  18.463
49533W        W50398  21.381  24.410  19.273
49534W        W50399  18.985  23.202  21.159
49535W        W50400  21.758  23.132  18.640
49536W        W50401  19.503  24.189  19.111
49537W        W50402  20.602  23.571  21.192
49538W        W50403  20.493  23.199  20.736
49539W        W50404  19.053  23.571  20.765
49540W        W50405  21.263  25.459  20.594
49541W        W50406  21.054  22.093  21.588
49542W        W50407  18.718  22.243  21.175
49543W        W50408  19.057  23.266  20.228
49544W        W50409  19.426  23.080  18.350
49545W        W50410  18.229  24.839  20.895
49546W        W50411  19.814  23.548  20.338
49547W        W50412  19.637  22.573  18.443
49548W        W50413  18.772  23.389  19.224
49549W        W50414  18.543  25.241  20.661
49550W        W50415  21.338  23.467  18.769
49551W        W50416  21.433  22.383  21.455
49552W        W50417  20.869  24.592  19.418
49553W        W50418  18.467  23.516  21.595
49554W        W50419  21.433  21.980  18.891
49555W        W50420  20.953  24.455  18.902
49556W        W50421  19.855  23.513  18.987
49557W        W50422  21.042  22.317  18.510
49558W        W50423  21.107  22.924  20.696
49559W        W50424  18.816  23.517  19.903
49560W        W50425  19.110  24.456  19.552
49561W        W50426  20.873  23.076  19.517
49562W        W50427  19.896  22.455  20.213
49563W        W50428  21.858  24.366  20.724
49564W        W50429  21.776  22.353  20.285
49565W        W50430  18.315  25.183  19.661
49566W        W50431  18.824  24.370  19.197
49567W        W50432  18.739  21.987  21.750
49568W        W50433  19.858  24.840  21.852
49569W        W50434  21.613  23.808  19.642
49570W        W50435  20.967  23.985  18.522
49571W        W50436  20.262  25.506  20.734
49572W        W50437  21.119  24.228  21.771
49573W        W50438  19.934  21.938  19.051
49574W        W50439  20.647  22.807  19.910
49575W        W50440  18.333  24.394  20.242
49576W        W50441  19.586  22.356  18.883
49577W        W50442  19.390  23.840  21.732
49578W        W50443  20.384  22.821  19.446
49579W        W50444  20.589  24.231  20.568
49580W        W50445  18.743  24.836  21.003
49581W        W50446  19.334  24.819  21.726
49582W        W50447  19.185  22.616  18.740
49583W        W50448  20.702  22.758  19.065
49584W        W50449  20.660  24.866  21.302
49585W        W50450  19.345  23.458  19.901
49586W        W50451  19.000  25.156  20.766
49587W        W50452  21.745  25.273  18.367
49588W        W50453  18.608  23.945  21.363
49589W        W50454  20.603  24.207  20.051
49590W        W50455  19.039  23.856  19.293
49591W        W50456  19.410  24.863  20.688
49592W        W50457  19.788  22.282  19.729
49593W        W50458  18.399  24.266  18.659
49594W        W50459  19.918  23.217  18.529
49595W        W50460  18.564  23.766  19.548
49596W        W50461  19.854  22.408  21.012
49597W        W50462  21.526  22.117  18.439
49598W        W50463  21.619  23.863  21.538
49599W        W50464  20.273  25.120  21.690
49600W        W50465  21.831  24.214  21.212
49601W        W50466  21.239  25.012  21.823
49602W        W50467  18.978  25.468  20.301
49603W        W50468  21.837  24.090  19.175
49604W        W50469  20.367  23.357  19.688
49605W        W50470  20.134  21.969  19.578
49606W        W50471  19.193  24.953  19.415
49607W        W50472  19.692  22.694  20.640
49608W        W50473  19.392  22.063  20.109
49609W        W50474  18.455  24.885  18.657
49610W        W50475  20.271  24.249  19.375
49611W        W50476  19.146  25.044  21.254
49612W        W50477  18.623  23.867  18.950
49613W        W50478  18.508  22.410  19.949
49614W        W50479  20.056  24.375  20.006
49615W        W50480  18.308  22.229  19.026
49616W        W50481  20.972  23.435  20.953
49617W        W50482  20.849  22.821  18.525
49618W        W50483  21.366  24.493  20.173
49619W        W50484  20.027  24.977  20.004
49620W        W50485  19.439  25.081  18.915
49621W        W50486  20.721  21.984  18.345
49622W        W50487  18.521  25.244  20.086
49623W        W50488  20.718  23.002  21.721
49624W        W50489  18.701  22.532  21.720
49625W        W50490  18.432  23.132  19.053
49626W        W50491  19.123  23.121  18.778
49627W        W50492  20.886  23.448  21.595
49628W        W50493  19.229  23.729  20.304
49629W        W50494  20.703  22.015  19.424
49630W        W50495  19.834  25.446  19.927
49631W        W50496  21.048  24.908  20.864
49632W        W50497  20.632  25.057  19.975
49633W        W50498  20.651  24.037  19.569
49634W        W50499  20.113  22.262  18.640
49635W        W50500  21.794  21.890  19.362
49636W        W50501  19.482  23.525  18.525
49637W        W50502  21.648  22.862  19.515
49638W        W50503  20.340  24.032  18.392
49639W        W50504  21.276  24.232  21.140
49640W        W50505  20.930  24.933  18.607
49641W        W50506  19.545  22.608  21.513
49642W        W50507  19.365  23.192  20.754
49643W        W50508  21.457  24.687  21.031
49644W        W50509  20.557  22.637  21.408
49645W        W50510  18.401  23.108  21.185
49646W        W50511  20.161  23.585  20.911
49647W        W50512  18.518  24.343  19.568
49648W        W50513  18.665  23.640  20.458
49649W        W50514  20.982  23.926  20.808
49650W        W50515  20.754  25.306  21.619
49651W        W50516  20.650  23.045  21.172
49652W        W50517  20.927  25.099  19.577
49653W        W50518  19.929  24.819  20.900
49654W        W50519  19.414  25.174  20.169
49655W        W50520  21.219  24.345  20.588
49656W        W50521  20.269  24.417  21.725
49657W        W50522  18.874  24.370  20.064
49658W        W50523  21.220  24.129  19.709
49659W        W50524  20.861  25.195  20.460
49660W        W50525  18.839  24.924  20.330
49661W        W50526  19.860  22.976  21.540
49662W        W50527  20.311  25.142  19.051
49663W        W50528  19.619  24.397  21.689
49664W        W50529  19.745  24.635  19.066
49665W        W50530  18.966  23.375  18.325
49666W        W50531  18.305  25.461  25.225
49667W        W50532  18.681  24.354  24.748
49668W        W50533  21.386  24.084  22.518
49669W        W50534  21.516  25.169  24.545
49670W        W50535  19.434  25.160  22.071
49671W        W50536  19.517  23.312  23.054
49672W        W50537  19.032  23.160  23.218
49673W        W50538  20.023  23.975  22.652
49674W        W50539  19.698  25.067  25.007
49675W        W50540  18.347  22.628  24.970
49676W        W50541  19.109  21.908  24.772
49677W        W50542  20.803  22.296  23.659
49678W        W50543  20.452  23.167  22.229
49679W        W50544  21.022  22.601  25.320
49680W        W50545  18.388  22.393  24.445
49681W        W50546  18.487  25.012  25.466
49682W        W50547  20.009  24.402  22.198
49683W        W50548  18.441  23.185  23.891
49684W        W50549  19.334  23.076  25.128
49685W        W50550  21.793  22.935  23.627
49686W        W50551  21.557  23.978  24.486
49687W        W50552  19.865  23.311  23.513
49688W        W50553  20.411  24.650  23.882
49689W        W50554  18.911  24.084  24.114
49690W        W50555  18.270  23.612  23.685
49691W        W50556  19.306  23.584  24.877
49692W        W50557  21.577  23.367  25.131
49693W        W50558  19.193  24.811  23.576
49694W        W50559  20.314  24.500  24.710
49695W        W50560  19.534  23.140  23.935
49696W        W50561  19.826  23.924  23.578
49697W        W50562  20.823  24.697  25.426
49698W        W50563  19.902  24.017  25.436
49699W        W50564  19.883  23.733  24.914
49700W        W50565  18.292  23.124  25.436
49701W        W50566  21.124  24.659  25.035
49702W        W50567  18.705  22.241  23.033
49703W        W50568  19.232  24.499  24.032
49704W        W50569  21.695  24.282  23.322
49705W        W50570  21.108  22.682  23.889
49706W        W50571  21.393  22.635  21.984
49707W        W50572  21.858  23.436  24.290
49708W        W50573  19.825  25.143  24.043
49709W        W50574  21.599  24.609  22.481
49710W        W50575  18.728  25.395  22.235
49711W        W50576  19.121  25.441  22.911
49712W        W50577  18.918  22.195  24.337
49713W        W50578  21.541  23.213  24.612
49714W        W50579  20.946  23.635  23.071
49715W        W50580  20.912  23.323  22.098
49716W        W50581  20.120  24.467  24.238
49717W        W50582  19.926  22.797  23.437
49718W        W50583  20.526  24.884  24.431
49719W        W50584  21.397  23.675  22.853
49720W        W50585  20.299  22.333  22.869
49721W        W50586  18.956  25.027  22.552
49722W        W50587  18.327  22.526  23.151
49723W        W50588  21.113  23.133  23.625
49724W        W50589  18.571  24.750  23.540
49725W        W50590  19.912  25.100  22.410
49726W        W50591  21.304  23.126  21.874
49727W        W50592  18.327  24.884  24.038
49728W        W50593  19.118  24.456  24.518
49729W        W50594  19.491  23.816  23.137
49730W        W50595  19.513  22.221  24.230
49731W        W50596  21.742  21.983  23.527
49732W        W50597  18.961  23.855  21.995
49733W        W50598  18.616  22.888  22.174
49734W        W50599  18.678  24.844  22.968
49735W        W50600  19.809  24.327  23.216
49736W        W50601  21.141  25.186  24.930
49737W        W50602  20.067  22.828  22.614
49738W        W50603  21.450  25.226  23.386
49739W        W50604  21.127  23.079  24.984
49740W        W50605  21.840  24.735  23.118
49741W        W50606  20.467  24.027  24.602
49742W        W50607  18.233  23.578  22.808
49743W        W50608  19.344  23.993  24.381
49744W        W50609  20.548  23.257  22.759
49745W        W50610  20.425  23.747  22.863
49746W        W50611  18.768  23.167  24.337
49747W        W50612  18.753  23.043  25.259
49748W        W50613  18.643  21.960  23.418
49749W        W50614  20.411  22.307  23.979
49750W        W50615  20.059  22.492  25.142
49751W        W50616  20.414  22.641  22.320
49752W        W50617  21.597  25.034  25.074
49753W        W50618  20.564  22.115  25.113
49754W        W50619  21.583  24.416  25.235
49755W        W50620  21.013  22.583  24.831
49756W        W50621  20.813  22.521  23.101
49757W        W50622  21.206  23.655  25.505
49758W        W50623  18.946  25.231  23.491
49759W        W50624  19.604  22.948  22.477
49760W        W50625  19.173  22.232  25.141
49761W        W50626  21.225  22.716  22.822
49762W        W50627  21.592  23.198  22.767
49763W        W50628  19.335  25.415  25.238
49764W        W50629  19.261  21.951  22.473
49765W        W50630  21.582  22.485  23.508
49766W        W50631  21.732  24.734  21.953
49767W        W50632  18.639  23.937  23.655
49768W        W50633  20.556  22.524  21.885
49769W        W50634  21.690  24.856  23.605
49770W        W50635  21.729  22.050  24.355
49771W        W50636  20.174  23.262  24.909
49772W        W50637  20.267  24.601  22.612
49773W        W50638  20.667  23.895  25.352
49774W        W50639  20.341  21.872  23.661
49775W        W50640  18.953  22.775  23.724
49776W        W50641  18.507  23.975  24.498
49777W        W50642  20.366  25.168  23.204
49778W        W50643  21.560  22.765  24.076
49779W        W50644  20.197  25.112  24.843
49780W        W50645  21.540  24.171  22.048
49781W        W50646  19.975  23.654  23.109
49782W        W50647  21.827  22.165  24.850
49783W        W50648  19.976  24.000  24.444
49784W        W50649  20.193  22.886  23.889
49785W        W50650  21.045  23.184  22.727
49786W        W50651  21.332  22.917  22.369
49787W        W50652  21.141  24.957  22.758
49788W        W50653  20.975  24.560  23.554
49789W        W50654  20.871  23.639  22.532
49790W        W50655  20.304  23.849  23.518
49791W        W50656  21.185  23.637  23.585
49792W        W50657  18.560  22.652  24.009
49793W        W50658  21.338  23.704  24.836
49794W        W50659  21.689  25.322  23.982
49795W        W50660  19.619  24.766  23.384
49796W        W50661  20.626  25.299  24.708
49797W        W50662  20.620  22.629  24.472
49798W        W50663  19.827  25.337  24.533
49799W        W50664  21.524  22.291  22.999
49800W        W50665  21.315  23.610  24.300
49801W        W50666  18.298  22.931  24.338
49802W        W50667  21.158  22.726  23.356
49803W        W50668  21.569  22.877  25.133
49804W        W50669  20.454  24.576  23.351
49805W        W50670  19.710  25.167  22.964
49806W        W50671  18.825  22.347  22.222
49807W        W50672  19.929  22.001  24.032
49808W        W50673  18.957  25.121  21.880
49809W        W50674  19.331  23.587  22.631
49810W        W50675  19.985  24.216  24.944
49811W        W50676  19.815  22.574  22.934
49812W        W50677  21.171  22.171  23.362
49813W        W50678  20.891  25.453  23.690
49814W        W50679  20.303  25.101  24.030
49815W        W50680  19.699  24.138  23.991
49816W        W50681  21.469  24.861  24.117
49817W        W50682  19.163  22.364  22.886
49818W        W50683  19.685  24.661  23.846
49819W        W50684  19.168  22.592  21.911
49820W        W50685  19.969  23.201  24.305
49821W        W50686  20.817  22.067  24.175
49822W        W50687  18.237  23.910  24.060
49823W        W50688  19.941  23.728  22.218
49824W        W50689  19.209  22.043  21.988
49825W        W50690  19.947  23.124  23.039
49826W        W50691  20.917  22.100  24.738
49827W        W50692  19.505  24.112  24.847
49828W        W50693  20.309  23.894  25.064
49829W        W50694  20.926  23.924  24.957
49830W        W50695  20.210  22.064  25.462
49831W        W50696  19.432  22.680  23.855
49832W        W50697  18.858  22.636  23.253
49833W        W50698  18.644  25.348  22.929
49834W        W50699  19.976  24.678  25.054
49835W        W50700  19.011  24.163  22.413
49836W        W50701  20.691  23.548  23.634
49837W        W50702  20.971  23.347  24.033
49838W        W50703  20.176  24.021  23.967
49839W        W50704  20.646  24.395  22.099
49840W        W50705  20.318  22.416  23.427
49841W        W50706  21.797  22.694  22.695
49842W        W50707  18.291  25.283  24.726
49843W        W50708  18.708  24.509  24.258
49844W        W50709  18.275  25.355  22.490
49845W        W50710  20.174  22.625  24.296
49846W        W50711  19.537  24.648  22.145
49847W        W50712  21.442  25.030  22.331
49848W        W50713  20.417  23.683  22.345
49849W        W50714  19.260  22.874  22.862
49850W        W50715  20.092  22.784  21.914
49851W        W50716  20.676  24.349  25.092
49852W        W50717  21.029  22.255  22.709
49853W        W50718  18.359  22.103  22.157
49854W        W50719  19.645  24.422  24.447
49855W        W50720  19.444  24.338  23.539
49856W        W50721  19.186  24.290  21.937
49857W        W50722  18.427  24.531  22.705
49858W        W50723  18.931  23.601  25.147
49859W        W50724  19.635  22.161  25.333
49860W        W50725  20.344  22.303  24.689
49861W        W50726  19.539  22.071  22.970
49862W        W50727  20.598  22.148  22.475
49863W        W50728  18.543  22.080  24.052
49864W        W50729  18.591  23.043  23.422
49865W        W50730  21.280  22.151  23.828
49866W        W50731  18.702  22.649  22.642
49867W        W50732  21.273  22.337  24.258
49868W        W50733  21.669  23.540  21.943
49869W        W50734  18.961  22.298  23.762
49870W        W50735  20.075  22.870  24.702
49871W        W50736  18.223  22.560  22.180
49872W        W50737  19.009  23.949  24.741
49873W        W50738  20.367  23.347  23.920
49874W        W50739  20.234  25.426  22.216
49875W        W50740  18.380  23.933  21.913
49876W        W50741  19.115  24.344  25.039
49877W        W50742  18.636  23.511  24.670
49878W        W50743  19.627  23.616  24.464
49879W        W50744  21.395  21.975  24.726
49880W        W50745  21.793  23.585  24.717
49881W        W50746  21.781  23.785  22.403
49882W        W50747  20.644  24.117  22.502
49883W        W50748  21.118  25.417  22.197
49884W        W50749  20.295  23.407  25.339
49885W        W50750  18.625  24.374  25.379
49886W        W50751  21.831  22.296  25.331
49887W        W50752  21.549  23.224  23.952
49888W        W50753  19.857  25.354  25.429
49889W        W50754  19.712  21.983  22.156
49890W        W50755  21.251  24.582  22.099
49891W        W50756  19.020  22.675  24.985
49892W        W50757  19.454  24.669  24.847
49893W        W50758  21.580  22.660  24.645
49894W        W50759  20.791  25.319  22.613
49895W        W50760  21.030  23.938  23.980
49896W        W50761  19.280  22.354  24.647
49897W        W50762  19.749  23.423  25.404
49898W        W50763  19.252  24.602  22.598
49899W        W50764  21.007  24.100  22.862
49900W        W50765  18.775  22.726  24.586
49901W        W50766  20.104  24.788  23.050
49902W        W50767  21.854  23.348  23.231
49903W        W50768  20.076  21.981  24.950
49904W        W50769  20.856  24.686  24.029
49905W        W50770  21.159  25.030  23.737
49906W        W50771  20.378  24.832  22.165
49907W        W50772  18.388  24.724  25.007
49908W        W50773  19.131  22.716  24.245
49909W        W50774  19.101  22.064  23.355
49910W        W50775  20.722  22.906  24.047
49911W        W50776  19.520  24.077  22.247
49912W        W50777  21.518  24.019  23.746
49913W        W50778  18.845  24.777  25.169
49914W        W50779  21.232  25.459  22.966
49915W        W50780  19.331  22.479  23.411
49916W        W50781  19.100  23.972  23.501
49917W        W50782  19.413  25.383  24.251
49918W        W50783  21.480  25.479  25.283
49919W        W50784  20.639  23.667  24.216
49920W        W50785  18.488  23.465  22.131
49921W        W50786  21.622  25.123  22.828
49922W        W50787  21.459  22.447  22.447
49923W        W50788  19.598  21.966  24.850
49924W        W50789  21.304  24.768  23.308
49925W        W50790  21.333  23.324  23.213
49926W        W50791  19.450  22.997  23.429
49927W        W50792  19.695  23.259  24.753
49928W        W50793  20.806  24.412  24.616
49929W        W50794  19.456  22.866  24.728
49930W        W50795  19.435  25.332  23.344
49931W        W50796  18.752  25.291  24.978
49932W        W50797  18.864  24.652  22.108
49933W        W50798  21.381  24.410  22.918
49934W        W50799  18.985  23.202  24.804
49935W        W50800  21.758  23.132  22.285
49936W        W50801  19.503  24.189  22.756
49937W        W50802  20.602  23.571  24.837
49938W        W50803  20.493  23.199  24.381
49939W        W50804  19.053  23.571  24.410
49940W        W50805  21.263  25.459  24.239
49941W        W50806  21.054  22.093  25.233
49942W        W50807  18.718  22.243  24.820
49943W        W50808  19.057  23.266  23.873
49944W        W50809  19.426  23.080  21.995
49945W        W50810  18.229  24.839  24.540
49946W        W50811  19.814  23.548  23.983
49947W        W50812  19.637  22.573  22.088
49948W        W50813  18.772  23.389  22.869
49949W        W50814  18.543  25.241  24.306
49950W        W50815  21.338  23.467  22.414
49951W        W50816  21.433  22.383  25.100
49952W        W50817  20.869  24.592  23.063
49953W        W50818  18.467  23.516  25.240
49954W        W50819  21.433  21.980  22.536
49955W        W50820  20.953  24.455  22.547
49956W        W50821  19.855  23.513  22.632
49957W        W50822  21.042  22.317  22.155
49958W        W50823  21.107  22.924  24.341
49959W        W50824  18.816  23.517  23.548
49960W        W50825  19.110  24.456  23.197
49961W        W50826  20.873  23.076  23.162
49962W        W50827  19.896  22.455  23.858
49963W        W50828  21.858  24.366  24.369
49964W        W50829  21.776  22.353  23.930
49965W        W50830  18.315  25.183  23.306
49966W        W50831  18.824  24.370  22.842
49967W        W50832  18.739  21.987  25.395
49968W        W50833  19.858  24.840  25.497
49969W        W50834  21.613  23.808  23.287
49970W        W50835  20.967  23.985  22.167
49971W        W50836  20.262  25.506  24.379
49972W        W50837  21.119  24.228  25.416
49973W        W50838  19.934  21.938  22.696
49974W        W50839  20.647  22.807  23.555
49975W        W50840  18.333  24.394  23.887
49976W        W50841  19.586  22.356  22.528
49977W        W50842  19.390  23.840  25.377
49978W        W50843  20.384  22.821  23.091
49979W        W50844  20.589  24.231  24.213
49980W        W50845  18.743  24.836  24.648
49981W        W50846  19.334  24.819  25.371
49982W        W50847  19.185  22.616  22.385
49983W        W50848  20.702  22.758  22.710
49984W        W50849  20.660  24.866  24.947
49985W        W50850  19.345  23.458  23.546
49986W        W50851  19.000  25.156  24.411
49987W        W50852  21.745  25.273  22.012
49988W        W50853  18.608  23.945  25.008
49989W        W50854  20.603  24.207  23.696
49990W        W50855  19.039  23.856  22.938
49991W        W50856  19.410  24.863  24.333
49992W        W50857  19.788  22.282  23.374
49993W        W50858  18.399  24.266  22.304
49994W        W50859  19.918  23.217  22.174
49995W        W50860  18.564  23.766  23.193
49996W        W50861  19.854  22.408  24.657
49997W        W50862  21.526  22.117  22.084
49998W        W50863  21.619  23.863  25.183
49999W        W50864  20.273  25.120  25.335
50000W        W50865  21.831  24.214  24.857
50001W        W50866  21.239  25.012  25.468
50002W        W50867  18.978  25.468  23.946
50003W        W50868  21.837  24.090  22.820
50004W        W50869  20.367  23.357  23.333
50005W        W50870  20.134  21.969  23.223
50006W        W50871  19.193  24.953  23.060
50007W        W50872  19.692  22.694  24.285
50008W        W50873  19.392  22.063  23.754
50009W        W50874  18.455  24.885  22.302
50010W        W50875  20.271  24.249  23.020
50011W        W50876  19.146  25.044  24.899
50012W        W50877  18.623  23.867  22.595
50013W        W50878  18.508  22.410  23.594
50014W        W50879  20.056  24.375  23.651
50015W        W50880  18.308  22.229  22.671
50016W        W50881  20.972  23.435  24.598
50017W        W50882  20.849  22.821  22.170
50018W        W50883  21.366  24.493  23.818
50019W        W50884  20.027  24.977  23.649
50020W        W50885  19.439  25.081  22.560
50021W        W50886  20.721  21.984  21.990
50022W        W50887  18.521  25.244  23.731
50023W        W50888  20.718  23.002  25.366
50024W        W50889  18.701  22.532  25.365
50025W        W50890  18.432  23.132  22.698
50026W        W50891  19.123  23.121  22.423
50027W        W50892  20.886  23.448  25.240
50028W        W50893  19.229  23.729  23.949
50029W        W50894  20.703  22.015  23.069
50030W        W50895  19.834  25.446  23.572
50031W        W50896  21.048  24.908  24.509
50032W        W50897  20.632  25.057  23.620
50033W        W50898  20.651  24.037  23.214
50034W        W50899  20.113  22.262  22.285
50035W        W50900  21.794  21.890  23.007
50036W        W50901  19.482  23.525  22.170
50037W        W50902  21.648  22.862  23.160
50038W        W50903  20.340  24.032  22.037
50039W        W50904  21.276  24.232  24.785
50040W        W50905  20.930  24.933  22.252
50041W        W50906  19.545  22.608  25.158
50042W        W50907  19.365  23.192  24.399
50043W        W50908  21.457  24.687  24.676
50044W        W50909  20.557  22.637  25.053
50045W        W50910  18.401  23.108  24.830
50046W        W50911  20.161  23.585  24.556
50047W        W50912  18.518  24.343  23.213
50048W        W50913  18.665  23.640  24.103
50049W        W50914  20.982  23.926  24.453
50050W        W50915  20.754  25.306  25.264
50051W        W50916  20.650  23.045  24.817
50052W        W50917  20.927  25.099  23.222
50053W        W50918  19.929  24.819  24.545
50054W        W50919  19.414  25.174  23.814
50055W        W50920  21.219  24.345  24.233
50056W        W50921  20.269  24.417  25.370
50057W        W50922  18.874  24.370  23.709
50058W        W50923  21.220  24.129  23.354
50059W        W50924  20.861  25.195  24.105
50060W        W50925  18.839  24.924  23.975
50061W        W50926  19.860  22.976  25.185
50062W        W50927  20.311  25.142  22.696
50063W        W50928  19.619  24.397  25.334
50064W        W50929  19.745  24.635  22.711
50065W        W50930  18.966  23.375  21.970
50066W        W50931  18.305  25.461  28.869
50067W        W50932  18.681  24.354  28.392
50068W        W50933  21.386  24.084  26.162
50069W        W50934  21.516  25.169  28.189
50070W        W50935  19.434  25.160  25.715
50071W        W50936  19.517  23.312  26.698
50072W        W50937  19.032  23.160  26.862
50073W        W50938  20.023  23.975  26.296
50074W        W50939  19.698  25.067  28.651
50075W        W50940  18.347  22.628  28.614
50076W        W50941  19.109  21.908  28.416
50077W        W50942  20.803  22.296  27.303
50078W        W50943  20.452  23.167  25.873
50079W        W50944  21.022  22.601  28.964
50080W        W50945  18.388  22.393  28.089
50081W        W50946  18.487  25.012  29.110
50082W        W50947  20.009  24.402  25.842
50083W        W50948  18.441  23.185  27.535
50084W        W50949  19.334  23.076  28.772
50085W        W50950  21.793  22.935  27.271
50086W        W50951  21.557  23.978  28.130
50087W        W50952  19.865  23.311  27.157
50088W        W50953  20.411  24.650  27.526
50089W        W50954  18.911  24.084  27.758
50090W        W50955  18.270  23.612  27.329
50091W        W50956  19.306  23.584  28.521
50092W        W50957  21.577  23.367  28.775
50093W        W50958  19.193  24.811  27.220
50094W        W50959  20.314  24.500  28.354
50095W        W50960  19.534  23.140  27.579
50096W        W50961  19.826  23.924  27.222
50097W        W50962  20.823  24.697  29.070
50098W        W50963  19.902  24.017  29.080
50099W        W50964  19.883  23.733  28.558
50100W        W50965  18.292  23.124  29.080
50101W        W50966  21.124  24.659  28.679
50102W        W50967  18.705  22.241  26.677
50103W        W50968  19.232  24.499  27.676
50104W        W50969  21.695  24.282  26.966
50105W        W50970  21.108  22.682  27.533
50106W        W50971  21.393  22.635  25.628
50107W        W50972  21.858  23.436  27.934
50108W        W50973  19.825  25.143  27.687
50109W        W50974  21.599  24.609  26.125
50110W        W50975  18.728  25.395  25.879
50111W        W50976  19.121  25.441  26.555
50112W        W50977  18.918  22.195  27.981
50113W        W50978  21.541  23.213  28.256
50114W        W50979  20.946  23.635  26.715
50115W        W50980  20.912  23.323  25.742
50116W        W50981  20.120  24.467  27.882
50117W        W50982  19.926  22.797  27.081
50118W        W50983  20.526  24.884  28.075
50119W        W50984  21.397  23.675  26.497
50120W        W50985  20.299  22.333  26.513
50121W        W50986  18.956  25.027  26.196
50122W        W50987  18.327  22.526  26.795
50123W        W50988  21.113  23.133  27.269
50124W        W50989  18.571  24.750  27.184
50125W        W50990  19.912  25.100  26.054
50126W        W50991  21.304  23.126  25.518
50127W        W50992  18.327  24.884  27.682
50128W        W50993  19.118  24.456  28.162
50129W        W50994  19.491  23.816  26.781
50130W        W50995  19.513  22.221  27.874
50131W        W50996  21.742  21.983  27.171
50132W        W50997  18.961  23.855  25.639
50133W        W50998  18.616  22.888  25.818
50134W        W50999  18.678  24.844  26.612
50135W        W51000  19.809  24.327  26.860
50136W        W51001  21.141  25.186  28.574
50137W        W51002  20.067  22.828  26.258
50138W        W51003  21.450  25.226  27.030
50139W        W51004  21.127  23.079  28.628
50140W        W51005  21.840  24.735  26.762
50141W        W51006  20.467  24.027  28.246
50142W        W51007  18.233  23.578  26.452
50143W        W51008  19.344  23.993  28.025
50144W        W51009  20.548  23.257  26.403
50145W        W51010  20.425  23.747  26.507
50146W        W51011  18.768  23.167  27.981
50147W        W51012  18.753  23.043  28.903
50148W        W51013  18.643  21.960  27.062
50149W        W51014  20.411  22.307  27.623
50150W        W51015  20.059  22.492  28.786
50151W        W51016  20.414  22.641  25.964
50152W        W51017  21.597  25.034  28.718
50153W        W51018  20.564  22.115  28.757
50154W        W51019  21.583  24.416  28.879
50155W        W51020  21.013  22.583  28.475
50156W        W51021  20.813  22.521  26.745
50157W        W51022  21.206  23.655  29.149
50158W        W51023  18.946  25.231  27.135
50159W        W51024  19.604  22.948  26.121
50160W        W51025  19.173  22.232  28.785
50161W        W51026  21.225  22.716  26.466
50162W        W51027  21.592  23.198  26.411
50163W        W51028  19.335  25.415  28.882
50164W        W51029  19.261  21.951  26.117
50165W        W51030  21.582  22.485  27.152
50166W        W51031  21.732  24.734  25.597
50167W        W51032  18.639  23.937  27.299
50168W        W51033  20.556  22.524  25.529
50169W        W51034  21.690  24.856  27.249
50170W        W51035  21.729  22.050  27.999
50171W        W51036  20.174  23.262  28.553
50172W        W51037  20.267  24.601  26.256
50173W        W51038  20.667  23.895  28.996
50174W        W51039  20.341  21.872  27.305
50175W        W51040  18.953  22.775  27.368
50176W        W51041  18.507  23.975  28.142
50177W        W51042  20.366  25.168  26.848
50178W        W51043  21.560  22.765  27.720
50179W        W51044  20.197  25.112  28.487
50180W        W51045  21.540  24.171  25.692
50181W        W51046  19.975  23.654  26.753
50182W        W51047  21.827  22.165  28.494
50183W        W51048  19.976  24.000  28.088
50184W        W51049  20.193  22.886  27.533
50185W        W51050  21.045  23.184  26.371
50186W        W51051  21.332  22.917  26.013
50187W        W51052  21.141  24.957  26.402
50188W        W51053  20.975  24.560  27.198
50189W        W51054  20.871  23.639  26.176
50190W        W51055  20.304  23.849  27.162
50191W        W51056  21.185  23.637  27.229
50192W        W51057  18.560  22.652  27.653
50193W        W51058  21.338  23.704  28.480
50194W        W51059  21.689  25.322  27.626
50195W        W51060  19.619  24.766  27.028
50196W        W51061  20.626  25.299  28.352
50197W        W51062  20.620  22.629  28.116
50198W        W51063  19.827  25.337  28.177
50199W        W51064  21.524  22.291  26.643
50200W        W51065  21.315  23.610  27.944
50201W        W51066  18.298  22.931  27.982
50202W        W51067  21.158  22.726  27.000
50203W        W51068  21.569  22.877  28.777
50204W        W51069  20.454  24.576  26.995
50205W        W51070  19.710  25.167  26.608
50206W        W51071  18.825  22.347  25.866
50207W        W51072  19.929  22.001  27.676
50208W        W51073  18.957  25.121  25.524
50209W        W51074  19.331  23.587  26.275
50210W        W51075  19.985  24.216  28.588
50211W        W51076  19.815  22.574  26.578
50212W        W51077  21.171  22.171  27.006
50213W        W51078  20.891  25.453  27.334
50214W        W51079  20.303  25.101  27.674
50215W        W51080  19.699  24.138  27.635
50216W        W51081  21.469  24.861  27.761
50217W        W51082  19.163  22.364  26.530
50218W        W51083  19.685  24.661  27.490
50219W        W51084  19.168  22.592  25.555
50220W        W51085  19.969  23.201  27.949
50221W        W51086  20.817  22.067  27.819
50222W        W51087  18.237  23.910  27.704
50223W        W51088  19.941  23.728  25.862
50224W        W51089  19.209  22.043  25.632
50225W        W51090  19.947  23.124  26.683
50226W        W51091  20.917  22.100  28.382
50227W        W51092  19.505  24.112  28.491
50228W        W51093  20.309  23.894  28.708
50229W        W51094  20.926  23.924  28.601
50230W        W51095  20.210  22.064  29.106
50231W        W51096  19.432  22.680  27.499
50232W        W51097  18.858  22.636  26.897
50233W        W51098  18.644  25.348  26.573
50234W        W51099  19.976  24.678  28.698
50235W        W51100  19.011  24.163  26.057
50236W        W51101  20.691  23.548  27.278
50237W        W51102  20.971  23.347  27.677
50238W        W51103  20.176  24.021  27.611
50239W        W51104  20.646  24.395  25.743
50240W        W51105  20.318  22.416  27.071
50241W        W51106  21.797  22.694  26.339
50242W        W51107  18.291  25.283  28.370
50243W        W51108  18.708  24.509  27.902
50244W        W51109  18.275  25.355  26.134
50245W        W51110  20.174  22.625  27.940
50246W        W51111  19.537  24.648  25.789
50247W        W51112  21.442  25.030  25.975
50248W        W51113  20.417  23.683  25.989
50249W        W51114  19.260  22.874  26.506
50250W        W51115  20.092  22.784  25.558
50251W        W51116  20.676  24.349  28.736
50252W        W51117  21.029  22.255  26.353
50253W        W51118  18.359  22.103  25.801
50254W        W51119  19.645  24.422  28.091
50255W        W51120  19.444  24.338  27.183
50256W        W51121  19.186  24.290  25.581
50257W        W51122  18.427  24.531  26.349
50258W        W51123  18.931  23.601  28.791
50259W        W51124  19.635  22.161  28.977
50260W        W51125  20.344  22.303  28.333
50261W        W51126  19.539  22.071  26.614
50262W        W51127  20.598  22.148  26.119
50263W        W51128  18.543  22.080  27.696
50264W        W51129  18.591  23.043  27.066
50265W        W51130  21.280  22.151  27.472
50266W        W51131  18.702  22.649  26.286
50267W        W51132  21.273  22.337  27.902
50268W        W51133  21.669  23.540  25.587
50269W        W51134  18.961  22.298  27.406
50270W        W51135  20.075  22.870  28.346
50271W        W51136  18.223  22.560  25.824
50272W        W51137  19.009  23.949  28.385
50273W        W51138  20.367  23.347  27.564
50274W        W51139  20.234  25.426  25.860
50275W        W51140  18.380  23.933  25.557
50276W        W51141  19.115  24.344  28.683
50277W        W51142  18.636  23.511  28.314
50278W        W51143  19.627  23.616  28.108
50279W        W51144  21.395  21.975  28.370
50280W        W51145  21.793  23.585  28.361
50281W        W51146  21.781  23.785  26.047
50282W        W51147  20.644  24.117  26.146
50283W        W51148  21.118  25.417  25.841
50284W        W51149  20.295  23.407  28.983
50285W        W51150  18.625  24.374  29.023
50286W        W51151  21.831  22.296  28.975
50287W        W51152  21.549  23.224  27.596
50288W        W51153  19.857  25.354  29.073
50289W        W51154  19.712  21.983  25.800
50290W        W51155  21.251  24.582  25.743
50291W        W51156  19.020  22.675  28.629
50292W        W51157  19.454  24.669  28.491
50293W        W51158  21.580  22.660  28.289
50294W        W51159  20.791  25.319  26.257
50295W        W51160  21.030  23.938  27.624
50296W        W51161  19.280  22.354  28.291
50297W        W51162  19.749  23.423  29.048
50298W        W51163  19.252  24.602  26.242
50299W        W51164  21.007  24.100  26.506
50300W        W51165  18.775  22.726  28.230
50301W        W51166  20.104  24.788  26.694
50302W        W51167  21.854  23.348  26.875
50303W        W51168  20.076  21.981  28.594
50304W        W51169  20.856  24.686  27.673
50305W        W51170  21.159  25.030  27.381
50306W        W51171  20.378  24.832  25.809
50307W        W51172  18.388  24.724  28.651
50308W        W51173  19.131  22.716  27.889
50309W        W51174  19.101  22.064  26.999
50310W        W51175  20.722  22.906  27.691
50311W        W51176  19.520  24.077  25.891
50312W        W51177  21.518  24.019  27.390
50313W        W51178  18.845  24.777  28.813
50314W        W51179  21.232  25.459  26.610
50315W        W51180  19.331  22.479  27.055
50316W        W51181  19.100  23.972  27.145
50317W        W51182  19.413  25.383  27.895
50318W        W51183  21.480  25.479  28.927
50319W        W51184  20.639  23.667  27.860
50320W        W51185  18.488  23.465  25.775
50321W        W51186  21.622  25.123  26.472
50322W        W51187  21.459  22.447  26.091
50323W        W51188  19.598  21.966  28.494
50324W        W51189  21.304  24.768  26.952
50325W        W51190  21.333  23.324  26.857
50326W        W51191  19.450  22.997  27.073
50327W        W51192  19.695  23.259  28.397
50328W        W51193  20.806  24.412  28.260
50329W        W51194  19.456  22.866  28.372
50330W        W51195  19.435  25.332  26.988
50331W        W51196  18.752  25.291  28.622
50332W        W51197  18.864  24.652  25.752
50333W        W51198  21.381  24.410  26.562
50334W        W51199  18.985  23.202  28.448
50335W        W51200  21.758  23.132  25.929
50336W        W51201  19.503  24.189  26.400
50337W        W51202  20.602  23.571  28.481
50338W        W51203  20.493  23.199  28.025
50339W        W51204  19.053  23.571  28.054
50340W        W51205  21.263  25.459  27.883
50341W        W51206  21.054  22.093  28.877
50342W        W51207  18.718  22.243  28.464
50343W        W51208  19.057  23.266  27.517
50344W        W51209  19.426  23.080  25.639
50345W        W51210  18.229  24.839  28.184
50346W        W51211  19.814  23.548  27.627
50347W        W51212  19.637  22.573  25.732
50348W        W51213  18.772  23.389  26.513
50349W        W51214  18.543  25.241  27.950
50350W        W51215  21.338  23.467  26.058
50351W        W51216  21.433  22.383  28.744
50352W        W51217  20.869  24.592  26.707
50353W        W51218  18.467  23.516  28.884
50354W        W51219  21.433  21.980  26.180
50355W        W51220  20.953  24.455  26.191
50356W        W51221  19.855  23.513  26.276
50357W        W51222  21.042  22.317  25.799
50358W        W51223  21.107  22.924  27.985
50359W        W51224  18.816  23.517  27.192
50360W        W51225  19.110  24.456  26.841
50361W        W51226  20.873  23.076  26.806
50362W        W51227  19.896  22.455  27.502
50363W        W51228  21.858  24.366  28.013
50364W        W51229  21.776  22.353  27.574
50365W        W51230  18.315  25.183  26.950
50366W        W51231  18.824  24.370  26.486
50367W        W51232  18.739  21.987  29.039
50368W        W51233  19.858  24.840  29.141
50369W        W51234  21.613  23.808  26.931
50370W        W51235  20.967  23.985  25.811
50371W        W51236  20.262  25.506  28.023
50372W        W51237  21.119  24.228  29.060
50373W        W51238  19.934  21.938  26.340
50374W        W51239  20.647  22.807  27.199
50375W        W51240  18.333  24.394  27.531
50376W        W51241  19.586  22.356  26.172
50377W        W51242  19.390  23.840  29.021
50378W        W51243  20.384  22.821  26.735
50379W        W51244  20.589  24.231  27.857
50380W        W51245  18.743  24.836  28.292
50381W        W51246  19.334  24.819  29.015
50382W        W51247  19.185  22.616  26.029
50383W        W51248  20.702  22.758  26.354
50384W        W51249  20.660  24.866  28.591
50385W        W51250  19.345  23.458  27.190
50386W        W51251  19.000  25.156  28.055
50387W        W51252  21.745  25.273  25.656
50388W        W51253  18.608  23.945  28.652
50389W        W51254  20.603  24.207  27.340
50390W        W51255  19.039  23.856  26.582
50391W        W51256  19.410  24.863  27.977
50392W        W51257  19.788  22.282  27.018
50393W        W51258  18.399  24.266  25.948
50394W        W51259  19.918  23.217  25.818
50395W        W51260  18.564  23.766  26.837
50396W        W51261  19.854  22.408  28.301
50397W        W51262  21.526  22.117  25.728
50398W        W51263  21.619  23.863  28.827
50399W        W51264  20.273  25.120  28.979
50400W        W51265  21.831  24.214  28.501
50401W        W51266  21.239  25.012  29.112
50402W        W51267  18.978  25.468  27.590
50403W        W51268  21.837  24.090  26.464
50404W        W51269  20.367  23.357  26.977
50405W        W51270  20.134  21.969  26.867
50406W        W51271  19.193  24.953  26.704
50407W        W51272  19.692  22.694  27.929
50408W        W51273  19.392  22.063  27.398
50409W        W51274  18.455  24.885  25.946
50410W        W51275  20.271  24.249  26.664
50411W        W51276  19.146  25.044  28.543
50412W        W51277  18.623  23.867  26.239
50413W        W51278  18.508  22.410  27.238
50414W        W51279  20.056  24.375  27.295
50415W        W51280  18.308  22.229  26.315
50416W        W51281  20.972  23.435  28.242
50417W        W51282  20.849  22.821  25.814
50418W        W51283  21.366  24.493  27.462
50419W        W51284  20.027  24.977  27.293
50420W        W51285  19.439  25.081  26.204
50421W        W51286  20.721  21.984  25.634
50422W        W51287  18.521  25.244  27.375
50423W        W51288  20.718  23.002  29.010
50424W        W51289  18.701  22.532  29.009
50425W        W51290  18.432  23.132  26.342
50426W        W51291  19.123  23.121  26.067
50427W        W51292  20.886  23.448  28.884
50428W        W51293  19.229  23.729  27.593
50429W        W51294  20.703  22.015  26.713
50430W        W51295  19.834  25.446  27.216
50431W        W51296  21.048  24.908  28.153
50432W        W51297  20.632  25.057  27.264
50433W        W51298  20.651  24.037  26.858
50434W        W51299  20.113  22.262  25.929
50435W        W51300  21.794  21.890  26.651
50436W        W51301  19.482  23.525  25.814
50437W        W51302  21.648  22.862  26.804
50438W        W51303  20.340  24.032  25.681
50439W        W51304  21.276  24.232  28.429
50440W        W51305  20.930  24.933  25.896
50441W        W51306  19.545  22.608  28.802
50442W        W51307  19.365  23.192  28.043
50443W        W51308  21.457  24.687  28.320
50444W        W51309  20.557  22.637  28.697
50445W        W51310  18.401  23.108  28.474
50446W        W51311  20.161  23.585  28.200
50447W        W51312  18.518  24.343  26.857
50448W        W51313  18.665  23.640  27.747
50449W        W51314  20.982  23.926  28.097
50450W        W51315  20.754  25.306  28.908
50451W        W51316  20.650  23.045  28.461
50452W        W51317  20.927  25.099  26.866
50453W        W51318  19.929  24.819  28.189
50454W        W51319  19.414  25.174  27.458
50455W        W51320  21.219  24.345  27.877
50456W        W51321  20.269  24.417  29.014
50457W        W51322  18.874  24.370  27.353
50458W        W51323  21.220  24.129  26.998
50459W        W51324  20.861  25.195  27.749
50460W        W51325  18.839  24.924  27.619
50461W        W51326  19.860  22.976  28.829
50462W        W51327  20.311  25.142  26.340
50463W        W51328  19.619  24.397  28.978
50464W        W51329  19.745  24.635  26.355
50465W        W51330  18.966  23.375  25.614
50466W        W51331  18.305  29.105   3.359
50467W        W51332  18.681  27.998   2.882
50468W        W51333  21.386  27.728   0.652
50469W        W51334  21.516  28.813   2.679
50470W        W51335  19.434  28.804   0.205
50471W        W51336  19.517  26.956   1.188
50472W        W51337  19.032  26.804   1.352
50473W        W51338  20.023  27.619   0.786
50474W        W51339  19.698  28.711   3.141
50475W        W51340  18.347  26.272   3.104
50476W        W51341  19.109  25.552   2.906
50477W        W51342  20.803  25.940   1.793
50478W        W51343  20.452  26.811   0.363
50479W        W51344  21.022  26.245   3.454
50480W        W51345  18.388  26.037   2.579
50481W        W51346  18.487  28.656   3.600
50482W        W51347  20.009  28.046   0.332
50483W        W51348  18.441  26.829   2.025
50484W        W51349  19.334  26.720   3.262
50485W        W51350  21.793  26.579   1.761
50486W        W51351  21.557  27.622   2.620
50487W        W51352  19.865  26.955   1.647
50488W        W51353  20.411  28.294   2.016
50489W        W51354  18.911  27.728   2.248
50490W        W51355  18.270  27.256   1.819
50491W        W51356  19.306  27.228   3.011
50492W        W51357  21.577  27.011   3.265
50493W        W51358  19.193  28.455   1.710
50494W        W51359  20.314  28.144   2.844
50495W        W51360  19.534  26.784   2.069
50496W        W51361  19.826  27.568   1.712
50497W        W51362  20.823  28.341   3.560
50498W        W51363  19.902  27.661   3.570
50499W        W51364  19.883  27.377   3.048
50500W        W51365  18.292  26.768   3.570
50501W        W51366  21.124  28.303   3.169
50502W        W51367  18.705  25.885   1.167
50503W        W51368  19.232  28.143   2.166
50504W        W51369  21.695  27.926   1.456
50505W        W51370  21.108  26.326   2.023
50506W        W51371  21.393  26.279   0.118
50507W        W51372  21.858  27.080   2.424
50508W        W51373  19.825  28.787   2.177
50509W        W51374  21.599  28.253   0.615
50510W        W51375  18.728  29.039   0.369
50511W        W51376  19.121  29.085   1.045
50512W        W51377  18.918  25.839   2.471
50513W        W51378  21.541  26.857   2.746
50514W        W51379  20.946  27.279   1.205
50515W        W51380  20.912  26.967   0.232
50516W        W51381  20.120  28.111   2.372
50517W        W51382  19.926  26.441   1.571
50518W        W51383  20.526  28.528   2.565
50519W        W51384  21.397  27.319   0.987
50520W        W51385  20.299  25.977   1.003
50521W        W51386  18.956  28.671   0.686
50522W        W51387  18.327  26.170   1.285
50523W        W51388  21.113  26.777   1.759
50524W        W51389  18.571  28.394   1.674
50525W        W51390  19.912  28.744   0.544
50526W        W51391  21.304  26.770   0.008
50527W        W51392  18.327  28.528   2.172
50528W        W51393  19.118  28.100   2.652
50529W        W51394  19.491  27.460   1.271
50530W        W51395  19.513  25.865   2.364
50531W        W51396  21.742  25.627   1.661
50532W        W51397  18.961  27.499   0.129
50533W        W51398  18.616  26.532   0.308
50534W        W51399  18.678  28.488   1.102
50535W        W51400  19.809  27.971   1.350
50536W        W51401  21.141  28.830   3.064
50537W        W51402  20.067  26.472   0.748
50538W        W51403  21.450  28.870   1.520
50539W        W51404  21.127  26.723   3.118
50540W        W51405  21.840  28.379   1.252
50541W        W51406  20.467  27.671   2.736
50542W        W51407  18.233  27.222   0.942
50543W        W51408  19.344  27.637   2.515
50544W        W51409  20.548  26.901   0.893
50545W        W51410  20.425  27.391   0.997
50546W        W51411  18.768  26.811   2.471
50547W        W51412  18.753  26.687   3.393
50548W        W51413  18.643  25.604   1.552
50549W        W51414  20.411  25.951   2.113
50550W        W51415  20.059  26.136   3.276
50551W        W51416  20.414  26.285   0.454
50552W        W51417  21.597  28.678   3.208
50553W        W51418  20.564  25.759   3.247
50554W        W51419  21.583  28.060   3.369
50555W        W51420  21.013  26.227   2.965
50556W        W51421  20.813  26.165   1.235
50557W        W51422  21.206  27.299   3.639
50558W        W51423  18.946  28.875   1.625
50559W        W51424  19.604  26.592   0.611
50560W        W51425  19.173  25.876   3.275
50561W        W51426  21.225  26.360   0.956
50562W        W51427  21.592  26.842   0.901
50563W        W51428  19.335  29.059   3.372
50564W        W51429  19.261  25.595   0.607
50565W        W51430  21.582  26.129   1.642
50566W        W51431  21.732  28.378   0.087
50567W        W51432  18.639  27.581   1.789
50568W        W51433  20.556  26.168   0.019
50569W        W51434  21.690  28.500   1.739
50570W        W51435  21.729  25.694   2.489
50571W        W51436  20.174  26.906   3.043
50572W        W51437  20.267  28.245   0.746
50573W        W51438  20.667  27.539   3.486
50574W        W51439  20.341  25.516   1.795
50575W        W51440  18.953  26.419   1.858
50576W        W51441  18.507  27.619   2.632
50577W        W51442  20.366  28.812   1.338
50578W        W51443  21.560  26.409   2.210
50579W        W51444  20.197  28.756   2.977
50580W        W51445  21.540  27.815   0.182
50581W        W51446  19.975  27.298   1.243
50582W        W51447  21.827  25.809   2.984
50583W        W51448  19.976  27.644   2.578
50584W        W51449  20.193  26.530   2.023
50585W        W51450  21.045  26.828   0.861
50586W        W51451  21.332  26.561   0.503
50587W        W51452  21.141  28.601   0.892
50588W        W51453  20.975  28.204   1.688
50589W        W51454  20.871  27.283   0.666
50590W        W51455  20.304  27.493   1.652
50591W        W51456  21.185  27.281   1.719
50592W        W51457  18.560  26.296   2.143
50593W        W51458  21.338  27.348   2.970
50594W        W51459  21.689  28.966   2.116
50595W        W51460  19.619  28.410   1.518
50596W        W51461  20.626  28.943   2.842
50597W        W51462  20.620  26.273   2.606
50598W        W51463  19.827  28.981   2.667
50599W        W51464  21.524  25.935   1.133
50600W        W51465  21.315  27.254   2.434
50601W        W51466  18.298  26.575   2.472
50602W        W51467  21.158  26.370   1.490
50603W        W51468  21.569  26.521   3.267
50604W        W51469  20.454  28.220   1.485
50605W        W51470  19.710  28.811   1.098
50606W        W51471  18.825  25.991   0.356
50607W        W51472  19.929  25.645   2.166
50608W        W51473  18.957  28.765   0.014
50609W        W51474  19.331  27.231   0.765
50610W        W51475  19.985  27.860   3.078
50611W        W51476  19.815  26.218   1.068
50612W        W51477  21.171  25.815   1.496
50613W        W51478  20.891  29.097   1.824
50614W        W51479  20.303  28.745   2.164
50615W        W51480  19.699  27.782   2.125
50616W        W51481  21.469  28.505   2.251
50617W        W51482  19.163  26.008   1.020
50618W        W51483  19.685  28.305   1.980
50619W        W51484  19.168  26.236   0.045
50620W        W51485  19.969  26.845   2.439
50621W        W51486  20.817  25.711   2.309
50622W        W51487  18.237  27.554   2.194
50623W        W51488  19.941  27.372   0.352
50624W        W51489  19.209  25.687   0.122
50625W        W51490  19.947  26.768   1.173
50626W        W51491  20.917  25.744   2.872
50627W        W51492  19.505  27.756   2.981
50628W        W51493  20.309  27.538   3.198
50629W        W51494  20.926  27.568   3.091
50630W        W51495  20.210  25.708   3.596
50631W        W51496  19.432  26.324   1.989
50632W        W51497  18.858  26.280   1.387
50633W        W51498  18.644  28.992   1.063
50634W        W51499  19.976  28.322   3.188
50635W        W51500  19.011  27.807   0.547
50636W        W51501  20.691  27.192   1.768
50637W        W51502  20.971  26.991   2.167
50638W        W51503  20.176  27.665   2.101
50639W        W51504  20.646  28.039   0.233
50640W        W51505  20.318  26.060   1.561
50641W        W51506  21.797  26.338   0.829
50642W        W51507  18.291  28.927   2.860
50643W        W51508  18.708  28.153   2.392
50644W        W51509  18.275  28.999   0.624
50645W        W51510  20.174  26.269   2.430
50646W        W51511  19.537  28.292   0.279
50647W        W51512  21.442  28.674   0.465
50648W        W51513  20.417  27.327   0.479
50649W        W51514  19.260  26.518   0.996
50650W        W51515  20.092  26.428   0.048
50651W        W51516  20.676  27.993   3.226
50652W        W51517  21.029  25.899   0.843
50653W        W51518  18.359  25.747   0.291
50654W        W51519  19.645  28.066   2.581
50655W        W51520  19.444  27.982   1.673
50656W        W51521  19.186  27.934   0.071
50657W        W51522  18.427  28.175   0.839
50658W        W51523  18.931  27.245   3.281
50659W        W51524  19.635  25.805   3.467
50660W        W51525  20.344  25.947   2.823
50661W        W51526  19.539  25.715   1.104
50662W        W51527  20.598  25.792   0.609
50663W        W51528  18.543  25.724   2.186
50664W        W51529  18.591  26.687   1.556
50665W        W51530  21.280  25.795   1.962
50666W        W51531  18.702  26.293   0.776
50667W        W51532  21.273  25.981   2.392
50668W        W51533  21.669  27.184   0.077
50669W        W51534  18.961  25.942   1.896
50670W        W51535  20.075  26.514   2.836
50671W        W51536  18.223  26.204   0.314
50672W        W51537  19.009  27.593   2.875
50673W        W51538  20.367  26.991   2.054
50674W        W51539  20.234  29.070   0.350
50675W        W51540  18.380  27.577   0.047
50676W        W51541  19.115  27.988   3.173
50677W        W51542  18.636  27.155   2.804
50678W        W51543  19.627  27.260   2.598
50679W        W51544  21.395  25.619   2.860
50680W        W51545  21.793  27.229   2.851
50681W        W51546  21.781  27.429   0.537
50682W        W51547  20.644  27.761   0.636
50683W        W51548  21.118  29.061   0.331
50684W        W51549  20.295  27.051   3.473
50685W        W51550  18.625  28.018   3.513
50686W        W51551  21.831  25.940   3.465
50687W        W51552  21.549  26.868   2.086
50688W        W51553  19.857  28.998   3.563
50689W        W51554  19.712  25.627   0.290
50690W        W51555  21.251  28.226   0.233
50691W        W51556  19.020  26.319   3.119
50692W        W51557  19.454  28.313   2.981
50693W        W51558  21.580  26.304   2.779
50694W        W51559  20.791  28.963   0.747
50695W        W51560  21.030  27.582   2.114
50696W        W51561  19.280  25.998   2.781
50697W        W51562  19.749  27.067   3.538
50698W        W51563  19.252  28.246   0.732
50699W        W51564  21.007  27.744   0.996
50700W        W51565  18.775  26.370   2.720
50701W        W51566  20.104  28.432   1.184
50702W        W51567  21.854  26.992   1.365
50703W        W51568  20.076  25.625   3.084
50704W        W51569  20.856  28.330   2.163
50705W        W51570  21.159  28.674   1.871
50706W        W51571  20.378  28.476   0.299
50707W        W51572  18.388  28.368   3.141
50708W        W51573  19.131  26.360   2.379
50709W        W51574  19.101  25.708   1.489
50710W        W51575  20.722  26.550   2.181
50711W        W51576  19.520  27.721   0.381
50712W        W51577  21.518  27.663   1.880
50713W        W51578  18.845  28.421   3.303
50714W        W51579  21.232  29.103   1.100
50715W        W51580  19.331  26.123   1.545
50716W        W51581  19.100  27.616   1.635
50717W        W51582  19.413  29.027   2.385
50718W        W51583  21.480  29.123   3.417
50719W        W51584  20.639  27.311   2.350
50720W        W51585  18.488  27.109   0.265
50721W        W51586  21.622  28.767   0.962
50722W        W51587  21.459  26.091   0.581
50723W        W51588  19.598  25.610   2.984
50724W        W51589  21.304  28.412   1.442
50725W        W51590  21.333  26.968   1.347
50726W        W51591  19.450  26.641   1.563
50727W        W51592  19.695  26.903   2.887
50728W        W51593  20.806  28.056   2.750
50729W        W51594  19.456  26.510   2.862
50730W        W51595  19.435  28.976   1.478
50731W        W51596  18.752  28.935   3.112
50732W        W51597  18.864  28.296   0.242
50733W        W51598  21.381  28.054   1.052
50734W        W51599  18.985  26.846   2.938
50735W        W51600  21.758  26.776   0.419
50736W        W51601  19.503  27.833   0.890
50737W        W51602  20.602  27.215   2.971
50738W        W51603  20.493  26.843   2.515
50739W        W51604  19.053  27.215   2.544
50740W        W51605  21.263  29.103   2.373
50741W        W51606  21.054  25.737   3.367
50742W        W51607  18.718  25.887   2.954
50743W        W51608  19.057  26.910   2.007
50744W        W51609  19.426  26.724   0.129
50745W        W51610  18.229  28.483   2.674
50746W        W51611  19.814  27.192   2.117
50747W        W51612  19.637  26.217   0.222
50748W        W51613  18.772  27.033   1.003
50749W        W51614  18.543  28.885   2.440
50750W        W51615  21.338  27.111   0.548
50751W        W51616  21.433  26.027   3.234
50752W        W51617  20.869  28.236   1.197
50753W        W51618  18.467  27.160   3.374
50754W        W51619  21.433  25.624   0.670
50755W        W51620  20.953  28.099   0.681
50756W        W51621  19.855  27.157   0.766
50757W        W51622  21.042  25.961   0.289
50758W        W51623  21.107  26.568   2.475
50759W        W51624  18.816  27.161   1.682
50760W        W51625  19.110  28.100   1.331
50761W        W51626  20.873  26.720   1.296
50762W        W51627  19.896  26.099   1.992
50763W        W51628  21.858  28.010   2.503
50764W        W51629  21.776  25.997   2.064
50765W        W51630  18.315  28.827   1.440
50766W        W51631  18.824  28.014   0.976
50767W        W51632  18.739  25.631   3.529
50768W        W51633  19.858  28.484   3.631
50769W        W51634  21.613  27.452   1.421
50770W        W51635  20.967  27.629   0.301
50771W        W51636  20.262  29.150   2.513
50772W        W51637  21.119  27.872   3.550
50773W        W51638  19.934  25.582   0.830
50774W        W51639  20.647  26.451   1.689
50775W        W51640  18.333  28.038   2.021
50776W        W51641  19.586  26.000   0.662
50777W        W51642  19.390  27.484   3.511
50778W        W51643  20.384  26.465   1.225
50779W        W51644  20.589  27.875   2.347
50780W        W51645  18.743  28.480   2.782
50781W        W51646  19.334  28.463   3.505
50782W        W51647  19.185  26.260   0.519
50783W        W51648  20.702  26.402   0.844
50784W        W51649  20.660  28.510   3.081
50785W        W51650  19.345  27.102   1.680
50786W        W51651  19.000  28.800   2.545
50787W        W51652  21.745  28.917   0.146
50788W        W51653  18.608  27.589   3.142
50789W        W51654  20.603  27.851   1.830
50790W        W51655  19.039  27.500   1.072
50791W        W51656  19.410  28.507   2.467
50792W        W51657  19.788  25.926   1.508
50793W        W51658  18.399  27.910   0.438
50794W        W51659  19.918  26.861   0.308
50795W        W51660  18.564  27.410   1.327
50796W        W51661  19.854  26.052   2.791
50797W        W51662  21.526  25.761   0.218
50798W        W51663  21.619  27.507   3.317
50799W        W51664  20.273  28.764   3.469
50800W        W51665  21.831  27.858   2.991
50801W        W51666  21.239  28.656   3.602
50802W        W51667  18.978  29.112   2.080
50803W        W51668  21.837  27.734   0.954
50804W        W51669  20.367  27.001   1.467
50805W        W51670  20.134  25.613   1.357
50806W        W51671  19.193  28.597   1.194
50807W        W51672  19.692  26.338   2.419
50808W        W51673  19.392  25.707   1.888
50809W        W51674  18.455  28.529   0.436
50810W        W51675  20.271  27.893   1.154
50811W        W51676  19.146  28.688   3.033
50812W        W51677  18.623  27.511   0.729
50813W        W51678  18.508  26.054   1.728
50814W        W51679  20.056  28.019   1.785
50815W        W51680  18.308  25.873   0.805
50816W        W51681  20.972  27.079   2.732
50817W        W51682  20.849  26.465   0.304
50818W        W51683  21.366  28.137   1.952
50819W        W51684  20.027  28.621   1.783
50820W        W51685  19.439  28.725   0.694
50821W        W51686  20.721  25.628   0.124
50822W        W51687  18.521  28.888   1.865
50823W        W51688  20.718  26.646   3.500
50824W        W51689  18.701  26.176   3.499
50825W        W51690  18.432  26.776   0.832
50826W        W51691  19.123  26.765   0.557
50827W        W51692  20.886  27.092   3.374
50828W        W51693  19.229  27.373   2.083
50829W        W51694  20.703  25.659   1.203
50830W        W51695  19.834  29.090   1.706
50831W        W51696  21.048  28.552   2.643
50832W        W51697  20.632  28.701   1.754
50833W        W51698  20.651  27.681   1.348
50834W        W51699  20.113  25.906   0.419
50835W        W51700  21.794  25.534   1.141
50836W        W51701  19.482  27.169   0.304
50837W        W51702  21.648  26.506   1.294
50838W        W51703  20.340  27.676   0.171
50839W        W51704  21.276  27.876   2.919
50840W        W51705  20.930  28.577   0.386
50841W        W51706  19.545  26.252   3.292
50842W        W51707  19.365  26.836   2.533
50843W        W51708  21.457  28.331   2.810
50844W        W51709  20.557  26.281   3.187
50845W        W51710  18.401  26.752   2.964
50846W        W51711  20.161  27.229   2.690
50847W        W51712  18.518  27.987   1.347
50848W        W51713  18.665  27.284   2.237
50849W        W51714  20.982  27.570   2.587
50850W        W51715  20.754  28.950   3.398
50851W        W51716  20.650  26.689   2.951
50852W        W51717  20.927  28.743   1.356
50853W        W51718  19.929  28.463   2.679
50854W        W51719  19.414  28.818   1.948
50855W        W51720  21.219  27.989   2.367
50856W        W51721  20.269  28.061   3.504
50857W        W51722  18.874  28.014   1.843
50858W        W51723  21.220  27.773   1.488
50859W        W51724  20.861  28.839   2.239
50860W        W51725  18.839  28.568   2.109
50861W        W51726  19.860  26.620   3.319
50862W        W51727  20.311  28.786   0.830
50863W        W51728  19.619  28.041   3.468
50864W        W51729  19.745  28.279   0.845
50865W        W51730  18.966  27.019   0.104
50866W        W51731  18.305  29.105   7.003
50867W        W51732  18.681  27.998   6.526
50868W        W51733  21.386  27.728   4.296
50869W        W51734  21.516  28.813   6.323
50870W        W51735  19.434  28.804   3.849
50871W        W51736  19.517  26.956   4.832
50872W        W51737  19.032  26.804   4.996
50873W        W51738  20.023  27.619   4.430
50874W        W51739  19.698  28.711   6.785
50875W        W51740  18.347  26.272   6.748
50876W        W51741  19.109  25.552   6.550
50877W        W51742  20.803  25.940   5.437
50878W        W51743  20.452  26.811   4.007
50879W        W51744  21.022  26.245   7.098
50880W        W51745  18.388  26.037   6.223
50881W        W51746  18.487  28.656   7.244
50882W        W51747  20.009  28.046   3.976
50883W        W51748  18.441  26.829   5.669
50884W        W51749  19.334  26.720   6.906
50885W        W51750  21.793  26.579   5.405
50886W        W51751  21.557  27.622   6.264
50887W        W51752  19.865  26.955   5.291
50888W        W51753  20.411  28.294   5.660
50889W        W51754  18.911  27.728   5.892
50890W        W51755  18.270  27.256   5.463
50891W        W51756  19.306  27.228   6.655
50892W        W51757  21.577  27.011   6.909
50893W        W51758  19.193  28.455   5.354
50894W        W51759  20.314  28.144   6.488
50895W        W51760  19.534  26.784   5.713
50896W        W51761  19.826  27.568   5.356
50897W        W51762  20.823  28.341   7.204
50898W        W51763  19.902  27.661   7.214
50899W        W51764  19.883  27.377   6.692
50900W        W51765  18.292  26.768   7.214
50901W        W51766  21.124  28.303   6.813
50902W        W51767  18.705  25.885   4.811
50903W        W51768  19.232  28.143   5.810
50904W        W51769  21.695  27.926   5.100
50905W        W51770  21.108  26.326   5.667
50906W        W51771  21.393  26.279   3.762
50907W        W51772  21.858  27.080   6.068
50908W        W51773  19.825  28.787   5.821
50909W        W51774  21.599  28.253   4.259
50910W        W51775  18.728  29.039   4.013
50911W        W51776  19.121  29.085   4.689
50912W        W51777  18.918  25.839   6.115
50913W        W51778  21.541  26.857   6.390
50914W        W51779  20.946  27.279   4.849
50915W        W51780  20.912  26.967   3.876
50916W        W51781  20.120  28.111   6.016
50917W        W51782  19.926  26.441   5.215
50918W        W51783  20.526  28.528   6.209
50919W        W51784  21.397  27.319   4.631
50920W        W51785  20.299  25.977   4.647
50921W        W51786  18.956  28.671   4.330
50922W        W51787  18.327  26.170   4.929
50923W        W51788  21.113  26.777   5.403
50924W        W51789  18.571  28.394   5.318
50925W        W51790  19.912  28.744   4.188
50926W        W51791  21.304  26.770   3.652
50927W        W51792  18.327  28.528   5.816
50928W        W51793  19.118  28.100   6.296
50929W        W51794  19.491  27.460   4.915
50930W        W51795  19.513  25.865   6.008
50931W        W51796  21.742  25.627   5.305
50932W        W51797  18.961  27.499   3.773
50933W        W51798  18.616  26.532   3.952
50934W        W51799  18.678  28.488   4.746
50935W        W51800  19.809  27.971   4.994
50936W        W51801  21.141  28.830   6.708
50937W        W51802  20.067  26.472   4.392
50938W        W51803  21.450  28.870   5.164
50939W        W51804  21.127  26.723   6.762
50940W        W51805  21.840  28.379   4.896
50941W        W51806  20.467  27.671   6.380
50942W        W51807  18.233  27.222   4.586
50943W        W51808  19.344  27.637   6.159
50944W        W51809  20.548  26.901   4.537
50945W        W51810  20.425  27.391   4.641
50946W        W51811  18.768  26.811   6.115
50947W        W51812  18.753  26.687   7.037
50948W        W51813  18.643  25.604   5.196
50949W        W51814  20.411  25.951   5.757
50950W        W51815  20.059  26.136   6.920
50951W        W51816  20.414  26.285   4.098
50952W        W51817  21.597  28.678   6.852
50953W        W51818  20.564  25.759   6.891
50954W        W51819  21.583  28.060   7.013
50955W        W51820  21.013  26.227   6.609
50956W        W51821  20.813  26.165   4.879
50957W        W51822  21.206  27.299   7.283
50958W        W51823  18.946  28.875   5.269
50959W        W51824  19.604  26.592   4.255
50960W        W51825  19.173  25.876   6.919
50961W        W51826  21.225  26.360   4.600
50962W        W51827  21.592  26.842   4.545
50963W        W51828  19.335  29.059   7.016
50964W        W51829  19.261  25.595   4.251
50965W        W51830  21.582  26.129   5.286
50966W        W51831  21.732  28.378   3.731
50967W        W51832  18.639  27.581   5.433
50968W        W51833  20.556  26.168   3.663
50969W        W51834  21.690  28.500   5.383
50970W        W51835  21.729  25.694   6.133
50971W        W51836  20.174  26.906   6.687
50972W        W51837  20.267  28.245   4.390
50973W        W51838  20.667  27.539   7.130
50974W        W51839  20.341  25.516   5.439
50975W        W51840  18.953  26.419   5.502
50976W        W51841  18.507  27.619   6.276
50977W        W51842  20.366  28.812   4.982
50978W        W51843  21.560  26.409   5.854
50979W        W51844  20.197  28.756   6.621
50980W        W51845  21.540  27.815   3.826
50981W        W51846  19.975  27.298   4.887
50982W        W51847  21.827  25.809   6.628
50983W        W51848  19.976  27.644   6.222
50984W        W51849  20.193  26.530   5.667
50985W        W51850  21.045  26.828   4.505
50986W        W51851  21.332  26.561   4.147
50987W        W51852  21.141  28.601   4.536
50988W        W51853  20.975  28.204   5.332
50989W        W51854  20.871  27.283   4.310
50990W        W51855  20.304  27.493   5.296
50991W        W51856  21.185  27.281   5.363
50992W        W51857  18.560  26.296   5.787
50993W        W51858  21.338  27.348   6.614
50994W        W51859  21.689  28.966   5.760
50995W        W51860  19.619  28.410   5.162
50996W        W51861  20.626  28.943   6.486
50997W        W51862  20.620  26.273   6.250
50998W        W51863  19.827  28.981   6.311
50999W        W51864  21.524  25.935   4.777
51000W        W51865  21.315  27.254   6.078
51001W        W51866  18.298  26.575   6.116
51002W        W51867  21.158  26.370   5.134
51003W        W51868  21.569  26.521   6.911
51004W        W51869  20.454  28.220   5.129
51005W        W51870  19.710  28.811   4.742
51006W        W51871  18.825  25.991   4.000
51007W        W51872  19.929  25.645   5.810
51008W        W51873  18.957  28.765   3.658
51009W        W51874  19.331  27.231   4.409
51010W        W51875  19.985  27.860   6.722
51011W        W51876  19.815  26.218   4.712
51012W        W51877  21.171  25.815   5.140
51013W        W51878  20.891  29.097   5.468
51014W        W51879  20.303  28.745   5.808
51015W        W51880  19.699  27.782   5.769
51016W        W51881  21.469  28.505   5.895
51017W        W51882  19.163  26.008   4.664
51018W        W51883  19.685  28.305   5.624
51019W        W51884  19.168  26.236   3.689
51020W        W51885  19.969  26.845   6.083
51021W        W51886  20.817  25.711   5.953
51022W        W51887  18.237  27.554   5.838
51023W        W51888  19.941  27.372   3.996
51024W        W51889  19.209  25.687   3.766
51025W        W51890  19.947  26.768   4.817
51026W        W51891  20.917  25.744   6.516
51027W        W51892  19.505  27.756   6.625
51028W        W51893  20.309  27.538   6.842
51029W        W51894  20.926  27.568   6.735
51030W        W51895  20.210  25.708   7.240
51031W        W51896  19.432  26.324   5.633
51032W        W51897  18.858  26.280   5.031
51033W        W51898  18.644  28.992   4.707
51034W        W51899  19.976  28.322   6.832
51035W        W51900  19.011  27.807   4.191
51036W        W51901  20.691  27.192   5.412
51037W        W51902  20.971  26.991   5.811
51038W        W51903  20.176  27.665   5.745
51039W        W51904  20.646  28.039   3.877
51040W        W51905  20.318  26.060   5.205
51041W        W51906  21.797  26.338   4.473
51042W        W51907  18.291  28.927   6.504
51043W        W51908  18.708  28.153   6.036
51044W        W51909  18.275  28.999   4.268
51045W        W51910  20.174  26.269   6.074
51046W        W51911  19.537  28.292   3.923
51047W        W51912  21.442  28.674   4.109
51048W        W51913  20.417  27.327   4.123
51049W        W51914  19.260  26.518   4.640
51050W        W51915  20.092  26.428   3.692
51051W        W51916  20.676  27.993   6.870
51052W        W51917  21.029  25.899   4.487
51053W        W51918  18.359  25.747   3.935
51054W        W51919  19.645  28.066   6.225
51055W        W51920  19.444  27.982   5.317
51056W        W51921  19.186  27.934   3.715
51057W        W51922  18.427  28.175   4.483
51058W        W51923  18.931  27.245   6.925
51059W        W51924  19.635  25.805   7.111
51060W        W51925  20.344  25.947   6.467
51061W        W51926  19.539  25.715   4.748
51062W        W51927  20.598  25.792   4.253
51063W        W51928  18.543  25.724   5.830
51064W        W51929  18.591  26.687   5.200
51065W        W51930  21.280  25.795   5.606
51066W        W51931  18.702  26.293   4.420
51067W        W51932  21.273  25.981   6.036
51068W        W51933  21.669  27.184   3.721
51069W        W51934  18.961  25.942   5.540
51070W        W51935  20.075  26.514   6.480
51071W        W51936  18.223  26.204   3.958
51072W        W51937  19.009  27.593   6.519
51073W        W51938  20.367  26.991   5.698
51074W        W51939  20.234  29.070   3.994
51075W        W51940  18.380  27.577   3.691
51076W        W51941  19.115  27.988   6.817
51077W        W51942  18.636  27.155   6.448
51078W        W51943  19.627  27.260   6.242
51079W        W51944  21.395  25.619   6.504
51080W        W51945  21.793  27.229   6.495
51081W        W51946  21.781  27.429   4.181
51082W        W51947  20.644  27.761   4.280
51083W        W51948  21.118  29.061   3.975
51084W        W51949  20.295  27.051   7.117
51085W        W51950  18.625  28.018   7.157
51086W        W51951  21.831  25.940   7.109
51087W        W51952  21.549  26.868   5.730
51088W        W51953  19.857  28.998   7.207
51089W        W51954  19.712  25.627   3.934
51090W        W51955  21.251  28.226   3.877
51091W        W51956  19.020  26.319   6.763
51092W        W51957  19.454  28.313   6.625
51093W        W51958  21.580  26.304   6.423
51094W        W51959  20.791  28.963   4.391
51095W        W51960  21.030  27.582   5.758
51096W        W51961  19.280  25.998   6.425
51097W        W51962  19.749  27.067   7.182
51098W        W51963  19.252  28.246   4.376
51099W        W51964  21.007  27.744   4.640
51100W        W51965  18.775  26.370   6.364
51101W        W51966  20.104  28.432   4.828
51102W        W51967  21.854  26.992   5.009
51103W        W51968  20.076  25.625   6.728
51104W        W51969  20.856  28.330   5.807
51105W        W51970  21.159  28.674   5.515
51106W        W51971  20.378  28.476   3.943
51107W        W51972  18.388  28.368   6.785
51108W        W51973  19.131  26.360   6.023
51109W        W51974  19.101  25.708   5.133
51110W        W51975  20.722  26.550   5.825
51111W        W51976  19.520  27.721   4.025
51112W        W51977  21.518  27.663   5.524
51113W        W51978  18.845  28.421   6.947
51114W        W51979  21.232  29.103   4.744
51115W        W51980  19.331  26.123   5.189
51116W        W51981  19.100  27.616   5.279
51117W        W51982  19.413  29.027   6.029
51118W        W51983  21.480  29.123   7.061
51119W        W51984  20.639  27.311   5.994
51120W        W51985  18.488  27.109   3.909
51121W        W51986  21.622  28.767   4.606
51122W        W51987  21.459  26.091   4.225
51123W        W51988  19.598  25.610   6.628
51124W        W51989  21.304  28.412   5.086
51125W        W51990  21.333  26.968   4.991
51126W        W51991  19.450  26.641   5.207
51127W        W51992  19.695  26.903   6.531
51128W        W51993  20.806  28.056   6.394
51129W        W51994  19.456  26.510   6.506
51130W        W51995  19.435  28.976   5.122
51131W        W51996  18.752  28.935   6.756
51132W        W51997  18.864  28.296   3.886
51133W        W51998  21.381  28.054   4.696
51134W        W51999  18.985  26.846   6.582
51135W        W52000  21.758  26.776   4.063
51136W        W52001  19.503  27.833   4.534
51137W        W52002  20.602  27.215   6.615
51138W        W52003  20.493  26.843   6.159
51139W        W52004  19.053  27.215   6.188
51140W        W52005  21.263  29.103   6.017
51141W        W52006  21.054  25.737   7.011
51142W        W52007  18.718  25.887   6.598
51143W        W52008  19.057  26.910   5.651
51144W        W52009  19.426  26.724   3.773
51145W        W52010  18.229  28.483   6.318
51146W        W52011  19.814  27.192   5.761
51147W        W52012  19.637  26.217   3.866
51148W        W52013  18.772  27.033   4.647
51149W        W52014  18.543  28.885   6.084
51150W        W52015  21.338  27.111   4.192
51151W        W52016  21.433  26.027   6.878
51152W        W52017  20.869  28.236   4.841
51153W        W52018  18.467  27.160   7.018
51154W        W52019  21.433  25.624   4.314
51155W        W52020  20.953  28.099   4.325
51156W        W52021  19.855  27.157   4.410
51157W        W52022  21.042  25.961   3.933
51158W        W52023  21.107  26.568   6.119
51159W        W52024  18.816  27.161   5.326
51160W        W52025  19.110  28.100   4.975
51161W        W52026  20.873  26.720   4.940
51162W        W52027  19.896  26.099   5.636
51163W        W52028  21.858  28.010   6.147
51164W        W52029  21.776  25.997   5.708
51165W        W52030  18.315  28.827   5.084
51166W        W52031  18.824  28.014   4.620
51167W        W52032  18.739  25.631   7.173
51168W        W52033  19.858  28.484   7.275
51169W        W52034  21.613  27.452   5.065
51170W        W52035  20.967  27.629   3.945
51171W        W52036  20.262  29.150   6.157
51172W        W52037  21.119  27.872   7.194
51173W        W52038  19.934  25.582   4.474
51174W        W52039  20.647  26.451   5.333
51175W        W52040  18.333  28.038   5.665
51176W        W52041  19.586  26.000   4.306
51177W        W52042  19.390  27.484   7.155
51178W        W52043  20.384  26.465   4.869
51179W        W52044  20.589  27.875   5.991
51180W        W52045  18.743  28.480   6.426
51181W        W52046  19.334  28.463   7.149
51182W        W52047  19.185  26.260   4.163
51183W        W52048  20.702  26.402   4.488
51184W        W52049  20.660  28.510   6.725
51185W        W52050  19.345  27.102   5.324
51186W        W52051  19.000  28.800   6.189
51187W        W52052  21.745  28.917   3.790
51188W        W52053  18.608  27.589   6.786
51189W        W52054  20.603  27.851   5.474
51190W        W52055  19.039  27.500   4.716
51191W        W52056  19.410  28.507   6.111
51192W        W52057  19.788  25.926   5.152
51193W        W52058  18.399  27.910   4.082
51194W        W52059  19.918  26.861   3.952
51195W        W52060  18.564  27.410   4.971
51196W        W52061  19.854  26.052   6.435
51197W        W52062  21.526  25.761   3.862
51198W        W52063  21.619  27.507   6.961
51199W        W52064  20.273  28.764   7.113
51200W        W52065  21.831  27.858   6.635
51201W        W52066  21.239  28.656   7.246
51202W        W52067  18.978  29.112   5.724
51203W        W52068  21.837  27.734   4.598
51204W        W52069  20.367  27.001   5.111
51205W        W52070  20.134  25.613   5.001
51206W        W52071  19.193  28.597   4.838
51207W        W52072  19.692  26.338   6.063
51208W        W52073  19.392  25.707   5.532
51209W        W52074  18.455  28.529   4.080
51210W        W52075  20.271  27.893   4.798
51211W        W52076  19.146  28.688   6.677
51212W        W52077  18.623  27.511   4.373
51213W        W52078  18.508  26.054   5.372
51214W        W52079  20.056  28.019   5.429
51215W        W52080  18.308  25.873   4.449
51216W        W52081  20.972  27.079   6.376
51217W        W52082  20.849  26.465   3.948
51218W        W52083  21.366  28.137   5.596
51219W        W52084  20.027  28.621   5.427
51220W        W52085  19.439  28.725   4.338
51221W        W52086  20.721  25.628   3.768
51222W        W52087  18.521  28.888   5.509
51223W        W52088  20.718  26.646   7.144
51224W        W52089  18.701  26.176   7.143
51225W        W52090  18.432  26.776   4.476
51226W        W52091  19.123  26.765   4.201
51227W        W52092  20.886  27.092   7.018
51228W        W52093  19.229  27.373   5.727
51229W        W52094  20.703  25.659   4.847
51230W        W52095  19.834  29.090   5.350
51231W        W52096  21.048  28.552   6.287
51232W        W52097  20.632  28.701   5.398
51233W        W52098  20.651  27.681   4.992
51234W        W52099  20.113  25.906   4.063
51235W        W52100  21.794  25.534   4.785
51236W        W52101  19.482  27.169   3.948
51237W        W52102  21.648  26.506   4.938
51238W        W52103  20.340  27.676   3.815
51239W        W52104  21.276  27.876   6.563
51240W        W52105  20.930  28.577   4.030
51241W        W52106  19.545  26.252   6.936
51242W        W52107  19.365  26.836   6.177
51243W        W52108  21.457  28.331   6.454
51244W        W52109  20.557  26.281   6.831
51245W        W52110  18.401  26.752   6.608
51246W        W52111  20.161  27.229   6.334
51247W        W52112  18.518  27.987   4.991
51248W        W52113  18.665  27.284   5.881
51249W        W52114  20.982  27.570   6.231
51250W        W52115  20.754  28.950   7.042
51251W        W52116  20.650  26.689   6.595
51252W        W52117  20.927  28.743   5.000
51253W        W52118  19.929  28.463   6.323
51254W        W52119  19.414  28.818   5.592
51255W        W52120  21.219  27.989   6.011
51256W        W52121  20.269  28.061   7.148
51257W        W52122  18.874  28.014   5.487
51258W        W52123  21.220  27.773   5.132
51259W        W52124  20.861  28.839   5.883
51260W        W52125  18.839  28.568   5.753
51261W        W52126  19.860  26.620   6.963
51262W        W52127  20.311  28.786   4.474
51263W        W52128  19.619  28.041   7.112
51264W        W52129  19.745  28.279   4.489
51265W        W52130  18.966  27.019   3.748
51266W        W52131  18.305  29.105  10.648
51267W        W52132  18.681  27.998  10.171
51268W        W52133  21.386  27.728   7.941
51269W        W52134  21.516  28.813   9.968
51270W        W52135  19.434  28.804   7.494
51271W        W52136  19.517  26.956   8.477
51272W        W52137  19.032  26.804   8.641
51273W        W52138  20.023  27.619   8.075
51274W        W52139  19.698  28.711  10.430
51275W        W52140  18.347  26.272  10.393
51276W        W52141  19.109  25.552  10.195
51277W        W52142  20.803  25.940   9.082
51278W        W52143  20.452  26.811   7.652
51279W        W52144  21.022  26.245  10.743
51280W        W52145  18.388  26.037   9.868
51281W        W52146  18.487  28.656  10.889
51282W        W52147  20.009  28.046   7.621
51283W        W52148  18.441  26.829   9.314
51284W        W52149  19.334  26.720  10.551
51285W        W52150  21.793  26.579   9.050
51286W        W52151  21.557  27.622   9.909
51287W        W52152  19.865  26.955   8.936
51288W        W52153  20.411  28.294   9.305
51289W        W52154  18.911  27.728   9.537
51290W        W52155  18.270  27.256   9.108
51291W        W52156  19.306  27.228  10.300
51292W        W52157  21.577  27.011  10.554
51293W        W52158  19.193  28.455   8.999
51294W        W52159  20.314  28.144  10.133
51295W        W52160  19.534  26.784   9.358
51296W        W52161  19.826  27.568   9.001
51297W        W52162  20.823  28.341  10.849
51298W        W52163  19.902  27.661  10.859
51299W        W52164  19.883  27.377  10.337
51300W        W52165  18.292  26.768  10.859
51301W        W52166  21.124  28.303  10.458
51302W        W52167  18.705  25.885   8.456
51303W        W52168  19.232  28.143   9.455
51304W        W52169  21.695  27.926   8.745
51305W        W52170  21.108  26.326   9.312
51306W        W52171  21.393  26.279   7.407
51307W        W52172  21.858  27.080   9.713
51308W        W52173  19.825  28.787   9.466
51309W        W52174  21.599  28.253   7.904
51310W        W52175  18.728  29.039   7.658
51311W        W52176  19.121  29.085   8.334
51312W        W52177  18.918  25.839   9.760
51313W        W52178  21.541  26.857  10.035
51314W        W52179  20.946  27.279   8.494
51315W        W52180  20.912  26.967   7.521
51316W        W52181  20.120  28.111   9.661
51317W        W52182  19.926  26.441   8.860
51318W        W52183  20.526  28.528   9.854
51319W        W52184  21.397  27.319   8.276
51320W        W52185  20.299  25.977   8.292
51321W        W52186  18.956  28.671   7.975
51322W        W52187  18.327  26.170   8.574
51323W        W52188  21.113  26.777   9.048
51324W        W52189  18.571  28.394   8.963
51325W        W52190  19.912  28.744   7.833
51326W        W52191  21.304  26.770   7.297
51327W        W52192  18.327  28.528   9.461
51328W        W52193  19.118  28.100   9.941
51329W        W52194  19.491  27.460   8.560
51330W        W52195  19.513  25.865   9.653
51331W        W52196  21.742  25.627   8.950
51332W        W52197  18.961  27.499   7.418
51333W        W52198  18.616  26.532   7.597
51334W        W52199  18.678  28.488   8.391
51335W        W52200  19.809  27.971   8.639
51336W        W52201  21.141  28.830  10.353
51337W        W52202  20.067  26.472   8.037
51338W        W52203  21.450  28.870   8.809
51339W        W52204  21.127  26.723  10.407
51340W        W52205  21.840  28.379   8.541
51341W        W52206  20.467  27.671  10.025
51342W        W52207  18.233  27.222   8.231
51343W        W52208  19.344  27.637   9.804
51344W        W52209  20.548  26.901   8.182
51345W        W52210  20.425  27.391   8.286
51346W        W52211  18.768  26.811   9.760
51347W        W52212  18.753  26.687  10.682
51348W        W52213  18.643  25.604   8.841
51349W        W52214  20.411  25.951   9.402
51350W        W52215  20.059  26.136  10.565
51351W        W52216  20.414  26.285   7.743
51352W        W52217  21.597  28.678  10.497
51353W        W52218  20.564  25.759  10.536
51354W        W52219  21.583  28.060  10.658
51355W        W52220  21.013  26.227  10.254
51356W        W52221  20.813  26.165   8.524
51357W        W52222  21.206  27.299  10.928
51358W        W52223  18.946  28.875   8.914
51359W        W52224  19.604  26.592   7.900
51360W        W52225  19.173  25.876  10.564
51361W        W52226  21.225  26.360   8.245
51362W        W52227  21.592  26.842   8.190
51363W        W52228  19.335  29.059  10.661
51364W        W52229  19.261  25.595   7.896
51365W        W52230  21.582  26.129   8.931
51366W        W52231  21.732  28.378   7.376
51367W        W52232  18.639  27.581   9.078
51368W        W52233  20.556  26.168   7.308
51369W        W52234  21.690  28.500   9.028
51370W        W52235  21.729  25.694   9.778
51371W        W52236  20.174  26.906  10.332
51372W        W52237  20.267  28.245   8.035
51373W        W52238  20.667  27.539  10.775
51374W        W52239  20.341  25.516   9.084
51375W        W52240  18.953  26.419   9.147
51376W        W52241  18.507  27.619   9.921
51377W        W52242  20.366  28.812   8.627
51378W        W52243  21.560  26.409   9.499
51379W        W52244  20.197  28.756  10.266
51380W        W52245  21.540  27.815   7.471
51381W        W52246  19.975  27.298   8.532
51382W        W52247  21.827  25.809  10.273
51383W        W52248  19.976  27.644   9.867
51384W        W52249  20.193  26.530   9.312
51385W        W52250  21.045  26.828   8.150
51386W        W52251  21.332  26.561   7.792
51387W        W52252  21.141  28.601   8.181
51388W        W52253  20.975  28.204   8.977
51389W        W52254  20.871  27.283   7.955
51390W        W52255  20.304  27.493   8.941
51391W        W52256  21.185  27.281   9.008
51392W        W52257  18.560  26.296   9.432
51393W        W52258  21.338  27.348  10.259
51394W        W52259  21.689  28.966   9.405
51395W        W52260  19.619  28.410   8.807
51396W        W52261  20.626  28.943  10.131
51397W        W52262  20.620  26.273   9.895
51398W        W52263  19.827  28.981   9.956
51399W        W52264  21.524  25.935   8.422
51400W        W52265  21.315  27.254   9.723
51401W        W52266  18.298  26.575   9.761
51402W        W52267  21.158  26.370   8.779
51403W        W52268  21.569  26.521  10.556
51404W        W52269  20.454  28.220   8.774
51405W        W52270  19.710  28.811   8.387
51406W        W52271  18.825  25.991   7.645
51407W        W52272  19.929  25.645   9.455
51408W        W52273  18.957  28.765   7.303
51409W        W52274  19.331  27.231   8.054
51410W        W52275  19.985  27.860  10.367
51411W        W52276  19.815  26.218   8.357
51412W        W52277  21.171  25.815   8.785
51413W        W52278  20.891  29.097   9.113
51414W        W52279  20.303  28.745   9.453
51415W        W52280  19.699  27.782   9.414
51416W        W52281  21.469  28.505   9.540
51417W        W52282  19.163  26.008   8.309
51418W        W52283  19.685  28.305   9.269
51419W        W52284  19.168  26.236   7.334
51420W        W52285  19.969  26.845   9.728
51421W        W52286  20.817  25.711   9.598
51422W        W52287  18.237  27.554   9.483
51423W        W52288  19.941  27.372   7.641
51424W        W52289  19.209  25.687   7.411
51425W        W52290  19.947  26.768   8.462
51426W        W52291  20.917  25.744  10.161
51427W        W52292  19.505  27.756  10.270
51428W        W52293  20.309  27.538  10.487
51429W        W52294  20.926  27.568  10.380
51430W        W52295  20.210  25.708  10.885
51431W        W52296  19.432  26.324   9.278
51432W        W52297  18.858  26.280   8.676
51433W        W52298  18.644  28.992   8.352
51434W        W52299  19.976  28.322  10.477
51435W        W52300  19.011  27.807   7.836
51436W        W52301  20.691  27.192   9.057
51437W        W52302  20.971  26.991   9.456
51438W        W52303  20.176  27.665   9.390
51439W        W52304  20.646  28.039   7.522
51440W        W52305  20.318  26.060   8.850
51441W        W52306  21.797  26.338   8.118
51442W        W52307  18.291  28.927  10.149
51443W        W52308  18.708  28.153   9.681
51444W        W52309  18.275  28.999   7.913
51445W        W52310  20.174  26.269   9.719
51446W        W52311  19.537  28.292   7.568
51447W        W52312  21.442  28.674   7.754
51448W        W52313  20.417  27.327   7.768
51449W        W52314  19.260  26.518   8.285
51450W        W52315  20.092  26.428   7.337
51451W        W52316  20.676  27.993  10.515
51452W        W52317  21.029  25.899   8.132
51453W        W52318  18.359  25.747   7.580
51454W        W52319  19.645  28.066   9.870
51455W        W52320  19.444  27.982   8.962
51456W        W52321  19.186  27.934   7.360
51457W        W52322  18.427  28.175   8.128
51458W        W52323  18.931  27.245  10.570
51459W        W52324  19.635  25.805  10.756
51460W        W52325  20.344  25.947  10.112
51461W        W52326  19.539  25.715   8.393
51462W        W52327  20.598  25.792   7.898
51463W        W52328  18.543  25.724   9.475
51464W        W52329  18.591  26.687   8.845
51465W        W52330  21.280  25.795   9.251
51466W        W52331  18.702  26.293   8.065
51467W        W52332  21.273  25.981   9.681
51468W        W52333  21.669  27.184   7.366
51469W        W52334  18.961  25.942   9.185
51470W        W52335  20.075  26.514  10.125
51471W        W52336  18.223  26.204   7.603
51472W        W52337  19.009  27.593  10.164
51473W        W52338  20.367  26.991   9.343
51474W        W52339  20.234  29.070   7.639
51475W        W52340  18.380  27.577   7.336
51476W        W52341  19.115  27.988  10.462
51477W        W52342  18.636  27.155  10.093
51478W        W52343  19.627  27.260   9.887
51479W        W52344  21.395  25.619  10.149
51480W        W52345  21.793  27.229  10.140
51481W        W52346  21.781  27.429   7.826
51482W        W52347  20.644  27.761   7.925
51483W        W52348  21.118  29.061   7.620
51484W        W52349  20.295  27.051  10.762
51485W        W52350  18.625  28.018  10.802
51486W        W52351  21.831  25.940  10.754
51487W        W52352  21.549  26.868   9.375
51488W        W52353  19.857  28.998  10.852
51489W        W52354  19.712  25.627   7.579
51490W        W52355  21.251  28.226   7.522
51491W        W52356  19.020  26.319  10.408
51492W        W52357  19.454  28.313  10.270
51493W        W52358  21.580  26.304  10.068
51494W        W52359  20.791  28.963   8.036
51495W        W52360  21.030  27.582   9.403
51496W        W52361  19.280  25.998  10.070
51497W        W52362  19.749  27.067  10.827
51498W        W52363  19.252  28.246   8.021
51499W        W52364  21.007  27.744   8.285
51500W        W52365  18.775  26.370  10.009
51501W        W52366  20.104  28.432   8.473
51502W        W52367  21.854  26.992   8.654
51503W        W52368  20.076  25.625  10.373
51504W        W52369  20.856  28.330   9.452
51505W        W52370  21.159  28.674   9.160
51506W        W52371  20.378  28.476   7.588
51507W        W52372  18.388  28.368  10.430
51508W        W52373  19.131  26.360   9.668
51509W        W52374  19.101  25.708   8.778
51510W        W52375  20.722  26.550   9.470
51511W        W52376  19.520  27.721   7.670
51512W        W52377  21.518  27.663   9.169
51513W        W52378  18.845  28.421  10.592
51514W        W52379  21.232  29.103   8.389
51515W        W52380  19.331  26.123   8.834
51516W        W52381  19.100  27.616   8.924
51517W        W52382  19.413  29.027   9.674
51518W        W52383  21.480  29.123  10.706
51519W        W52384  20.639  27.311   9.639
51520W        W52385  18.488  27.109   7.554
51521W        W52386  21.622  28.767   8.251
51522W        W52387  21.459  26.091   7.870
51523W        W52388  19.598  25.610  10.273
51524W        W52389  21.304  28.412   8.731
51525W        W52390  21.333  26.968   8.636
51526W        W52391  19.450  26.641   8.852
51527W        W52392  19.695  26.903  10.176
51528W        W52393  20.806  28.056  10.039
51529W        W52394  19.456  26.510  10.151
51530W        W52395  19.435  28.976   8.767
51531W        W52396  18.752  28.935  10.401
51532W        W52397  18.864  28.296   7.531
51533W        W52398  21.381  28.054   8.341
51534W        W52399  18.985  26.846  10.227
51535W        W52400  21.758  26.776   7.708
51536W        W52401  19.503  27.833   8.179
51537W        W52402  20.602  27.215  10.260
51538W        W52403  20.493  26.843   9.804
51539W        W52404  19.053  27.215   9.833
51540W        W52405  21.263  29.103   9.662
51541W        W52406  21.054  25.737  10.656
51542W        W52407  18.718  25.887  10.243
51543W        W52408  19.057  26.910   9.296
51544W        W52409  19.426  26.724   7.418
51545W        W52410  18.229  28.483   9.963
51546W        W52411  19.814  27.192   9.406
51547W        W52412  19.637  26.217   7.511
51548W        W52413  18.772  27.033   8.292
51549W        W52414  18.543  28.885   9.729
51550W        W52415  21.338  27.111   7.837
51551W        W52416  21.433  26.027  10.523
51552W        W52417  20.869  28.236   8.486
51553W        W52418  18.467  27.160  10.663
51554W        W52419  21.433  25.624   7.959
51555W        W52420  20.953  28.099   7.970
51556W        W52421  19.855  27.157   8.055
51557W        W52422  21.042  25.961   7.578
51558W        W52423  21.107  26.568   9.764
51559W        W52424  18.816  27.161   8.971
51560W        W52425  19.110  28.100   8.620
51561W        W52426  20.873  26.720   8.585
51562W        W52427  19.896  26.099   9.281
51563W        W52428  21.858  28.010   9.792
51564W        W52429  21.776  25.997   9.353
51565W        W52430  18.315  28.827   8.729
51566W        W52431  18.824  28.014   8.265
51567W        W52432  18.739  25.631  10.818
51568W        W52433  19.858  28.484  10.920
51569W        W52434  21.613  27.452   8.710
51570W        W52435  20.967  27.629   7.590
51571W        W52436  20.262  29.150   9.802
51572W        W52437  21.119  27.872  10.839
51573W        W52438  19.934  25.582   8.119
51574W        W52439  20.647  26.451   8.978
51575W        W52440  18.333  28.038   9.310
51576W        W52441  19.586  26.000   7.951
51577W        W52442  19.390  27.484  10.800
51578W        W52443  20.384  26.465   8.514
51579W        W52444  20.589  27.875   9.636
51580W        W52445  18.743  28.480  10.071
51581W        W52446  19.334  28.463  10.794
51582W        W52447  19.185  26.260   7.808
51583W        W52448  20.702  26.402   8.133
51584W        W52449  20.660  28.510  10.370
51585W        W52450  19.345  27.102   8.969
51586W        W52451  19.000  28.800   9.834
51587W        W52452  21.745  28.917   7.435
51588W        W52453  18.608  27.589  10.431
51589W        W52454  20.603  27.851   9.119
51590W        W52455  19.039  27.500   8.361
51591W        W52456  19.410  28.507   9.756
51592W        W52457  19.788  25.926   8.797
51593W        W52458  18.399  27.910   7.727
51594W        W52459  19.918  26.861   7.597
51595W        W52460  18.564  27.410   8.616
51596W        W52461  19.854  26.052  10.080
51597W        W52462  21.526  25.761   7.507
51598W        W52463  21.619  27.507  10.606
51599W        W52464  20.273  28.764  10.758
51600W        W52465  21.831  27.858  10.280
51601W        W52466  21.239  28.656  10.891
51602W        W52467  18.978  29.112   9.369
51603W        W52468  21.837  27.734   8.243
51604W        W52469  20.367  27.001   8.756
51605W        W52470  20.134  25.613   8.646
51606W        W52471  19.193  28.597   8.483
51607W        W52472  19.692  26.338   9.708
51608W        W52473  19.392  25.707   9.177
51609W        W52474  18.455  28.529   7.725
51610W        W52475  20.271  27.893   8.443
51611W        W52476  19.146  28.688  10.322
51612W        W52477  18.623  27.511   8.018
51613W        W52478  18.508  26.054   9.017
51614W        W52479  20.056  28.019   9.074
51615W        W52480  18.308  25.873   8.094
51616W        W52481  20.972  27.079  10.021
51617W        W52482  20.849  26.465   7.593
51618W        W52483  21.366  28.137   9.241
51619W        W52484  20.027  28.621   9.072
51620W        W52485  19.439  28.725   7.983
51621W        W52486  20.721  25.628   7.413
51622W        W52487  18.521  28.888   9.154
51623W        W52488  20.718  26.646  10.789
51624W        W52489  18.701  26.176  10.788
51625W        W52490  18.432  26.776   8.121
51626W        W52491  19.123  26.765   7.846
51627W        W52492  20.886  27.092  10.663
51628W        W52493  19.229  27.373   9.372
51629W        W52494  20.703  25.659   8.492
51630W        W52495  19.834  29.090   8.995
51631W        W52496  21.048  28.552   9.932
51632W        W52497  20.632  28.701   9.043
51633W        W52498  20.651  27.681   8.637
51634W        W52499  20.113  25.906   7.708
51635W        W52500  21.794  25.534   8.430
51636W        W52501  19.482  27.169   7.593
51637W        W52502  21.648  26.506   8.583
51638W        W52503  20.340  27.676   7.460
51639W        W52504  21.276  27.876  10.208
51640W        W52505  20.930  28.577   7.675
51641W        W52506  19.545  26.252  10.581
51642W        W52507  19.365  26.836   9.822
51643W        W52508  21.457  28.331  10.099
51644W        W52509  20.557  26.281  10.476
51645W        W52510  18.401  26.752  10.253
51646W        W52511  20.161  27.229   9.979
51647W        W52512  18.518  27.987   8.636
51648W        W52513  18.665  27.284   9.526
51649W        W52514  20.982  27.570   9.876
51650W        W52515  20.754  28.950  10.687
51651W        W52516  20.650  26.689  10.240
51652W        W52517  20.927  28.743   8.645
51653W        W52518  19.929  28.463   9.968
51654W        W52519  19.414  28.818   9.237
51655W        W52520  21.219  27.989   9.656
51656W        W52521  20.269  28.061  10.793
51657W        W52522  18.874  28.014   9.132
51658W        W52523  21.220  27.773   8.777
51659W        W52524  20.861  28.839   9.528
51660W        W52525  18.839  28.568   9.398
51661W        W52526  19.860  26.620  10.608
51662W        W52527  20.311  28.786   8.119
51663W        W52528  19.619  28.041  10.757
51664W        W52529  19.745  28.279   8.134
51665W        W52530  18.966  27.019   7.393
51666W        W52531  18.305  29.105  14.292
51667W        W52532  18.681  27.998  13.815
51668W        W52533  21.386  27.728  11.585
51669W        W52534  21.516  28.813  13.612
51670W        W52535  19.434  28.804  11.138
51671W        W52536  19.517  26.956  12.121
51672W        W52537  19.032  26.804  12.285
51673W        W52538  20.023  27.619  11.719
51674W        W52539  19.698  28.711  14.074
51675W        W52540  18.347  26.272  14.037
51676W        W52541  19.109  25.552  13.839
51677W        W52542  20.803  25.940  12.726
51678W        W52543  20.452  26.811  11.296
51679W        W52544  21.022  26.245  14.387
51680W        W52545  18.388  26.037  13.512
51681W        W52546  18.487  28.656  14.533
51682W        W52547  20.009  28.046  11.265
51683W        W52548  18.441  26.829  12.958
51684W        W52549  19.334  26.720  14.195
51685W        W52550  21.793  26.579  12.694
51686W        W52551  21.557  27.622  13.553
51687W        W52552  19.865  26.955  12.580
51688W        W52553  20.411  28.294  12.949
51689W        W52554  18.911  27.728  13.181
51690W        W52555  18.270  27.256  12.752
51691W        W52556  19.306  27.228  13.944
51692W        W52557  21.577  27.011  14.198
51693W        W52558  19.193  28.455  12.643
51694W        W52559  20.314  28.144  13.777
51695W        W52560  19.534  26.784  13.002
51696W        W52561  19.826  27.568  12.645
51697W        W52562  20.823  28.341  14.493
51698W        W52563  19.902  27.661  14.503
51699W        W52564  19.883  27.377  13.981
51700W        W52565  18.292  26.768  14.503
51701W        W52566  21.124  28.303  14.102
51702W        W52567  18.705  25.885  12.100
51703W        W52568  19.232  28.143  13.099
51704W        W52569  21.695  27.926  12.389
51705W        W52570  21.108  26.326  12.956
51706W        W52571  21.393  26.279  11.051
51707W        W52572  21.858  27.080  13.357
51708W        W52573  19.825  28.787  13.110
51709W        W52574  21.599  28.253  11.548
51710W        W52575  18.728  29.039  11.302
51711W        W52576  19.121  29.085  11.978
51712W        W52577  18.918  25.839  13.404
51713W        W52578  21.541  26.857  13.679
51714W        W52579  20.946  27.279  12.138
51715W        W52580  20.912  26.967  11.165
51716W        W52581  20.120  28.111  13.305
51717W        W52582  19.926  26.441  12.504
51718W        W52583  20.526  28.528  13.498
51719W        W52584  21.397  27.319  11.920
51720W        W52585  20.299  25.977  11.936
51721W        W52586  18.956  28.671  11.619
51722W        W52587  18.327  26.170  12.218
51723W        W52588  21.113  26.777  12.692
51724W        W52589  18.571  28.394  12.607
51725W        W52590  19.912  28.744  11.477
51726W        W52591  21.304  26.770  10.941
51727W        W52592  18.327  28.528  13.105
51728W        W52593  19.118  28.100  13.585
51729W        W52594  19.491  27.460  12.204
51730W        W52595  19.513  25.865  13.297
51731W        W52596  21.742  25.627  12.594
51732W        W52597  18.961  27.499  11.062
51733W        W52598  18.616  26.532  11.241
51734W        W52599  18.678  28.488  12.035
51735W        W52600  19.809  27.971  12.283
51736W        W52601  21.141  28.830  13.997
51737W        W52602  20.067  26.472  11.681
51738W        W52603  21.450  28.870  12.453
51739W        W52604  21.127  26.723  14.051
51740W        W52605  21.840  28.379  12.185
51741W        W52606  20.467  27.671  13.669
51742W        W52607  18.233  27.222  11.875
51743W        W52608  19.344  27.637  13.448
51744W        W52609  20.548  26.901  11.826
51745W        W52610  20.425  27.391  11.930
51746W        W52611  18.768  26.811  13.404
51747W        W52612  18.753  26.687  14.326
51748W        W52613  18.643  25.604  12.485
51749W        W52614  20.411  25.951  13.046
51750W        W52615  20.059  26.136  14.209
51751W        W52616  20.414  26.285  11.387
51752W        W52617  21.597  28.678  14.141
51753W        W52618  20.564  25.759  14.180
51754W        W52619  21.583  28.060  14.302
51755W        W52620  21.013  26.227  13.898
51756W        W52621  20.813  26.165  12.168
51757W        W52622  21.206  27.299  14.572
51758W        W52623  18.946  28.875  12.558
51759W        W52624  19.604  26.592  11.544
51760W        W52625  19.173  25.876  14.208
51761W        W52626  21.225  26.360  11.889
51762W        W52627  21.592  26.842  11.834
51763W        W52628  19.335  29.059  14.305
51764W        W52629  19.261  25.595  11.540
51765W        W52630  21.582  26.129  12.575
51766W        W52631  21.732  28.378  11.020
51767W        W52632  18.639  27.581  12.722
51768W        W52633  20.556  26.168  10.952
51769W        W52634  21.690  28.500  12.672
51770W        W52635  21.729  25.694  13.422
51771W        W52636  20.174  26.906  13.976
51772W        W52637  20.267  28.245  11.679
51773W        W52638  20.667  27.539  14.419
51774W        W52639  20.341  25.516  12.728
51775W        W52640  18.953  26.419  12.791
51776W        W52641  18.507  27.619  13.565
51777W        W52642  20.366  28.812  12.271
51778W        W52643  21.560  26.409  13.143
51779W        W52644  20.197  28.756  13.910
51780W        W52645  21.540  27.815  11.115
51781W        W52646  19.975  27.298  12.176
51782W        W52647  21.827  25.809  13.917
51783W        W52648  19.976  27.644  13.511
51784W        W52649  20.193  26.530  12.956
51785W        W52650  21.045  26.828  11.794
51786W        W52651  21.332  26.561  11.436
51787W        W52652  21.141  28.601  11.825
51788W        W52653  20.975  28.204  12.621
51789W        W52654  20.871  27.283  11.599
51790W        W52655  20.304  27.493  12.585
51791W        W52656  21.185  27.281  12.652
51792W        W52657  18.560  26.296  13.076
51793W        W52658  21.338  27.348  13.903
51794W        W52659  21.689  28.966  13.049
51795W        W52660  19.619  28.410  12.451
51796W        W52661  20.626  28.943  13.775
51797W        W52662  20.620  26.273  13.539
51798W        W52663  19.827  28.981  13.600
51799W        W52664  21.524  25.935  12.066
51800W        W52665  21.315  27.254  13.367
51801W        W52666  18.298  26.575  13.405
51802W        W52667  21.158  26.370  12.423
51803W        W52668  21.569  26.521  14.200
51804W        W52669  20.454  28.220  12.418
51805W        W52670  19.710  28.811  12.031
51806W        W52671  18.825  25.991  11.289
51807W        W52672  19.929  25.645  13.099
51808W        W52673  18.957  28.765  10.947
51809W        W52674  19.331  27.231  11.698
51810W        W52675  19.985  27.860  14.011
51811W        W52676  19.815  26.218  12.001
51812W        W52677  21.171  25.815  12.429
51813W        W52678  20.891  29.097  12.757
51814W        W52679  20.303  28.745  13.097
51815W        W52680  19.699  27.782  13.058
51816W        W52681  21.469  28.505  13.184
51817W        W52682  19.163  26.008  11.953
51818W        W52683  19.685  28.305  12.913
51819W        W52684  19.168  26.236  10.978
51820W        W52685  19.969  26.845  13.372
51821W        W52686  20.817  25.711  13.242
51822W        W52687  18.237  27.554  13.127
51823W        W52688  19.941  27.372  11.285
51824W        W52689  19.209  25.687  11.055
51825W        W52690  19.947  26.768  12.106
51826W        W52691  20.917  25.744  13.805
51827W        W52692  19.505  27.756  13.914
51828W        W52693  20.309  27.538  14.131
51829W        W52694  20.926  27.568  14.024
51830W        W52695  20.210  25.708  14.529
51831W        W52696  19.432  26.324  12.922
51832W        W52697  18.858  26.280  12.320
51833W        W52698  18.644  28.992  11.996
51834W        W52699  19.976  28.322  14.121
51835W        W52700  19.011  27.807  11.480
51836W        W52701  20.691  27.192  12.701
51837W        W52702  20.971  26.991  13.100
51838W        W52703  20.176  27.665  13.034
51839W        W52704  20.646  28.039  11.166
51840W        W52705  20.318  26.060  12.494
51841W        W52706  21.797  26.338  11.762
51842W        W52707  18.291  28.927  13.793
51843W        W52708  18.708  28.153  13.325
51844W        W52709  18.275  28.999  11.557
51845W        W52710  20.174  26.269  13.363
51846W        W52711  19.537  28.292  11.212
51847W        W52712  21.442  28.674  11.398
51848W        W52713  20.417  27.327  11.412
51849W        W52714  19.260  26.518  11.929
51850W        W52715  20.092  26.428  10.981
51851W        W52716  20.676  27.993  14.159
51852W        W52717  21.029  25.899  11.776
51853W        W52718  18.359  25.747  11.224
51854W        W52719  19.645  28.066  13.514
51855W        W52720  19.444  27.982  12.606
51856W        W52721  19.186  27.934  11.004
51857W        W52722  18.427  28.175  11.772
51858W        W52723  18.931  27.245  14.214
51859W        W52724  19.635  25.805  14.400
51860W        W52725  20.344  25.947  13.756
51861W        W52726  19.539  25.715  12.037
51862W        W52727  20.598  25.792  11.542
51863W        W52728  18.543  25.724  13.119
51864W        W52729  18.591  26.687  12.489
51865W        W52730  21.280  25.795  12.895
51866W        W52731  18.702  26.293  11.709
51867W        W52732  21.273  25.981  13.325
51868W        W52733  21.669  27.184  11.010
51869W        W52734  18.961  25.942  12.829
51870W        W52735  20.075  26.514  13.769
51871W        W52736  18.223  26.204  11.247
51872W        W52737  19.009  27.593  13.808
51873W        W52738  20.367  26.991  12.987
51874W        W52739  20.234  29.070  11.283
51875W        W52740  18.380  27.577  10.980
51876W        W52741  19.115  27.988  14.106
51877W        W52742  18.636  27.155  13.737
51878W        W52743  19.627  27.260  13.531
51879W        W52744  21.395  25.619  13.793
51880W        W52745  21.793  27.229  13.784
51881W        W52746  21.781  27.429  11.470
51882W        W52747  20.644  27.761  11.569
51883W        W52748  21.118  29.061  11.264
51884W        W52749  20.295  27.051  14.406
51885W        W52750  18.625  28.018  14.446
51886W        W52751  21.831  25.940  14.398
51887W        W52752  21.549  26.868  13.019
51888W        W52753  19.857  28.998  14.496
51889W        W52754  19.712  25.627  11.223
51890W        W52755  21.251  28.226  11.166
51891W        W52756  19.020  26.319  14.052
51892W        W52757  19.454  28.313  13.914
51893W        W52758  21.580  26.304  13.712
51894W        W52759  20.791  28.963  11.680
51895W        W52760  21.030  27.582  13.047
51896W        W52761  19.280  25.998  13.714
51897W        W52762  19.749  27.067  14.471
51898W        W52763  19.252  28.246  11.665
51899W        W52764  21.007  27.744  11.929
51900W        W52765  18.775  26.370  13.653
51901W        W52766  20.104  28.432  12.117
51902W        W52767  21.854  26.992  12.298
51903W        W52768  20.076  25.625  14.017
51904W        W52769  20.856  28.330  13.096
51905W        W52770  21.159  28.674  12.804
51906W        W52771  20.378  28.476  11.232
51907W        W52772  18.388  28.368  14.074
51908W        W52773  19.131  26.360  13.312
51909W        W52774  19.101  25.708  12.422
51910W        W52775  20.722  26.550  13.114
51911W        W52776  19.520  27.721  11.314
51912W        W52777  21.518  27.663  12.813
51913W        W52778  18.845  28.421  14.236
51914W        W52779  21.232  29.103  12.033
51915W        W52780  19.331  26.123  12.478
51916W        W52781  19.100  27.616  12.568
51917W        W52782  19.413  29.027  13.318
51918W        W52783  21.480  29.123  14.350
51919W        W52784  20.639  27.311  13.283
51920W        W52785  18.488  27.109  11.198
51921W        W52786  21.622  28.767  11.895
51922W        W52787  21.459  26.091  11.514
51923W        W52788  19.598  25.610  13.917
51924W        W52789  21.304  28.412  12.375
51925W        W52790  21.333  26.968  12.280
51926W        W52791  19.450  26.641  12.496
51927W        W52792  19.695  26.903  13.820
51928W        W52793  20.806  28.056  13.683
51929W        W52794  19.456  26.510  13.795
51930W        W52795  19.435  28.976  12.411
51931W        W52796  18.752  28.935  14.045
51932W        W52797  18.864  28.296  11.175
51933W        W52798  21.381  28.054  11.985
51934W        W52799  18.985  26.846  13.871
51935W        W52800  21.758  26.776  11.352
51936W        W52801  19.503  27.833  11.823
51937W        W52802  20.602  27.215  13.904
51938W        W52803  20.493  26.843  13.448
51939W        W52804  19.053  27.215  13.477
51940W        W52805  21.263  29.103  13.306
51941W        W52806  21.054  25.737  14.300
51942W        W52807  18.718  25.887  13.887
51943W        W52808  19.057  26.910  12.940
51944W        W52809  19.426  26.724  11.062
51945W        W52810  18.229  28.483  13.607
51946W        W52811  19.814  27.192  13.050
51947W        W52812  19.637  26.217  11.155
51948W        W52813  18.772  27.033  11.936
51949W        W52814  18.543  28.885  13.373
51950W        W52815  21.338  27.111  11.481
51951W        W52816  21.433  26.027  14.167
51952W        W52817  20.869  28.236  12.130
51953W        W52818  18.467  27.160  14.307
51954W        W52819  21.433  25.624  11.603
51955W        W52820  20.953  28.099  11.614
51956W        W52821  19.855  27.157  11.699
51957W        W52822  21.042  25.961  11.222
51958W        W52823  21.107  26.568  13.408
51959W        W52824  18.816  27.161  12.615
51960W        W52825  19.110  28.100  12.264
51961W        W52826  20.873  26.720  12.229
51962W        W52827  19.896  26.099  12.925
51963W        W52828  21.858  28.010  13.436
51964W        W52829  21.776  25.997  12.997
51965W        W52830  18.315  28.827  12.373
51966W        W52831  18.824  28.014  11.909
51967W        W52832  18.739  25.631  14.462
51968W        W52833  19.858  28.484  14.564
51969W        W52834  21.613  27.452  12.354
51970W        W52835  20.967  27.629  11.234
51971W        W52836  20.262  29.150  13.446
51972W        W52837  21.119  27.872  14.483
51973W        W52838  19.934  25.582  11.763
51974W        W52839  20.647  26.451  12.622
51975W        W52840  18.333  28.038  12.954
51976W        W52841  19.586  26.000  11.595
51977W        W52842  19.390  27.484  14.444
51978W        W52843  20.384  26.465  12.158
51979W        W52844  20.589  27.875  13.280
51980W        W52845  18.743  28.480  13.715
51981W        W52846  19.334  28.463  14.438
51982W        W52847  19.185  26.260  11.452
51983W        W52848  20.702  26.402  11.777
51984W        W52849  20.660  28.510  14.014
51985W        W52850  19.345  27.102  12.613
51986W        W52851  19.000  28.800  13.478
51987W        W52852  21.745  28.917  11.079
51988W        W52853  18.608  27.589  14.075
51989W        W52854  20.603  27.851  12.763
51990W        W52855  19.039  27.500  12.005
51991W        W52856  19.410  28.507  13.400
51992W        W52857  19.788  25.926  12.441
51993W        W52858  18.399  27.910  11.371
51994W        W52859  19.918  26.861  11.241
51995W        W52860  18.564  27.410  12.260
51996W        W52861  19.854  26.052  13.724
51997W        W52862  21.526  25.761  11.151
51998W        W52863  21.619  27.507  14.250
51999W        W52864  20.273  28.764  14.402
52000W        W52865  21.831  27.858  13.924
52001W        W52866  21.239  28.656  14.535
52002W        W52867  18.978  29.112  13.013
52003W        W52868  21.837  27.734  11.887
52004W        W52869  20.367  27.001  12.400
52005W        W52870  20.134  25.613  12.290
52006W        W52871  19.193  28.597  12.127
52007W        W52872  19.692  26.338  13.352
52008W        W52873  19.392  25.707  12.821
52009W        W52874  18.455  28.529  11.369
52010W        W52875  20.271  27.893  12.087
52011W        W52876  19.146  28.688  13.966
52012W        W52877  18.623  27.511  11.662
52013W        W52878  18.508  26.054  12.661
52014W        W52879  20.056  28.019  12.718
52015W        W52880  18.308  25.873  11.738
52016W        W52881  20.972  27.079  13.665
52017W        W52882  20.849  26.465  11.237
52018W        W52883  21.366  28.137  12.885
52019W        W52884  20.027  28.621  12.716
52020W        W52885  19.439  28.725  11.627
52021W        W52886  20.721  25.628  11.057
52022W        W52887  18.521  28.888  12.798
52023W        W52888  20.718  26.646  14.433
52024W        W52889  18.701  26.176  14.432
52025W        W52890  18.432  26.776  11.765
52026W        W52891  19.123  26.765  11.490
52027W        W52892  20.886  27.092  14.307
52028W        W52893  19.229  27.373  13.016
52029W        W52894  20.703  25.659  12.136
52030W        W52895  19.834  29.090  12.639
52031W        W52896  21.048  28.552  13.576
52032W        W52897  20.632  28.701  12.687
52033W        W52898  20.651  27.681  12.281
52034W        W52899  20.113  25.906  11.352
52035W        W52900  21.794  25.534  12.074
52036W        W52901  19.482  27.169  11.237
52037W        W52902  21.648  26.506  12.227
52038W        W52903  20.340  27.676  11.104
52039W        W52904  21.276  27.876  13.852
52040W        W52905  20.930  28.577  11.319
52041W        W52906  19.545  26.252  14.225
52042W        W52907  19.365  26.836  13.466
52043W        W52908  21.457  28.331  13.743
52044W        W52909  20.557  26.281  14.120
52045W        W52910  18.401  26.752  13.897
52046W        W52911  20.161  27.229  13.623
52047W        W52912  18.518  27.987  12.280
52048W        W52913  18.665  27.284  13.170
52049W        W52914  20.982  27.570  13.520
52050W        W52915  20.754  28.950  14.331
52051W        W52916  20.650  26.689  13.884
52052W        W52917  20.927  28.743  12.289
52053W        W52918  19.929  28.463  13.612
52054W        W52919  19.414  28.818  12.881
52055W        W52920  21.219  27.989  13.300
52056W        W52921  20.269  28.061  14.437
52057W        W52922  18.874  28.014  12.776
52058W        W52923  21.220  27.773  12.421
52059W        W52924  20.861  28.839  13.172
52060W        W52925  18.839  28.568  13.042
52061W        W52926  19.860  26.620  14.252
52062W        W52927  20.311  28.786  11.763
52063W        W52928  19.619  28.041  14.401
52064W        W52929  19.745  28.279  11.778
52065W        W52930  18.966  27.019  11.037
52066W        W52931  18.305  29.105  17.936
52067W        W52932  18.681  27.998  17.459
52068W        W52933  21.386  27.728  15.229
52069W        W52934  21.516  28.813  17.256
52070W        W52935  19.434  28.804  14.782
52071W        W52936  19.517  26.956  15.765
52072W        W52937  19.032  26.804  15.929
52073W        W52938  20.023  27.619  15.363
52074W        W52939  19.698  28.711  17.718
52075W        W52940  18.347  26.272  17.681
52076W        W52941  19.109  25.552  17.483
52077W        W52942  20.803  25.940  16.370
52078W        W52943  20.452  26.811  14.940
52079W        W52944  21.022  26.245  18.031
52080W        W52945  18.388  26.037  17.156
52081W        W52946  18.487  28.656  18.177
52082W        W52947  20.009  28.046  14.909
52083W        W52948  18.441  26.829  16.602
52084W        W52949  19.334  26.720  17.839
52085W        W52950  21.793  26.579  16.338
52086W        W52951  21.557  27.622  17.197
52087W        W52952  19.865  26.955  16.224
52088W        W52953  20.411  28.294  16.593
52089W        W52954  18.911  27.728  16.825
52090W        W52955  18.270  27.256  16.396
52091W        W52956  19.306  27.228  17.588
52092W        W52957  21.577  27.011  17.842
52093W        W52958  19.193  28.455  16.287
52094W        W52959  20.314  28.144  17.421
52095W        W52960  19.534  26.784  16.646
52096W        W52961  19.826  27.568  16.289
52097W        W52962  20.823  28.341  18.137
52098W        W52963  19.902  27.661  18.147
52099W        W52964  19.883  27.377  17.625
52100W        W52965  18.292  26.768  18.147
52101W        W52966  21.124  28.303  17.746
52102W        W52967  18.705  25.885  15.744
52103W        W52968  19.232  28.143  16.743
52104W        W52969  21.695  27.926  16.033
52105W        W52970  21.108  26.326  16.600
52106W        W52971  21.393  26.279  14.695
52107W        W52972  21.858  27.080  17.001
52108W        W52973  19.825  28.787  16.754
52109W        W52974  21.599  28.253  15.192
52110W        W52975  18.728  29.039  14.946
52111W        W52976  19.121  29.085  15.622
52112W        W52977  18.918  25.839  17.048
52113W        W52978  21.541  26.857  17.323
52114W        W52979  20.946  27.279  15.782
52115W        W52980  20.912  26.967  14.809
52116W        W52981  20.120  28.111  16.949
52117W        W52982  19.926  26.441  16.148
52118W        W52983  20.526  28.528  17.142
52119W        W52984  21.397  27.319  15.564
52120W        W52985  20.299  25.977  15.580
52121W        W52986  18.956  28.671  15.263
52122W        W52987  18.327  26.170  15.862
52123W        W52988  21.113  26.777  16.336
52124W        W52989  18.571  28.394  16.251
52125W        W52990  19.912  28.744  15.121
52126W        W52991  21.304  26.770  14.585
52127W        W52992  18.327  28.528  16.749
52128W        W52993  19.118  28.100  17.229
52129W        W52994  19.491  27.460  15.848
52130W        W52995  19.513  25.865  16.941
52131W        W52996  21.742  25.627  16.238
52132W        W52997  18.961  27.499  14.706
52133W        W52998  18.616  26.532  14.885
52134W        W52999  18.678  28.488  15.679
52135W        W53000  19.809  27.971  15.927
52136W        W53001  21.141  28.830  17.641
52137W        W53002  20.067  26.472  15.325
52138W        W53003  21.450  28.870  16.097
52139W        W53004  21.127  26.723  17.695
52140W        W53005  21.840  28.379  15.829
52141W        W53006  20.467  27.671  17.313
52142W        W53007  18.233  27.222  15.519
52143W        W53008  19.344  27.637  17.092
52144W        W53009  20.548  26.901  15.470
52145W        W53010  20.425  27.391  15.574
52146W        W53011  18.768  26.811  17.048
52147W        W53012  18.753  26.687  17.970
52148W        W53013  18.643  25.604  16.129
52149W        W53014  20.411  25.951  16.690
52150W        W53015  20.059  26.136  17.853
52151W        W53016  20.414  26.285  15.031
52152W        W53017  21.597  28.678  17.785
52153W        W53018  20.564  25.759  17.824
52154W        W53019  21.583  28.060  17.946
52155W        W53020  21.013  26.227  17.542
52156W        W53021  20.813  26.165  15.812
52157W        W53022  21.206  27.299  18.216
52158W        W53023  18.946  28.875  16.202
52159W        W53024  19.604  26.592  15.188
52160W        W53025  19.173  25.876  17.852
52161W        W53026  21.225  26.360  15.533
52162W        W53027  21.592  26.842  15.478
52163W        W53028  19.335  29.059  17.949
52164W        W53029  19.261  25.595  15.184
52165W        W53030  21.582  26.129  16.219
52166W        W53031  21.732  28.378  14.664
52167W        W53032  18.639  27.581  16.366
52168W        W53033  20.556  26.168  14.596
52169W        W53034  21.690  28.500  16.316
52170W        W53035  21.729  25.694  17.066
52171W        W53036  20.174  26.906  17.620
52172W        W53037  20.267  28.245  15.323
52173W        W53038  20.667  27.539  18.063
52174W        W53039  20.341  25.516  16.372
52175W        W53040  18.953  26.419  16.435
52176W        W53041  18.507  27.619  17.209
52177W        W53042  20.366  28.812  15.915
52178W        W53043  21.560  26.409  16.787
52179W        W53044  20.197  28.756  17.554
52180W        W53045  21.540  27.815  14.759
52181W        W53046  19.975  27.298  15.820
52182W        W53047  21.827  25.809  17.561
52183W        W53048  19.976  27.644  17.155
52184W        W53049  20.193  26.530  16.600
52185W        W53050  21.045  26.828  15.438
52186W        W53051  21.332  26.561  15.080
52187W        W53052  21.141  28.601  15.469
52188W        W53053  20.975  28.204  16.265
52189W        W53054  20.871  27.283  15.243
52190W        W53055  20.304  27.493  16.229
52191W        W53056  21.185  27.281  16.296
52192W        W53057  18.560  26.296  16.720
52193W        W53058  21.338  27.348  17.547
52194W        W53059  21.689  28.966  16.693
52195W        W53060  19.619  28.410  16.095
52196W        W53061  20.626  28.943  17.419
52197W        W53062  20.620  26.273  17.183
52198W        W53063  19.827  28.981  17.244
52199W        W53064  21.524  25.935  15.710
52200W        W53065  21.315  27.254  17.011
52201W        W53066  18.298  26.575  17.049
52202W        W53067  21.158  26.370  16.067
52203W        W53068  21.569  26.521  17.844
52204W        W53069  20.454  28.220  16.062
52205W        W53070  19.710  28.811  15.675
52206W        W53071  18.825  25.991  14.933
52207W        W53072  19.929  25.645  16.743
52208W        W53073  18.957  28.765  14.591
52209W        W53074  19.331  27.231  15.342
52210W        W53075  19.985  27.860  17.655
52211W        W53076  19.815  26.218  15.645
52212W        W53077  21.171  25.815  16.073
52213W        W53078  20.891  29.097  16.401
52214W        W53079  20.303  28.745  16.741
52215W        W53080  19.699  27.782  16.702
52216W        W53081  21.469  28.505  16.828
52217W        W53082  19.163  26.008  15.597
52218W        W53083  19.685  28.305  16.557
52219W        W53084  19.168  26.236  14.622
52220W        W53085  19.969  26.845  17.016
52221W        W53086  20.817  25.711  16.886
52222W        W53087  18.237  27.554  16.771
52223W        W53088  19.941  27.372  14.929
52224W        W53089  19.209  25.687  14.699
52225W        W53090  19.947  26.768  15.750
52226W        W53091  20.917  25.744  17.449
52227W        W53092  19.505  27.756  17.558
52228W        W53093  20.309  27.538  17.775
52229W        W53094  20.926  27.568  17.668
52230W        W53095  20.210  25.708  18.173
52231W        W53096  19.432  26.324  16.566
52232W        W53097  18.858  26.280  15.964
52233W        W53098  18.644  28.992  15.640
52234W        W53099  19.976  28.322  17.765
52235W        W53100  19.011  27.807  15.124
52236W        W53101  20.691  27.192  16.345
52237W        W53102  20.971  26.991  16.744
52238W        W53103  20.176  27.665  16.678
52239W        W53104  20.646  28.039  14.810
52240W        W53105  20.318  26.060  16.138
52241W        W53106  21.797  26.338  15.406
52242W        W53107  18.291  28.927  17.437
52243W        W53108  18.708  28.153  16.969
52244W        W53109  18.275  28.999  15.201
52245W        W53110  20.174  26.269  17.007
52246W        W53111  19.537  28.292  14.856
52247W        W53112  21.442  28.674  15.042
52248W        W53113  20.417  27.327  15.056
52249W        W53114  19.260  26.518  15.573
52250W        W53115  20.092  26.428  14.625
52251W        W53116  20.676  27.993  17.803
52252W        W53117  21.029  25.899  15.420
52253W        W53118  18.359  25.747  14.868
52254W        W53119  19.645  28.066  17.158
52255W        W53120  19.444  27.982  16.250
52256W        W53121  19.186  27.934  14.648
52257W        W53122  18.427  28.175  15.416
52258W        W53123  18.931  27.245  17.858
52259W        W53124  19.635  25.805  18.044
52260W        W53125  20.344  25.947  17.400
52261W        W53126  19.539  25.715  15.681
52262W        W53127  20.598  25.792  15.186
52263W        W53128  18.543  25.724  16.763
52264W        W53129  18.591  26.687  16.133
52265W        W53130  21.280  25.795  16.539
52266W        W53131  18.702  26.293  15.353
52267W        W53132  21.273  25.981  16.969
52268W        W53133  21.669  27.184  14.654
52269W        W53134  18.961  25.942  16.473
52270W        W53135  20.075  26.514  17.413
52271W        W53136  18.223  26.204  14.891
52272W        W53137  19.009  27.593  17.452
52273W        W53138  20.367  26.991  16.631
52274W        W53139  20.234  29.070  14.927
52275W        W53140  18.380  27.577  14.624
52276W        W53141  19.115  27.988  17.750
52277W        W53142  18.636  27.155  17.381
52278W        W53143  19.627  27.260  17.175
52279W        W53144  21.395  25.619  17.437
52280W        W53145  21.793  27.229  17.428
52281W        W53146  21.781  27.429  15.114
52282W        W53147  20.644  27.761  15.213
52283W        W53148  21.118  29.061  14.908
52284W        W53149  20.295  27.051  18.050
52285W        W53150  18.625  28.018  18.090
52286W        W53151  21.831  25.940  18.042
52287W        W53152  21.549  26.868  16.663
52288W        W53153  19.857  28.998  18.140
52289W        W53154  19.712  25.627  14.867
52290W        W53155  21.251  28.226  14.810
52291W        W53156  19.020  26.319  17.696
52292W        W53157  19.454  28.313  17.558
52293W        W53158  21.580  26.304  17.356
52294W        W53159  20.791  28.963  15.324
52295W        W53160  21.030  27.582  16.691
52296W        W53161  19.280  25.998  17.358
52297W        W53162  19.749  27.067  18.115
52298W        W53163  19.252  28.246  15.309
52299W        W53164  21.007  27.744  15.573
52300W        W53165  18.775  26.370  17.297
52301W        W53166  20.104  28.432  15.761
52302W        W53167  21.854  26.992  15.942
52303W        W53168  20.076  25.625  17.661
52304W        W53169  20.856  28.330  16.740
52305W        W53170  21.159  28.674  16.448
52306W        W53171  20.378  28.476  14.876
52307W        W53172  18.388  28.368  17.718
52308W        W53173  19.131  26.360  16.956
52309W        W53174  19.101  25.708  16.066
52310W        W53175  20.722  26.550  16.758
52311W        W53176  19.520  27.721  14.958
52312W        W53177  21.518  27.663  16.457
52313W        W53178  18.845  28.421  17.880
52314W        W53179  21.232  29.103  15.677
52315W        W53180  19.331  26.123  16.122
52316W        W53181  19.100  27.616  16.212
52317W        W53182  19.413  29.027  16.962
52318W        W53183  21.480  29.123  17.994
52319W        W53184  20.639  27.311  16.927
52320W        W53185  18.488  27.109  14.842
52321W        W53186  21.622  28.767  15.539
52322W        W53187  21.459  26.091  15.158
52323W        W53188  19.598  25.610  17.561
52324W        W53189  21.304  28.412  16.019
52325W        W53190  21.333  26.968  15.924
52326W        W53191  19.450  26.641  16.140
52327W        W53192  19.695  26.903  17.464
52328W        W53193  20.806  28.056  17.327
52329W        W53194  19.456  26.510  17.439
52330W        W53195  19.435  28.976  16.055
52331W        W53196  18.752  28.935  17.689
52332W        W53197  18.864  28.296  14.819
52333W        W53198  21.381  28.054  15.629
52334W        W53199  18.985  26.846  17.515
52335W        W53200  21.758  26.776  14.996
52336W        W53201  19.503  27.833  15.467
52337W        W53202  20.493  26.843  17.092
52338W        W53203  19.053  27.215  17.121
52339W        W53204  21.263  29.103  16.950
52340W        W53205  21.054  25.737  17.944
52341W        W53206  18.718  25.887  17.531
52342W        W53207  19.057  26.910  16.584
52343W        W53208  19.426  26.724  14.706
52344W        W53209  18.229  28.483  17.251
52345W        W53210  19.814  27.192  16.694
52346W        W53211  19.637  26.217  14.799
52347W        W53212  18.772  27.033  15.580
52348W        W53213  18.543  28.885  17.017
52349W        W53214  21.338  27.111  15.125
52350W        W53215  21.433  26.027  17.811
52351W        W53216  20.869  28.236  15.774
52352W        W53217  18.467  27.160  17.951
52353W        W53218  21.433  25.624  15.247
52354W        W53219  20.953  28.099  15.258
52355W        W53220  19.855  27.157  15.343
52356W        W53221  21.042  25.961  14.866
52357W        W53222  21.107  26.568  17.052
52358W        W53223  18.816  27.161  16.259
52359W        W53224  19.110  28.100  15.908
52360W        W53225  20.873  26.720  15.873
52361W        W53226  19.896  26.099  16.569
52362W        W53227  21.858  28.010  17.080
52363W        W53228  21.776  25.997  16.641
52364W        W53229  18.315  28.827  16.017
52365W        W53230  18.824  28.014  15.553
52366W        W53231  18.739  25.631  18.106
52367W        W53232  19.858  28.484  18.208
52368W        W53233  21.613  27.452  15.998
52369W        W53234  20.967  27.629  14.878
52370W        W53235  20.262  29.150  17.090
52371W        W53236  21.119  27.872  18.127
52372W        W53237  19.934  25.582  15.407
52373W        W53238  20.647  26.451  16.266
52374W        W53239  18.333  28.038  16.598
52375W        W53240  19.586  26.000  15.239
52376W        W53241  19.390  27.484  18.088
52377W        W53242  20.384  26.465  15.802
52378W        W53243  20.589  27.875  16.924
52379W        W53244  18.743  28.480  17.359
52380W        W53245  19.334  28.463  18.082
52381W        W53246  19.185  26.260  15.096
52382W        W53247  20.702  26.402  15.421
52383W        W53248  20.660  28.510  17.658
52384W        W53249  19.345  27.102  16.257
52385W        W53250  19.000  28.800  17.122
52386W        W53251  21.745  28.917  14.723
52387W        W53252  18.608  27.589  17.719
52388W        W53253  20.603  27.851  16.407
52389W        W53254  19.039  27.500  15.649
52390W        W53255  19.410  28.507  17.044
52391W        W53256  19.788  25.926  16.085
52392W        W53257  18.399  27.910  15.015
52393W        W53258  19.918  26.861  14.885
52394W        W53259  18.564  27.410  15.904
52395W        W53260  19.854  26.052  17.368
52396W        W53261  21.526  25.761  14.795
52397W        W53262  21.619  27.507  17.894
52398W        W53263  20.273  28.764  18.046
52399W        W53264  21.831  27.858  17.568
52400W        W53265  21.239  28.656  18.179
52401W        W53266  18.978  29.112  16.657
52402W        W53267  21.837  27.734  15.531
52403W        W53268  20.367  27.001  16.044
52404W        W53269  20.134  25.613  15.934
52405W        W53270  19.193  28.597  15.771
52406W        W53271  19.692  26.338  16.996
52407W        W53272  19.392  25.707  16.465
52408W        W53273  18.455  28.529  15.013
52409W        W53274  20.271  27.893  15.731
52410W        W53275  19.146  28.688  17.610
52411W        W53276  18.623  27.511  15.306
52412W        W53277  18.508  26.054  16.305
52413W        W53278  20.056  28.019  16.362
52414W        W53279  18.308  25.873  15.382
52415W        W53280  20.972  27.079  17.309
52416W        W53281  20.849  26.465  14.881
52417W        W53282  21.366  28.137  16.529
52418W        W53283  20.027  28.621  16.360
52419W        W53284  19.439  28.725  15.271
52420W        W53285  20.721  25.628  14.701
52421W        W53286  18.521  28.888  16.442
52422W        W53287  20.718  26.646  18.077
52423W        W53288  18.701  26.176  18.076
52424W        W53289  18.432  26.776  15.409
52425W        W53290  19.123  26.765  15.134
52426W        W53291  20.886  27.092  17.951
52427W        W53292  19.229  27.373  16.660
52428W        W53293  20.703  25.659  15.780
52429W        W53294  19.834  29.090  16.283
52430W        W53295  21.048  28.552  17.220
52431W        W53296  20.632  28.701  16.331
52432W        W53297  20.651  27.681  15.925
52433W        W53298  20.113  25.906  14.996
52434W        W53299  21.794  25.534  15.718
52435W        W53300  19.482  27.169  14.881
52436W        W53301  21.648  26.506  15.871
52437W        W53302  20.340  27.676  14.748
52438W        W53303  21.276  27.876  17.496
52439W        W53304  20.930  28.577  14.963
52440W        W53305  19.545  26.252  17.869
52441W        W53306  19.365  26.836  17.110
52442W        W53307  21.457  28.331  17.387
52443W        W53308  20.557  26.281  17.764
52444W        W53309  18.401  26.752  17.541
52445W        W53310  20.161  27.229  17.267
52446W        W53311  18.518  27.987  15.924
52447W        W53312  18.665  27.284  16.814
52448W        W53313  20.982  27.570  17.164
52449W        W53314  20.754  28.950  17.975
52450W        W53315  20.650  26.689  17.528
52451W        W53316  20.927  28.743  15.933
52452W        W53317  19.929  28.463  17.256
52453W        W53318  19.414  28.818  16.525
52454W        W53319  21.219  27.989  16.944
52455W        W53320  20.269  28.061  18.081
52456W        W53321  18.874  28.014  16.420
52457W        W53322  21.220  27.773  16.065
52458W        W53323  20.861  28.839  16.816
52459W        W53324  18.839  28.568  16.686
52460W        W53325  19.860  26.620  17.896
52461W        W53326  20.311  28.786  15.407
52462W        W53327  19.619  28.041  18.045
52463W        W53328  19.745  28.279  15.422
52464W        W53329  18.966  27.019  14.681
52465W        W53330  18.305  29.105  21.580
52466W        W53331  18.681  27.998  21.103
52467W        W53332  21.386  27.728  18.873
52468W        W53333  21.516  28.813  20.900
52469W        W53334  19.434  28.804  18.426
52470W        W53335  19.517  26.956  19.409
52471W        W53336  19.032  26.804  19.573
52472W        W53337  20.023  27.619  19.007
52473W        W53338  19.698  28.711  21.362
52474W        W53339  18.347  26.272  21.325
52475W        W53340  19.109  25.552  21.127
52476W        W53341  20.803  25.940  20.014
52477W        W53342  20.452  26.811  18.584
52478W        W53343  21.022  26.245  21.675
52479W        W53344  18.388  26.037  20.800
52480W        W53345  18.487  28.656  21.821
52481W        W53346  20.009  28.046  18.553
52482W        W53347  18.441  26.829  20.246
52483W        W53348  19.334  26.720  21.483
52484W        W53349  21.793  26.579  19.982
52485W        W53350  21.557  27.622  20.841
52486W        W53351  19.865  26.955  19.868
52487W        W53352  20.411  28.294  20.237
52488W        W53353  18.911  27.728  20.469
52489W        W53354  18.270  27.256  20.040
52490W        W53355  19.306  27.228  21.232
52491W        W53356  21.577  27.011  21.486
52492W        W53357  19.193  28.455  19.931
52493W        W53358  20.314  28.144  21.065
52494W        W53359  19.534  26.784  20.290
52495W        W53360  19.826  27.568  19.933
52496W        W53361  20.823  28.341  21.781
52497W        W53362  19.902  27.661  21.791
52498W        W53363  19.883  27.377  21.269
52499W        W53364  18.292  26.768  21.791
52500W        W53365  21.124  28.303  21.390
52501W        W53366  18.705  25.885  19.388
52502W        W53367  19.232  28.143  20.387
52503W        W53368  21.695  27.926  19.677
52504W        W53369  21.108  26.326  20.244
52505W        W53370  21.393  26.279  18.339
52506W        W53371  21.858  27.080  20.645
52507W        W53372  19.825  28.787  20.398
52508W        W53373  21.599  28.253  18.836
52509W        W53374  18.728  29.039  18.590
52510W        W53375  19.121  29.085  19.266
52511W        W53376  18.918  25.839  20.692
52512W        W53377  21.541  26.857  20.967
52513W        W53378  20.946  27.279  19.426
52514W        W53379  20.912  26.967  18.453
52515W        W53380  20.120  28.111  20.593
52516W        W53381  19.926  26.441  19.792
52517W        W53382  20.526  28.528  20.786
52518W        W53383  21.397  27.319  19.208
52519W        W53384  20.299  25.977  19.224
52520W        W53385  18.956  28.671  18.907
52521W        W53386  18.327  26.170  19.506
52522W        W53387  21.113  26.777  19.980
52523W        W53388  18.571  28.394  19.895
52524W        W53389  19.912  28.744  18.765
52525W        W53390  21.304  26.770  18.229
52526W        W53391  18.327  28.528  20.393
52527W        W53392  19.118  28.100  20.873
52528W        W53393  19.491  27.460  19.492
52529W        W53394  19.513  25.865  20.585
52530W        W53395  21.742  25.627  19.882
52531W        W53396  18.961  27.499  18.350
52532W        W53397  18.616  26.532  18.529
52533W        W53398  18.678  28.488  19.323
52534W        W53399  19.809  27.971  19.571
52535W        W53400  21.141  28.830  21.285
52536W        W53401  20.067  26.472  18.969
52537W        W53402  21.450  28.870  19.741
52538W        W53403  21.127  26.723  21.339
52539W        W53404  21.840  28.379  19.473
52540W        W53405  20.467  27.671  20.957
52541W        W53406  18.233  27.222  19.163
52542W        W53407  19.344  27.637  20.736
52543W        W53408  20.548  26.901  19.114
52544W        W53409  20.425  27.391  19.218
52545W        W53410  18.768  26.811  20.692
52546W        W53411  18.753  26.687  21.614
52547W        W53412  18.643  25.604  19.773
52548W        W53413  20.411  25.951  20.334
52549W        W53414  20.059  26.136  21.497
52550W        W53415  20.414  26.285  18.675
52551W        W53416  21.597  28.678  21.429
52552W        W53417  20.564  25.759  21.468
52553W        W53418  21.583  28.060  21.590
52554W        W53419  21.013  26.227  21.186
52555W        W53420  20.813  26.165  19.456
52556W        W53421  21.206  27.299  21.860
52557W        W53422  18.946  28.875  19.846
52558W        W53423  19.604  26.592  18.832
52559W        W53424  19.173  25.876  21.496
52560W        W53425  21.225  26.360  19.177
52561W        W53426  21.592  26.842  19.122
52562W        W53427  19.335  29.059  21.593
52563W        W53428  19.261  25.595  18.828
52564W        W53429  21.582  26.129  19.863
52565W        W53430  21.732  28.378  18.308
52566W        W53431  18.639  27.581  20.010
52567W        W53432  20.556  26.168  18.240
52568W        W53433  21.690  28.500  19.960
52569W        W53434  21.729  25.694  20.710
52570W        W53435  20.174  26.906  21.264
52571W        W53436  20.267  28.245  18.967
52572W        W53437  20.667  27.539  21.707
52573W        W53438  20.341  25.516  20.016
52574W        W53439  18.953  26.419  20.079
52575W        W53440  18.507  27.619  20.853
52576W        W53441  20.366  28.812  19.559
52577W        W53442  21.560  26.409  20.431
52578W        W53443  20.197  28.756  21.198
52579W        W53444  21.540  27.815  18.403
52580W        W53445  19.975  27.298  19.464
52581W        W53446  21.827  25.809  21.205
52582W        W53447  19.976  27.644  20.799
52583W        W53448  20.193  26.530  20.244
52584W        W53449  21.045  26.828  19.082
52585W        W53450  21.332  26.561  18.724
52586W        W53451  21.141  28.601  19.113
52587W        W53452  20.975  28.204  19.909
52588W        W53453  20.871  27.283  18.887
52589W        W53454  20.304  27.493  19.873
52590W        W53455  21.185  27.281  19.940
52591W        W53456  18.560  26.296  20.364
52592W        W53457  21.338  27.348  21.191
52593W        W53458  21.689  28.966  20.337
52594W        W53459  19.619  28.410  19.739
52595W        W53460  20.626  28.943  21.063
52596W        W53461  20.620  26.273  20.827
52597W        W53462  19.827  28.981  20.888
52598W        W53463  21.524  25.935  19.354
52599W        W53464  21.315  27.254  20.655
52600W        W53465  18.298  26.575  20.693
52601W        W53466  21.158  26.370  19.711
52602W        W53467  21.569  26.521  21.488
52603W        W53468  20.454  28.220  19.706
52604W        W53469  19.710  28.811  19.319
52605W        W53470  18.825  25.991  18.577
52606W        W53471  19.929  25.645  20.387
52607W        W53472  18.957  28.765  18.235
52608W        W53473  19.331  27.231  18.986
52609W        W53474  19.985  27.860  21.299
52610W        W53475  19.815  26.218  19.289
52611W        W53476  21.171  25.815  19.717
52612W        W53477  20.891  29.097  20.045
52613W        W53478  20.303  28.745  20.385
52614W        W53479  19.699  27.782  20.346
52615W        W53480  21.469  28.505  20.472
52616W        W53481  19.163  26.008  19.241
52617W        W53482  19.685  28.305  20.201
52618W        W53483  19.168  26.236  18.266
52619W        W53484  19.969  26.845  20.660
52620W        W53485  20.817  25.711  20.530
52621W        W53486  18.237  27.554  20.415
52622W        W53487  19.941  27.372  18.573
52623W        W53488  19.209  25.687  18.343
52624W        W53489  19.947  26.768  19.394
52625W        W53490  20.917  25.744  21.093
52626W        W53491  19.505  27.756  21.202
52627W        W53492  20.309  27.538  21.419
52628W        W53493  20.926  27.568  21.312
52629W        W53494  20.210  25.708  21.817
52630W        W53495  19.432  26.324  20.210
52631W        W53496  18.858  26.280  19.608
52632W        W53497  18.644  28.992  19.284
52633W        W53498  19.976  28.322  21.409
52634W        W53499  19.011  27.807  18.768
52635W        W53500  20.691  27.192  19.989
52636W        W53501  20.971  26.991  20.388
52637W        W53502  20.176  27.665  20.322
52638W        W53503  20.646  28.039  18.454
52639W        W53504  20.318  26.060  19.782
52640W        W53505  21.797  26.338  19.050
52641W        W53506  18.291  28.927  21.081
52642W        W53507  18.708  28.153  20.613
52643W        W53508  18.275  28.999  18.845
52644W        W53509  20.174  26.269  20.651
52645W        W53510  19.537  28.292  18.500
52646W        W53511  21.442  28.674  18.686
52647W        W53512  20.417  27.327  18.700
52648W        W53513  19.260  26.518  19.217
52649W        W53514  20.092  26.428  18.269
52650W        W53515  20.676  27.993  21.447
52651W        W53516  21.029  25.899  19.064
52652W        W53517  18.359  25.747  18.512
52653W        W53518  19.645  28.066  20.802
52654W        W53519  19.444  27.982  19.894
52655W        W53520  19.186  27.934  18.292
52656W        W53521  18.427  28.175  19.060
52657W        W53522  18.931  27.245  21.502
52658W        W53523  19.635  25.805  21.688
52659W        W53524  20.344  25.947  21.044
52660W        W53525  19.539  25.715  19.325
52661W        W53526  20.598  25.792  18.830
52662W        W53527  18.543  25.724  20.407
52663W        W53528  18.591  26.687  19.777
52664W        W53529  21.280  25.795  20.183
52665W        W53530  18.702  26.293  18.997
52666W        W53531  21.273  25.981  20.613
52667W        W53532  21.669  27.184  18.298
52668W        W53533  18.961  25.942  20.117
52669W        W53534  20.075  26.514  21.057
52670W        W53535  18.223  26.204  18.535
52671W        W53536  19.009  27.593  21.096
52672W        W53537  20.367  26.991  20.275
52673W        W53538  20.234  29.070  18.571
52674W        W53539  18.380  27.577  18.268
52675W        W53540  19.115  27.988  21.394
52676W        W53541  18.636  27.155  21.025
52677W        W53542  19.627  27.260  20.819
52678W        W53543  21.395  25.619  21.081
52679W        W53544  21.793  27.229  21.072
52680W        W53545  21.781  27.429  18.758
52681W        W53546  20.644  27.761  18.857
52682W        W53547  21.118  29.061  18.552
52683W        W53548  20.295  27.051  21.694
52684W        W53549  18.625  28.018  21.734
52685W        W53550  21.831  25.940  21.686
52686W        W53551  21.549  26.868  20.307
52687W        W53552  19.857  28.998  21.784
52688W        W53553  19.712  25.627  18.511
52689W        W53554  21.251  28.226  18.454
52690W        W53555  19.020  26.319  21.340
52691W        W53556  19.454  28.313  21.202
52692W        W53557  21.580  26.304  21.000
52693W        W53558  20.791  28.963  18.968
52694W        W53559  21.030  27.582  20.335
52695W        W53560  19.280  25.998  21.002
52696W        W53561  19.749  27.067  21.759
52697W        W53562  19.252  28.246  18.953
52698W        W53563  21.007  27.744  19.217
52699W        W53564  18.775  26.370  20.941
52700W        W53565  20.104  28.432  19.405
52701W        W53566  21.854  26.992  19.586
52702W        W53567  20.076  25.625  21.305
52703W        W53568  20.856  28.330  20.384
52704W        W53569  21.159  28.674  20.092
52705W        W53570  20.378  28.476  18.520
52706W        W53571  18.388  28.368  21.362
52707W        W53572  19.131  26.360  20.600
52708W        W53573  19.101  25.708  19.710
52709W        W53574  20.722  26.550  20.402
52710W        W53575  19.520  27.721  18.602
52711W        W53576  21.518  27.663  20.101
52712W        W53577  18.845  28.421  21.524
52713W        W53578  21.232  29.103  19.321
52714W        W53579  19.331  26.123  19.766
52715W        W53580  19.100  27.616  19.856
52716W        W53581  19.413  29.027  20.606
52717W        W53582  21.480  29.123  21.638
52718W        W53583  20.639  27.311  20.571
52719W        W53584  18.488  27.109  18.486
52720W        W53585  21.622  28.767  19.183
52721W        W53586  21.459  26.091  18.802
52722W        W53587  19.598  25.610  21.205
52723W        W53588  21.304  28.412  19.663
52724W        W53589  21.333  26.968  19.568
52725W        W53590  19.450  26.641  19.784
52726W        W53591  19.695  26.903  21.108
52727W        W53592  20.806  28.056  20.971
52728W        W53593  19.456  26.510  21.083
52729W        W53594  19.435  28.976  19.699
52730W        W53595  18.752  28.935  21.333
52731W        W53596  18.864  28.296  18.463
52732W        W53597  21.381  28.054  19.273
52733W        W53598  18.985  26.846  21.159
52734W        W53599  21.758  26.776  18.640
52735W        W53600  19.503  27.833  19.111
52736W        W53601  20.602  27.215  21.192
52737W        W53602  20.493  26.843  20.736
52738W        W53603  19.053  27.215  20.765
52739W        W53604  21.263  29.103  20.594
52740W        W53605  21.054  25.737  21.588
52741W        W53606  18.718  25.887  21.175
52742W        W53607  19.057  26.910  20.228
52743W        W53608  19.426  26.724  18.350
52744W        W53609  18.229  28.483  20.895
52745W        W53610  19.814  27.192  20.338
52746W        W53611  19.637  26.217  18.443
52747W        W53612  18.772  27.033  19.224
52748W        W53613  18.543  28.885  20.661
52749W        W53614  21.338  27.111  18.769
52750W        W53615  21.433  26.027  21.455
52751W        W53616  20.869  28.236  19.418
52752W        W53617  18.467  27.160  21.595
52753W        W53618  21.433  25.624  18.891
52754W        W53619  20.953  28.099  18.902
52755W        W53620  19.855  27.157  18.987
52756W        W53621  21.042  25.961  18.510
52757W        W53622  21.107  26.568  20.696
52758W        W53623  18.816  27.161  19.903
52759W        W53624  19.110  28.100  19.552
52760W        W53625  20.873  26.720  19.517
52761W        W53626  19.896  26.099  20.213
52762W        W53627  21.858  28.010  20.724
52763W        W53628  21.776  25.997  20.285
52764W        W53629  18.315  28.827  19.661
52765W        W53630  18.824  28.014  19.197
52766W        W53631  18.739  25.631  21.750
52767W        W53632  19.858  28.484  21.852
52768W        W53633  21.613  27.452  19.642
52769W        W53634  20.967  27.629  18.522
52770W        W53635  20.262  29.150  20.734
52771W        W53636  21.119  27.872  21.771
52772W        W53637  19.934  25.582  19.051
52773W        W53638  20.647  26.451  19.910
52774W        W53639  18.333  28.038  20.242
52775W        W53640  19.586  26.000  18.883
52776W        W53641  19.390  27.484  21.732
52777W        W53642  20.384  26.465  19.446
52778W        W53643  20.589  27.875  20.568
52779W        W53644  18.743  28.480  21.003
52780W        W53645  19.334  28.463  21.726
52781W        W53646  19.185  26.260  18.740
52782W        W53647  20.702  26.402  19.065
52783W        W53648  20.660  28.510  21.302
52784W        W53649  19.345  27.102  19.901
52785W        W53650  19.000  28.800  20.766
52786W        W53651  21.745  28.917  18.367
52787W        W53652  18.608  27.589  21.363
52788W        W53653  20.603  27.851  20.051
52789W        W53654  19.039  27.500  19.293
52790W        W53655  19.410  28.507  20.688
52791W        W53656  19.788  25.926  19.729
52792W        W53657  18.399  27.910  18.659
52793W        W53658  19.918  26.861  18.529
52794W        W53659  18.564  27.410  19.548
52795W        W53660  19.854  26.052  21.012
52796W        W53661  21.526  25.761  18.439
52797W        W53662  21.619  27.507  21.538
52798W        W53663  20.273  28.764  21.690
52799W        W53664  21.831  27.858  21.212
52800W        W53665  21.239  28.656  21.823
52801W        W53666  18.978  29.112  20.301
52802W        W53667  21.837  27.734  19.175
52803W        W53668  20.367  27.001  19.688
52804W        W53669  20.134  25.613  19.578
52805W        W53670  19.193  28.597  19.415
52806W        W53671  19.692  26.338  20.640
52807W        W53672  19.392  25.707  20.109
52808W        W53673  18.455  28.529  18.657
52809W        W53674  20.271  27.893  19.375
52810W        W53675  19.146  28.688  21.254
52811W        W53676  18.623  27.511  18.950
52812W        W53677  18.508  26.054  19.949
52813W        W53678  20.056  28.019  20.006
52814W        W53679  18.308  25.873  19.026
52815W        W53680  20.972  27.079  20.953
52816W        W53681  20.849  26.465  18.525
52817W        W53682  21.366  28.137  20.173
52818W        W53683  20.027  28.621  20.004
52819W        W53684  19.439  28.725  18.915
52820W        W53685  20.721  25.628  18.345
52821W        W53686  18.521  28.888  20.086
52822W        W53687  20.718  26.646  21.721
52823W        W53688  18.701  26.176  21.720
52824W        W53689  18.432  26.776  19.053
52825W        W53690  19.123  26.765  18.778
52826W        W53691  20.886  27.092  21.595
52827W        W53692  19.229  27.373  20.304
52828W        W53693  20.703  25.659  19.424
52829W        W53694  19.834  29.090  19.927
52830W        W53695  21.048  28.552  20.864
52831W        W53696  20.632  28.701  19.975
52832W        W53697  20.651  27.681  19.569
52833W        W53698  20.113  25.906  18.640
52834W        W53699  21.794  25.534  19.362
52835W        W53700  19.482  27.169  18.525
52836W        W53701  21.648  26.506  19.515
52837W        W53702  20.340  27.676  18.392
52838W        W53703  21.276  27.876  21.140
52839W        W53704  20.930  28.577  18.607
52840W        W53705  19.545  26.252  21.513
52841W        W53706  19.365  26.836  20.754
52842W        W53707  21.457  28.331  21.031
52843W        W53708  20.557  26.281  21.408
52844W        W53709  18.401  26.752  21.185
52845W        W53710  20.161  27.229  20.911
52846W        W53711  18.518  27.987  19.568
52847W        W53712  18.665  27.284  20.458
52848W        W53713  20.982  27.570  20.808
52849W        W53714  20.754  28.950  21.619
52850W        W53715  20.650  26.689  21.172
52851W        W53716  20.927  28.743  19.577
52852W        W53717  19.929  28.463  20.900
52853W        W53718  19.414  28.818  20.169
52854W        W53719  21.219  27.989  20.588
52855W        W53720  20.269  28.061  21.725
52856W        W53721  18.874  28.014  20.064
52857W        W53722  21.220  27.773  19.709
52858W        W53723  20.861  28.839  20.460
52859W        W53724  18.839  28.568  20.330
52860W        W53725  19.860  26.620  21.540
52861W        W53726  20.311  28.786  19.051
52862W        W53727  19.619  28.041  21.689
52863W        W53728  19.745  28.279  19.066
52864W        W53729  18.966  27.019  18.325
52865W        W53730  18.305  29.105  25.225
52866W        W53731  18.681  27.998  24.748
52867W        W53732  21.386  27.728  22.518
52868W        W53733  21.516  28.813  24.545
52869W        W53734  19.434  28.804  22.071
52870W        W53735  19.517  26.956  23.054
52871W        W53736  19.032  26.804  23.218
52872W        W53737  20.023  27.619  22.652
52873W        W53738  19.698  28.711  25.007
52874W        W53739  18.347  26.272  24.970
52875W        W53740  19.109  25.552  24.772
52876W        W53741  20.803  25.940  23.659
52877W        W53742  20.452  26.811  22.229
52878W        W53743  21.022  26.245  25.320
52879W        W53744  18.388  26.037  24.445
52880W        W53745  18.487  28.656  25.466
52881W        W53746  20.009  28.046  22.198
52882W        W53747  18.441  26.829  23.891
52883W        W53748  19.334  26.720  25.128
52884W        W53749  21.793  26.579  23.627
52885W        W53750  21.557  27.622  24.486
52886W        W53751  19.865  26.955  23.513
52887W        W53752  20.411  28.294  23.882
52888W        W53753  18.911  27.728  24.114
52889W        W53754  18.270  27.256  23.685
52890W        W53755  19.306  27.228  24.877
52891W        W53756  21.577  27.011  25.131
52892W        W53757  19.193  28.455  23.576
52893W        W53758  20.314  28.144  24.710
52894W        W53759  19.534  26.784  23.935
52895W        W53760  19.826  27.568  23.578
52896W        W53761  20.823  28.341  25.426
52897W        W53762  19.902  27.661  25.436
52898W        W53763  19.883  27.377  24.914
52899W        W53764  18.292  26.768  25.436
52900W        W53765  21.124  28.303  25.035
52901W        W53766  18.705  25.885  23.033
52902W        W53767  19.232  28.143  24.032
52903W        W53768  21.695  27.926  23.322
52904W        W53769  21.108  26.326  23.889
52905W        W53770  21.393  26.279  21.984
52906W        W53771  21.858  27.080  24.290
52907W        W53772  19.825  28.787  24.043
52908W        W53773  21.599  28.253  22.481
52909W        W53774  18.728  29.039  22.235
52910W        W53775  19.121  29.085  22.911
52911W        W53776  18.918  25.839  24.337
52912W        W53777  21.541  26.857  24.612
52913W        W53778  20.946  27.279  23.071
52914W        W53779  20.912  26.967  22.098
52915W        W53780  20.120  28.111  24.238
52916W        W53781  19.926  26.441  23.437
52917W        W53782  20.526  28.528  24.431
52918W        W53783  21.397  27.319  22.853
52919W        W53784  20.299  25.977  22.869
52920W        W53785  18.956  28.671  22.552
52921W        W53786  18.327  26.170  23.151
52922W        W53787  21.113  26.777  23.625
52923W        W53788  18.571  28.394  23.540
52924W        W53789  19.912  28.744  22.410
52925W        W53790  21.304  26.770  21.874
52926W        W53791  18.327  28.528  24.038
52927W        W53792  19.118  28.100  24.518
52928W        W53793  19.491  27.460  23.137
52929W        W53794  19.513  25.865  24.230
52930W        W53795  21.742  25.627  23.527
52931W        W53796  18.961  27.499  21.995
52932W        W53797  18.616  26.532  22.174
52933W        W53798  18.678  28.488  22.968
52934W        W53799  19.809  27.971  23.216
52935W        W53800  21.141  28.830  24.930
52936W        W53801  20.067  26.472  22.614
52937W        W53802  21.450  28.870  23.386
52938W        W53803  21.127  26.723  24.984
52939W        W53804  21.840  28.379  23.118
52940W        W53805  20.467  27.671  24.602
52941W        W53806  18.233  27.222  22.808
52942W        W53807  19.344  27.637  24.381
52943W        W53808  20.548  26.901  22.759
52944W        W53809  20.425  27.391  22.863
52945W        W53810  18.768  26.811  24.337
52946W        W53811  18.753  26.687  25.259
52947W        W53812  18.643  25.604  23.418
52948W        W53813  20.411  25.951  23.979
52949W        W53814  20.059  26.136  25.142
52950W        W53815  20.414  26.285  22.320
52951W        W53816  21.597  28.678  25.074
52952W        W53817  20.564  25.759  25.113
52953W        W53818  21.583  28.060  25.235
52954W        W53819  21.013  26.227  24.831
52955W        W53820  20.813  26.165  23.101
52956W        W53821  21.206  27.299  25.505
52957W        W53822  18.946  28.875  23.491
52958W        W53823  19.604  26.592  22.477
52959W        W53824  19.173  25.876  25.141
52960W        W53825  21.225  26.360  22.822
52961W        W53826  21.592  26.842  22.767
52962W        W53827  19.335  29.059  25.238
52963W        W53828  19.261  25.595  22.473
52964W        W53829  21.582  26.129  23.508
52965W        W53830  21.732  28.378  21.953
52966W        W53831  18.639  27.581  23.655
52967W        W53832  20.556  26.168  21.885
52968W        W53833  21.690  28.500  23.605
52969W        W53834  21.729  25.694  24.355
52970W        W53835  20.174  26.906  24.909
52971W        W53836  20.267  28.245  22.612
52972W        W53837  20.667  27.539  25.352
52973W        W53838  20.341  25.516  23.661
52974W        W53839  18.953  26.419  23.724
52975W        W53840  18.507  27.619  24.498
52976W        W53841  20.366  28.812  23.204
52977W        W53842  21.560  26.409  24.076
52978W        W53843  20.197  28.756  24.843
52979W        W53844  21.540  27.815  22.048
52980W        W53845  19.975  27.298  23.109
52981W        W53846  21.827  25.809  24.850
52982W        W53847  19.976  27.644  24.444
52983W        W53848  20.193  26.530  23.889
52984W        W53849  21.045  26.828  22.727
52985W        W53850  21.332  26.561  22.369
52986W        W53851  21.141  28.601  22.758
52987W        W53852  20.975  28.204  23.554
52988W        W53853  20.871  27.283  22.532
52989W        W53854  20.304  27.493  23.518
52990W        W53855  21.185  27.281  23.585
52991W        W53856  18.560  26.296  24.009
52992W        W53857  21.338  27.348  24.836
52993W        W53858  21.689  28.966  23.982
52994W        W53859  19.619  28.410  23.384
52995W        W53860  20.626  28.943  24.708
52996W        W53861  20.620  26.273  24.472
52997W        W53862  19.827  28.981  24.533
52998W        W53863  21.524  25.935  22.999
52999W        W53864  21.315  27.254  24.300
53000W        W53865  18.298  26.575  24.338
53001W        W53866  21.158  26.370  23.356
53002W        W53867  21.569  26.521  25.133
53003W        W53868  20.454  28.220  23.351
53004W        W53869  19.710  28.811  22.964
53005W        W53870  18.825  25.991  22.222
53006W        W53871  19.929  25.645  24.032
53007W        W53872  18.957  28.765  21.880
53008W        W53873  19.331  27.231  22.631
53009W        W53874  19.985  27.860  24.944
53010W        W53875  19.815  26.218  22.934
53011W        W53876  21.171  25.815  23.362
53012W        W53877  20.891  29.097  23.690
53013W        W53878  20.303  28.745  24.030
53014W        W53879  19.699  27.782  23.991
53015W        W53880  21.469  28.505  24.117
53016W        W53881  19.163  26.008  22.886
53017W        W53882  19.685  28.305  23.846
53018W        W53883  19.168  26.236  21.911
53019W        W53884  19.969  26.845  24.305
53020W        W53885  20.817  25.711  24.175
53021W        W53886  18.237  27.554  24.060
53022W        W53887  19.941  27.372  22.218
53023W        W53888  19.209  25.687  21.988
53024W        W53889  19.947  26.768  23.039
53025W        W53890  20.917  25.744  24.738
53026W        W53891  19.505  27.756  24.847
53027W        W53892  20.309  27.538  25.064
53028W        W53893  20.926  27.568  24.957
53029W        W53894  20.210  25.708  25.462
53030W        W53895  19.432  26.324  23.855
53031W        W53896  18.858  26.280  23.253
53032W        W53897  18.644  28.992  22.929
53033W        W53898  19.976  28.322  25.054
53034W        W53899  19.011  27.807  22.413
53035W        W53900  20.691  27.192  23.634
53036W        W53901  20.971  26.991  24.033
53037W        W53902  20.176  27.665  23.967
53038W        W53903  20.646  28.039  22.099
53039W        W53904  20.318  26.060  23.427
53040W        W53905  21.797  26.338  22.695
53041W        W53906  18.291  28.927  24.726
53042W        W53907  18.708  28.153  24.258
53043W        W53908  18.275  28.999  22.490
53044W        W53909  20.174  26.269  24.296
53045W        W53910  19.537  28.292  22.145
53046W        W53911  21.442  28.674  22.331
53047W        W53912  20.417  27.327  22.345
53048W        W53913  19.260  26.518  22.862
53049W        W53914  20.092  26.428  21.914
53050W        W53915  20.676  27.993  25.092
53051W        W53916  21.029  25.899  22.709
53052W        W53917  18.359  25.747  22.157
53053W        W53918  19.645  28.066  24.447
53054W        W53919  19.444  27.982  23.539
53055W        W53920  19.186  27.934  21.937
53056W        W53921  18.427  28.175  22.705
53057W        W53922  18.931  27.245  25.147
53058W        W53923  19.635  25.805  25.333
53059W        W53924  20.344  25.947  24.689
53060W        W53925  19.539  25.715  22.970
53061W        W53926  20.598  25.792  22.475
53062W        W53927  18.543  25.724  24.052
53063W        W53928  18.591  26.687  23.422
53064W        W53929  21.280  25.795  23.828
53065W        W53930  18.702  26.293  22.642
53066W        W53931  21.273  25.981  24.258
53067W        W53932  21.669  27.184  21.943
53068W        W53933  18.961  25.942  23.762
53069W        W53934  20.075  26.514  24.702
53070W        W53935  18.223  26.204  22.180
53071W        W53936  19.009  27.593  24.741
53072W        W53937  20.367  26.991  23.920
53073W        W53938  20.234  29.070  22.216
53074W        W53939  18.380  27.577  21.913
53075W        W53940  19.115  27.988  25.039
53076W        W53941  18.636  27.155  24.670
53077W        W53942  19.627  27.260  24.464
53078W        W53943  21.395  25.619  24.726
53079W        W53944  21.793  27.229  24.717
53080W        W53945  21.781  27.429  22.403
53081W        W53946  20.644  27.761  22.502
53082W        W53947  21.118  29.061  22.197
53083W        W53948  20.295  27.051  25.339
53084W        W53949  18.625  28.018  25.379
53085W        W53950  21.831  25.940  25.331
53086W        W53951  21.549  26.868  23.952
53087W        W53952  19.857  28.998  25.429
53088W        W53953  19.712  25.627  22.156
53089W        W53954  21.251  28.226  22.099
53090W        W53955  19.020  26.319  24.985
53091W        W53956  19.454  28.313  24.847
53092W        W53957  21.580  26.304  24.645
53093W        W53958  20.791  28.963  22.613
53094W        W53959  21.030  27.582  23.980
53095W        W53960  19.280  25.998  24.647
53096W        W53961  19.749  27.067  25.404
53097W        W53962  19.252  28.246  22.598
53098W        W53963  21.007  27.744  22.862
53099W        W53964  18.775  26.370  24.586
53100W        W53965  20.104  28.432  23.050
53101W        W53966  21.854  26.992  23.231
53102W        W53967  20.076  25.625  24.950
53103W        W53968  20.856  28.330  24.029
53104W        W53969  21.159  28.674  23.737
53105W        W53970  20.378  28.476  22.165
53106W        W53971  18.388  28.368  25.007
53107W        W53972  19.131  26.360  24.245
53108W        W53973  19.101  25.708  23.355
53109W        W53974  20.722  26.550  24.047
53110W        W53975  19.520  27.721  22.247
53111W        W53976  21.518  27.663  23.746
53112W        W53977  18.845  28.421  25.169
53113W        W53978  21.232  29.103  22.966
53114W        W53979  19.331  26.123  23.411
53115W        W53980  19.100  27.616  23.501
53116W        W53981  19.413  29.027  24.251
53117W        W53982  21.480  29.123  25.283
53118W        W53983  20.639  27.311  24.216
53119W        W53984  18.488  27.109  22.131
53120W        W53985  21.622  28.767  22.828
53121W        W53986  21.459  26.091  22.447
53122W        W53987  19.598  25.610  24.850
53123W        W53988  21.304  28.412  23.308
53124W        W53989  21.333  26.968  23.213
53125W        W53990  19.450  26.641  23.429
53126W        W53991  19.695  26.903  24.753
53127W        W53992  20.806  28.056  24.616
53128W        W53993  19.456  26.510  24.728
53129W        W53994  19.435  28.976  23.344
53130W        W53995  18.752  28.935  24.978
53131W        W53996  18.864  28.296  22.108
53132W        W53997  21.381  28.054  22.918
53133W        W53998  18.985  26.846  24.804
53134W        W53999  21.758  26.776  22.285
53135W        W54000  19.503  27.833  22.756
53136W        W54001  20.602  27.215  24.837
53137W        W54002  20.493  26.843  24.381
53138W        W54003  19.053  27.215  24.410
53139W        W54004  21.263  29.103  24.239
53140W        W54005  21.054  25.737  25.233
53141W        W54006  18.718  25.887  24.820
53142W        W54007  19.057  26.910  23.873
53143W        W54008  19.426  26.724  21.995
53144W        W54009  18.229  28.483  24.540
53145W        W54010  19.814  27.192  23.983
53146W        W54011  19.637  26.217  22.088
53147W        W54012  18.772  27.033  22.869
53148W        W54013  18.543  28.885  24.306
53149W        W54014  21.338  27.111  22.414
53150W        W54015  21.433  26.027  25.100
53151W        W54016  20.869  28.236  23.063
53152W        W54017  18.467  27.160  25.240
53153W        W54018  21.433  25.624  22.536
53154W        W54019  20.953  28.099  22.547
53155W        W54020  19.855  27.157  22.632
53156W        W54021  21.042  25.961  22.155
53157W        W54022  21.107  26.568  24.341
53158W        W54023  18.816  27.161  23.548
53159W        W54024  19.110  28.100  23.197
53160W        W54025  20.873  26.720  23.162
53161W        W54026  19.896  26.099  23.858
53162W        W54027  21.858  28.010  24.369
53163W        W54028  21.776  25.997  23.930
53164W        W54029  18.315  28.827  23.306
53165W        W54030  18.824  28.014  22.842
53166W        W54031  18.739  25.631  25.395
53167W        W54032  19.858  28.484  25.497
53168W        W54033  21.613  27.452  23.287
53169W        W54034  20.967  27.629  22.167
53170W        W54035  20.262  29.150  24.379
53171W        W54036  21.119  27.872  25.416
53172W        W54037  19.934  25.582  22.696
53173W        W54038  20.647  26.451  23.555
53174W        W54039  18.333  28.038  23.887
53175W        W54040  19.586  26.000  22.528
53176W        W54041  19.390  27.484  25.377
53177W        W54042  20.384  26.465  23.091
53178W        W54043  20.589  27.875  24.213
53179W        W54044  18.743  28.480  24.648
53180W        W54045  19.334  28.463  25.371
53181W        W54046  19.185  26.260  22.385
53182W        W54047  20.702  26.402  22.710
53183W        W54048  20.660  28.510  24.947
53184W        W54049  19.345  27.102  23.546
53185W        W54050  19.000  28.800  24.411
53186W        W54051  21.745  28.917  22.012
53187W        W54052  18.608  27.589  25.008
53188W        W54053  20.603  27.851  23.696
53189W        W54054  19.039  27.500  22.938
53190W        W54055  19.410  28.507  24.333
53191W        W54056  19.788  25.926  23.374
53192W        W54057  18.399  27.910  22.304
53193W        W54058  19.918  26.861  22.174
53194W        W54059  18.564  27.410  23.193
53195W        W54060  19.854  26.052  24.657
53196W        W54061  21.526  25.761  22.084
53197W        W54062  21.619  27.507  25.183
53198W        W54063  20.273  28.764  25.335
53199W        W54064  21.831  27.858  24.857
53200W        W54065  21.239  28.656  25.468
53201W        W54066  18.978  29.112  23.946
53202W        W54067  21.837  27.734  22.820
53203W        W54068  20.367  27.001  23.333
53204W        W54069  20.134  25.613  23.223
53205W        W54070  19.193  28.597  23.060
53206W        W54071  19.692  26.338  24.285
53207W        W54072  19.392  25.707  23.754
53208W        W54073  18.455  28.529  22.302
53209W        W54074  20.271  27.893  23.020
53210W        W54075  19.146  28.688  24.899
53211W        W54076  18.623  27.511  22.595
53212W        W54077  18.508  26.054  23.594
53213W        W54078  20.056  28.019  23.651
53214W        W54079  18.308  25.873  22.671
53215W        W54080  20.972  27.079  24.598
53216W        W54081  20.849  26.465  22.170
53217W        W54082  21.366  28.137  23.818
53218W        W54083  20.027  28.621  23.649
53219W        W54084  19.439  28.725  22.560
53220W        W54085  20.721  25.628  21.990
53221W        W54086  18.521  28.888  23.731
53222W        W54087  20.718  26.646  25.366
53223W        W54088  18.701  26.176  25.365
53224W        W54089  18.432  26.776  22.698
53225W        W54090  19.123  26.765  22.423
53226W        W54091  20.886  27.092  25.240
53227W        W54092  19.229  27.373  23.949
53228W        W54093  20.703  25.659  23.069
53229W        W54094  19.834  29.090  23.572
53230W        W54095  21.048  28.552  24.509
53231W        W54096  20.632  28.701  23.620
53232W        W54097  20.651  27.681  23.214
53233W        W54098  20.113  25.906  22.285
53234W        W54099  21.794  25.534  23.007
53235W        W54100  19.482  27.169  22.170
53236W        W54101  21.648  26.506  23.160
53237W        W54102  20.340  27.676  22.037
53238W        W54103  21.276  27.876  24.785
53239W        W54104  20.930  28.577  22.252
53240W        W54105  19.545  26.252  25.158
53241W        W54106  19.365  26.836  24.399
53242W        W54107  21.457  28.331  24.676
53243W        W54108  20.557  26.281  25.053
53244W        W54109  18.401  26.752  24.830
53245W        W54110  20.161  27.229  24.556
53246W        W54111  18.518  27.987  23.213
53247W        W54112  18.665  27.284  24.103
53248W        W54113  20.982  27.570  24.453
53249W        W54114  20.754  28.950  25.264
53250W        W54115  20.650  26.689  24.817
53251W        W54116  20.927  28.743  23.222
53252W        W54117  19.929  28.463  24.545
53253W        W54118  19.414  28.818  23.814
53254W        W54119  21.219  27.989  24.233
53255W        W54120  20.269  28.061  25.370
53256W        W54121  18.874  28.014  23.709
53257W        W54122  21.220  27.773  23.354
53258W        W54123  20.861  28.839  24.105
53259W        W54124  18.839  28.568  23.975
53260W        W54125  19.860  26.620  25.185
53261W        W54126  20.311  28.786  22.696
53262W        W54127  19.619  28.041  25.334
53263W        W54128  19.745  28.279  22.711
53264W        W54129  18.966  27.019  21.970
53265W        W54130  18.305  29.105  28.869
53266W        W54131  18.681  27.998  28.392
53267W        W54132  21.386  27.728  26.162
53268W        W54133  21.516  28.813  28.189
53269W        W54134  19.434  28.804  25.715
53270W        W54135  19.517  26.956  26.698
53271W        W54136  19.032  26.804  26.862
53272W        W54137  20.023  27.619  26.296
53273W        W54138  19.698  28.711  28.651
53274W        W54139  18.347  26.272  28.614
53275W        W54140  19.109  25.552  28.416
53276W        W54141  20.803  25.940  27.303
53277W        W54142  20.452  26.811  25.873
53278W        W54143  21.022  26.245  28.964
53279W        W54144  18.388  26.037  28.089
53280W        W54145  18.487  28.656  29.110
53281W        W54146  20.009  28.046  25.842
53282W        W54147  18.441  26.829  27.535
53283W        W54148  19.334  26.720  28.772
53284W        W54149  21.793  26.579  27.271
53285W        W54150  21.557  27.622  28.130
53286W        W54151  19.865  26.955  27.157
53287W        W54152  20.411  28.294  27.526
53288W        W54153  18.911  27.728  27.758
53289W        W54154  18.270  27.256  27.329
53290W        W54155  19.306  27.228  28.521
53291W        W54156  21.577  27.011  28.775
53292W        W54157  19.193  28.455  27.220
53293W        W54158  20.314  28.144  28.354
53294W        W54159  19.534  26.784  27.579
53295W        W54160  19.826  27.568  27.222
53296W        W54161  20.823  28.341  29.070
53297W        W54162  19.902  27.661  29.080
53298W        W54163  19.883  27.377  28.558
53299W        W54164  18.292  26.768  29.080
53300W        W54165  21.124  28.303  28.679
53301W        W54166  18.705  25.885  26.677
53302W        W54167  19.232  28.143  27.676
53303W        W54168  21.695  27.926  26.966
53304W        W54169  21.108  26.326  27.533
53305W        W54170  21.393  26.279  25.628
53306W        W54171  21.858  27.080  27.934
53307W        W54172  19.825  28.787  27.687
53308W        W54173  21.599  28.253  26.125
53309W        W54174  18.728  29.039  25.879
53310W        W54175  19.121  29.085  26.555
53311W        W54176  18.918  25.839  27.981
53312W        W54177  21.541  26.857  28.256
53313W        W54178  20.946  27.279  26.715
53314W        W54179  20.912  26.967  25.742
53315W        W54180  20.120  28.111  27.882
53316W        W54181  19.926  26.441  27.081
53317W        W54182  20.526  28.528  28.075
53318W        W54183  21.397  27.319  26.497
53319W        W54184  20.299  25.977  26.513
53320W        W54185  18.956  28.671  26.196
53321W        W54186  18.327  26.170  26.795
53322W        W54187  21.113  26.777  27.269
53323W        W54188  18.571  28.394  27.184
53324W        W54189  19.912  28.744  26.054
53325W        W54190  21.304  26.770  25.518
53326W        W54191  18.327  28.528  27.682
53327W        W54192  19.118  28.100  28.162
53328W        W54193  19.491  27.460  26.781
53329W        W54194  19.513  25.865  27.874
53330W        W54195  21.742  25.627  27.171
53331W        W54196  18.961  27.499  25.639
53332W        W54197  18.616  26.532  25.818
53333W        W54198  18.678  28.488  26.612
53334W        W54199  19.809  27.971  26.860
53335W        W54200  21.141  28.830  28.574
53336W        W54201  20.067  26.472  26.258
53337W        W54202  21.450  28.870  27.030
53338W        W54203  21.127  26.723  28.628
53339W        W54204  21.840  28.379  26.762
53340W        W54205  20.467  27.671  28.246
53341W        W54206  18.233  27.222  26.452
53342W        W54207  19.344  27.637  28.025
53343W        W54208  20.548  26.901  26.403
53344W        W54209  20.425  27.391  26.507
53345W        W54210  18.768  26.811  27.981
53346W        W54211  18.753  26.687  28.903
53347W        W54212  18.643  25.604  27.062
53348W        W54213  20.411  25.951  27.623
53349W        W54214  20.059  26.136  28.786
53350W        W54215  20.414  26.285  25.964
53351W        W54216  21.597  28.678  28.718
53352W        W54217  20.564  25.759  28.757
53353W        W54218  21.583  28.060  28.879
53354W        W54219  21.013  26.227  28.475
53355W        W54220  20.813  26.165  26.745
53356W        W54221  21.206  27.299  29.149
53357W        W54222  18.946  28.875  27.135
53358W        W54223  19.604  26.592  26.121
53359W        W54224  19.173  25.876  28.785
53360W        W54225  21.225  26.360  26.466
53361W        W54226  21.592  26.842  26.411
53362W        W54227  19.335  29.059  28.882
53363W        W54228  19.261  25.595  26.117
53364W        W54229  21.582  26.129  27.152
53365W        W54230  21.732  28.378  25.597
53366W        W54231  18.639  27.581  27.299
53367W        W54232  20.556  26.168  25.529
53368W        W54233  21.690  28.500  27.249
53369W        W54234  21.729  25.694  27.999
53370W        W54235  20.174  26.906  28.553
53371W        W54236  20.267  28.245  26.256
53372W        W54237  20.667  27.539  28.996
53373W        W54238  20.341  25.516  27.305
53374W        W54239  18.953  26.419  27.368
53375W        W54240  18.507  27.619  28.142
53376W        W54241  20.366  28.812  26.848
53377W        W54242  21.560  26.409  27.720
53378W        W54243  20.197  28.756  28.487
53379W        W54244  21.540  27.815  25.692
53380W        W54245  19.975  27.298  26.753
53381W        W54246  21.827  25.809  28.494
53382W        W54247  19.976  27.644  28.088
53383W        W54248  20.193  26.530  27.533
53384W        W54249  21.045  26.828  26.371
53385W        W54250  21.332  26.561  26.013
53386W        W54251  21.141  28.601  26.402
53387W        W54252  20.975  28.204  27.198
53388W        W54253  20.871  27.283  26.176
53389W        W54254  20.304  27.493  27.162
53390W        W54255  21.185  27.281  27.229
53391W        W54256  18.560  26.296  27.653
53392W        W54257  21.338  27.348  28.480
53393W        W54258  21.689  28.966  27.626
53394W        W54259  19.619  28.410  27.028
53395W        W54260  20.626  28.943  28.352
53396W        W54261  20.620  26.273  28.116
53397W        W54262  19.827  28.981  28.177
53398W        W54263  21.524  25.935  26.643
53399W        W54264  21.315  27.254  27.944
53400W        W54265  18.298  26.575  27.982
53401W        W54266  21.158  26.370  27.000
53402W        W54267  20.454  28.220  26.995
53403W        W54268  19.710  28.811  26.608
53404W        W54269  18.825  25.991  25.866
53405W        W54270  19.929  25.645  27.676
53406W        W54271  18.957  28.765  25.524
53407W        W54272  19.331  27.231  26.275
53408W        W54273  19.985  27.860  28.588
53409W        W54274  19.815  26.218  26.578
53410W        W54275  21.171  25.815  27.006
53411W        W54276  20.891  29.097  27.334
53412W        W54277  20.303  28.745  27.674
53413W        W54278  19.699  27.782  27.635
53414W        W54279  21.469  28.505  27.761
53415W        W54280  19.163  26.008  26.530
53416W        W54281  19.685  28.305  27.490
53417W        W54282  19.168  26.236  25.555
53418W        W54283  19.969  26.845  27.949
53419W        W54284  20.817  25.711  27.819
53420W        W54285  18.237  27.554  27.704
53421W        W54286  19.941  27.372  25.862
53422W        W54287  19.209  25.687  25.632
53423W        W54288  19.947  26.768  26.683
53424W        W54289  20.917  25.744  28.382
53425W        W54290  19.505  27.756  28.491
53426W        W54291  20.309  27.538  28.708
53427W        W54292  20.926  27.568  28.601
53428W        W54293  20.210  25.708  29.106
53429W        W54294  19.432  26.324  27.499
53430W        W54295  18.858  26.280  26.897
53431W        W54296  18.644  28.992  26.573
53432W        W54297  19.976  28.322  28.698
53433W        W54298  19.011  27.807  26.057
53434W        W54299  20.691  27.192  27.278
53435W        W54300  20.971  26.991  27.677
53436W        W54301  20.176  27.665  27.611
53437W        W54302  20.646  28.039  25.743
53438W        W54303  20.318  26.060  27.071
53439W        W54304  21.797  26.338  26.339
53440W        W54305  18.291  28.927  28.370
53441W        W54306  18.708  28.153  27.902
53442W        W54307  18.275  28.999  26.134
53443W        W54308  20.174  26.269  27.940
53444W        W54309  19.537  28.292  25.789
53445W        W54310  21.442  28.674  25.975
53446W        W54311  20.417  27.327  25.989
53447W        W54312  19.260  26.518  26.506
53448W        W54313  20.092  26.428  25.558
53449W        W54314  20.676  27.993  28.736
53450W        W54315  21.029  25.899  26.353
53451W        W54316  18.359  25.747  25.801
53452W        W54317  19.645  28.066  28.091
53453W        W54318  19.444  27.982  27.183
53454W        W54319  19.186  27.934  25.581
53455W        W54320  18.427  28.175  26.349
53456W        W54321  18.931  27.245  28.791
53457W        W54322  19.635  25.805  28.977
53458W        W54323  20.344  25.947  28.333
53459W        W54324  19.539  25.715  26.614
53460W        W54325  20.598  25.792  26.119
53461W        W54326  18.543  25.724  27.696
53462W        W54327  18.591  26.687  27.066
53463W        W54328  21.280  25.795  27.472
53464W        W54329  18.702  26.293  26.286
53465W        W54330  21.273  25.981  27.902
53466W        W54331  21.669  27.184  25.587
53467W        W54332  18.961  25.942  27.406
53468W        W54333  20.075  26.514  28.346
53469W        W54334  18.223  26.204  25.824
53470W        W54335  19.009  27.593  28.385
53471W        W54336  20.367  26.991  27.564
53472W        W54337  20.234  29.070  25.860
53473W        W54338  18.380  27.577  25.557
53474W        W54339  19.115  27.988  28.683
53475W        W54340  18.636  27.155  28.314
53476W        W54341  19.627  27.260  28.108
53477W        W54342  21.395  25.619  28.370
53478W        W54343  21.793  27.229  28.361
53479W        W54344  21.781  27.429  26.047
53480W        W54345  20.644  27.761  26.146
53481W        W54346  21.118  29.061  25.841
53482W        W54347  20.295  27.051  28.983
53483W        W54348  18.625  28.018  29.023
53484W        W54349  21.831  25.940  28.975
53485W        W54350  21.549  26.868  27.596
53486W        W54351  19.857  28.998  29.073
53487W        W54352  19.712  25.627  25.800
53488W        W54353  21.251  28.226  25.743
53489W        W54354  19.020  26.319  28.629
53490W        W54355  19.454  28.313  28.491
53491W        W54356  21.580  26.304  28.289
53492W        W54357  20.791  28.963  26.257
53493W        W54358  21.030  27.582  27.624
53494W        W54359  19.280  25.998  28.291
53495W        W54360  19.749  27.067  29.048
53496W        W54361  19.252  28.246  26.242
53497W        W54362  21.007  27.744  26.506
53498W        W54363  18.775  26.370  28.230
53499W        W54364  20.104  28.432  26.694
53500W        W54365  21.854  26.992  26.875
53501W        W54366  20.076  25.625  28.594
53502W        W54367  20.856  28.330  27.673
53503W        W54368  21.159  28.674  27.381
53504W        W54369  20.378  28.476  25.809
53505W        W54370  18.388  28.368  28.651
53506W        W54371  19.131  26.360  27.889
53507W        W54372  19.101  25.708  26.999
53508W        W54373  20.722  26.550  27.691
53509W        W54374  19.520  27.721  25.891
53510W        W54375  21.518  27.663  27.390
53511W        W54376  18.845  28.421  28.813
53512W        W54377  21.232  29.103  26.610
53513W        W54378  19.331  26.123  27.055
53514W        W54379  19.100  27.616  27.145
53515W        W54380  19.413  29.027  27.895
53516W        W54381  21.480  29.123  28.927
53517W        W54382  20.639  27.311  27.860
53518W        W54383  18.488  27.109  25.775
53519W        W54384  21.622  28.767  26.472
53520W        W54385  21.459  26.091  26.091
53521W        W54386  19.598  25.610  28.494
53522W        W54387  21.304  28.412  26.952
53523W        W54388  21.333  26.968  26.857
53524W        W54389  19.450  26.641  27.073
53525W        W54390  19.695  26.903  28.397
53526W        W54391  20.806  28.056  28.260
53527W        W54392  19.456  26.510  28.372
53528W        W54393  19.435  28.976  26.988
53529W        W54394  18.752  28.935  28.622
53530W        W54395  18.864  28.296  25.752
53531W        W54396  21.381  28.054  26.562
53532W        W54397  18.985  26.846  28.448
53533W        W54398  21.758  26.776  25.929
53534W        W54399  19.503  27.833  26.400
53535W        W54400  20.602  27.215  28.481
53536W        W54401  20.493  26.843  28.025
53537W        W54402  19.053  27.215  28.054
53538W        W54403  21.263  29.103  27.883
53539W        W54404  21.054  25.737  28.877
53540W        W54405  18.718  25.887  28.464
53541W        W54406  19.057  26.910  27.517
53542W        W54407  19.426  26.724  25.639
53543W        W54408  18.229  28.483  28.184
53544W        W54409  19.814  27.192  27.627
53545W        W54410  19.637  26.217  25.732
53546W        W54411  18.772  27.033  26.513
53547W        W54412  18.543  28.885  27.950
53548W        W54413  21.338  27.111  26.058
53549W        W54414  21.433  26.027  28.744
53550W        W54415  20.869  28.236  26.707
53551W        W54416  18.467  27.160  28.884
53552W        W54417  21.433  25.624  26.180
53553W        W54418  20.953  28.099  26.191
53554W        W54419  19.855  27.157  26.276
53555W        W54420  21.042  25.961  25.799
53556W        W54421  21.107  26.568  27.985
53557W        W54422  18.816  27.161  27.192
53558W        W54423  19.110  28.100  26.841
53559W        W54424  20.873  26.720  26.806
53560W        W54425  19.896  26.099  27.502
53561W        W54426  21.858  28.010  28.013
53562W        W54427  21.776  25.997  27.574
53563W        W54428  18.315  28.827  26.950
53564W        W54429  18.824  28.014  26.486
53565W        W54430  18.739  25.631  29.039
53566W        W54431  19.858  28.484  29.141
53567W        W54432  21.613  27.452  26.931
53568W        W54433  20.967  27.629  25.811
53569W        W54434  20.262  29.150  28.023
53570W        W54435  21.119  27.872  29.060
53571W        W54436  19.934  25.582  26.340
53572W        W54437  20.647  26.451  27.199
53573W        W54438  18.333  28.038  27.531
53574W        W54439  19.586  26.000  26.172
53575W        W54440  19.390  27.484  29.021
53576W        W54441  20.384  26.465  26.735
53577W        W54442  20.589  27.875  27.857
53578W        W54443  18.743  28.480  28.292
53579W        W54444  19.334  28.463  29.015
53580W        W54445  19.185  26.260  26.029
53581W        W54446  20.702  26.402  26.354
53582W        W54447  20.660  28.510  28.591
53583W        W54448  19.345  27.102  27.190
53584W        W54449  19.000  28.800  28.055
53585W        W54450  21.745  28.917  25.656
53586W        W54451  18.608  27.589  28.652
53587W        W54452  20.603  27.851  27.340
53588W        W54453  19.039  27.500  26.582
53589W        W54454  19.410  28.507  27.977
53590W        W54455  19.788  25.926  27.018
53591W        W54456  18.399  27.910  25.948
53592W        W54457  19.918  26.861  25.818
53593W        W54458  18.564  27.410  26.837
53594W        W54459  19.854  26.052  28.301
53595W        W54460  21.526  25.761  25.728
53596W        W54461  21.619  27.507  28.827
53597W        W54462  20.273  28.764  28.979
53598W        W54463  21.831  27.858  28.501
53599W        W54464  21.239  28.656  29.112
53600W        W54465  18.978  29.112  27.590
53601W        W54466  21.837  27.734  26.464
53602W        W54467  20.367  27.001  26.977
53603W        W54468  20.134  25.613  26.867
53604W        W54469  19.193  28.597  26.704
53605W        W54470  19.692  26.338  27.929
53606W        W54471  19.392  25.707  27.398
53607W        W54472  18.455  28.529  25.946
53608W        W54473  20.271  27.893  26.664
53609W        W54474  19.146  28.688  28.543
53610W        W54475  18.623  27.511  26.239
53611W        W54476  18.508  26.054  27.238
53612W        W54477  20.056  28.019  27.295
53613W        W54478  18.308  25.873  26.315
53614W        W54479  20.972  27.079  28.242
53615W        W54480  20.849  26.465  25.814
53616W        W54481  21.366  28.137  27.462
53617W        W54482  20.027  28.621  27.293
53618W        W54483  19.439  28.725  26.204
53619W        W54484  20.721  25.628  25.634
53620W        W54485  18.521  28.888  27.375
53621W        W54486  20.718  26.646  29.010
53622W        W54487  18.701  26.176  29.009
53623W        W54488  18.432  26.776  26.342
53624W        W54489  19.123  26.765  26.067
53625W        W54490  20.886  27.092  28.884
53626W        W54491  19.229  27.373  27.593
53627W        W54492  20.703  25.659  26.713
53628W        W54493  19.834  29.090  27.216
53629W        W54494  21.048  28.552  28.153
53630W        W54495  20.632  28.701  27.264
53631W        W54496  20.651  27.681  26.858
53632W        W54497  20.113  25.906  25.929
53633W        W54498  21.794  25.534  26.651
53634W        W54499  19.482  27.169  25.814
53635W        W54500  21.648  26.506  26.804
53636W        W54501  20.340  27.676  25.681
53637W        W54502  21.276  27.876  28.429
53638W        W54503  20.930  28.577  25.896
53639W        W54504  19.545  26.252  28.802
53640W        W54505  19.365  26.836  28.043
53641W        W54506  21.457  28.331  28.320
53642W        W54507  20.557  26.281  28.697
53643W        W54508  18.401  26.752  28.474
53644W        W54509  20.161  27.229  28.200
53645W        W54510  18.518  27.987  26.857
53646W        W54511  18.665  27.284  27.747
53647W        W54512  20.982  27.570  28.097
53648W        W54513  20.754  28.950  28.908
53649W        W54514  20.650  26.689  28.461
53650W        W54515  20.927  28.743  26.866
53651W        W54516  19.929  28.463  28.189
53652W        W54517  19.414  28.818  27.458
53653W        W54518  21.219  27.989  27.877
53654W        W54519  20.269  28.061  29.014
53655W        W54520  18.874  28.014  27.353
53656W        W54521  21.220  27.773  26.998
53657W        W54522  20.861  28.839  27.749
53658W        W54523  18.839  28.568  27.619
53659W        W54524  19.860  26.620  28.829
53660W        W54525  20.311  28.786  26.340
53661W        W54526  19.619  28.041  28.978
53662W        W54527  19.745  28.279  26.355
53663W        W54528  18.966  27.019  25.614
53664W        W54529  21.950   3.595   3.359
53665W        W54530  22.326   2.488   2.882
53666W        W54531  25.031   2.218   0.652
53667W        W54532  25.161   3.303   2.679
53668W        W54533  23.079   3.294   0.205
53669W        W54534  23.162   1.446   1.188
53670W        W54535  22.677   1.294   1.352
53671W        W54536  23.668   2.109   0.786
53672W        W54537  23.343   3.201   3.141
53673W        W54538  21.992   0.762   3.104
53674W        W54539  22.754   0.042   2.906
53675W        W54540  24.448   0.430   1.793
53676W        W54541  24.097   1.301   0.363
53677W        W54542  24.667   0.735   3.454
53678W        W54543  22.033   0.527   2.579
53679W        W54544  22.132   3.146   3.600
53680W        W54545  23.654   2.536   0.332
53681W        W54546  22.086   1.319   2.025
53682W        W54547  22.979   1.210   3.262
53683W        W54548  25.438   1.069   1.761
53684W        W54549  25.202   2.112   2.620
53685W        W54550  23.510   1.445   1.647
53686W        W54551  24.056   2.784   2.016
53687W        W54552  22.556   2.218   2.248
53688W        W54553  21.915   1.746   1.819
53689W        W54554  22.951   1.718   3.011
53690W        W54555  25.222   1.501   3.265
53691W        W54556  22.838   2.945   1.710
53692W        W54557  23.959   2.634   2.844
53693W        W54558  23.179   1.274   2.069
53694W        W54559  23.471   2.058   1.712
53695W        W54560  24.468   2.831   3.560
53696W        W54561  23.547   2.151   3.570
53697W        W54562  23.528   1.867   3.048
53698W        W54563  21.937   1.258   3.570
53699W        W54564  24.769   2.793   3.169
53700W        W54565  22.350   0.375   1.167
53701W        W54566  22.877   2.633   2.166
53702W        W54567  25.340   2.416   1.456
53703W        W54568  24.753   0.816   2.023
53704W        W54569  25.038   0.769   0.118
53705W        W54570  25.503   1.570   2.424
53706W        W54571  23.470   3.277   2.177
53707W        W54572  25.244   2.743   0.615
53708W        W54573  22.373   3.529   0.369
53709W        W54574  22.766   3.575   1.045
53710W        W54575  22.563   0.329   2.471
53711W        W54576  25.186   1.347   2.746
53712W        W54577  24.591   1.769   1.205
53713W        W54578  24.557   1.457   0.232
53714W        W54579  23.765   2.601   2.372
53715W        W54580  23.571   0.931   1.571
53716W        W54581  24.171   3.018   2.565
53717W        W54582  25.042   1.809   0.987
53718W        W54583  23.944   0.467   1.003
53719W        W54584  22.601   3.161   0.686
53720W        W54585  21.972   0.660   1.285
53721W        W54586  24.758   1.267   1.759
53722W        W54587  22.216   2.884   1.674
53723W        W54588  23.557   3.234   0.544
53724W        W54589  24.949   1.260   0.008
53725W        W54590  21.972   3.018   2.172
53726W        W54591  22.763   2.590   2.652
53727W        W54592  23.136   1.950   1.271
53728W        W54593  23.158   0.355   2.364
53729W        W54594  25.387   0.117   1.661
53730W        W54595  22.606   1.989   0.129
53731W        W54596  22.261   1.022   0.308
53732W        W54597  22.323   2.978   1.102
53733W        W54598  23.454   2.461   1.350
53734W        W54599  24.786   3.320   3.064
53735W        W54600  23.712   0.962   0.748
53736W        W54601  25.095   3.360   1.520
53737W        W54602  24.772   1.213   3.118
53738W        W54603  25.485   2.869   1.252
53739W        W54604  24.112   2.161   2.736
53740W        W54605  21.878   1.712   0.942
53741W        W54606  22.989   2.127   2.515
53742W        W54607  24.193   1.391   0.893
53743W        W54608  24.070   1.881   0.997
53744W        W54609  22.413   1.301   2.471
53745W        W54610  22.398   1.177   3.393
53746W        W54611  22.288   0.094   1.552
53747W        W54612  24.056   0.441   2.113
53748W        W54613  23.704   0.626   3.276
53749W        W54614  24.059   0.775   0.454
53750W        W54615  25.242   3.168   3.208
53751W        W54616  24.209   0.249   3.247
53752W        W54617  25.228   2.550   3.369
53753W        W54618  24.658   0.717   2.965
53754W        W54619  24.458   0.655   1.235
53755W        W54620  24.851   1.789   3.639
53756W        W54621  22.591   3.365   1.625
53757W        W54622  23.249   1.082   0.611
53758W        W54623  22.818   0.366   3.275
53759W        W54624  24.870   0.850   0.956
53760W        W54625  25.237   1.332   0.901
53761W        W54626  22.980   3.549   3.372
53762W        W54627  22.906   0.085   0.607
53763W        W54628  25.227   0.619   1.642
53764W        W54629  25.377   2.868   0.087
53765W        W54630  22.284   2.071   1.789
53766W        W54631  24.201   0.658   0.019
53767W        W54632  25.335   2.990   1.739
53768W        W54633  25.374   0.184   2.489
53769W        W54634  23.819   1.396   3.043
53770W        W54635  23.912   2.735   0.746
53771W        W54636  24.312   2.029   3.486
53772W        W54637  23.986   0.006   1.795
53773W        W54638  22.598   0.909   1.858
53774W        W54639  22.152   2.109   2.632
53775W        W54640  24.011   3.302   1.338
53776W        W54641  25.205   0.899   2.210
53777W        W54642  23.842   3.246   2.977
53778W        W54643  25.185   2.305   0.182
53779W        W54644  23.620   1.788   1.243
53780W        W54645  25.472   0.299   2.984
53781W        W54646  23.621   2.134   2.578
53782W        W54647  23.838   1.020   2.023
53783W        W54648  24.690   1.318   0.861
53784W        W54649  24.977   1.051   0.503
53785W        W54650  24.786   3.091   0.892
53786W        W54651  24.620   2.694   1.688
53787W        W54652  24.516   1.773   0.666
53788W        W54653  23.949   1.983   1.652
53789W        W54654  24.830   1.771   1.719
53790W        W54655  22.205   0.786   2.143
53791W        W54656  24.983   1.838   2.970
53792W        W54657  25.334   3.456   2.116
53793W        W54658  23.264   2.900   1.518
53794W        W54659  24.271   3.433   2.842
53795W        W54660  24.265   0.763   2.606
53796W        W54661  23.472   3.471   2.667
53797W        W54662  25.169   0.425   1.133
53798W        W54663  24.960   1.744   2.434
53799W        W54664  21.943   1.065   2.472
53800W        W54665  24.803   0.860   1.490
53801W        W54666  25.214   1.011   3.267
53802W        W54667  24.099   2.710   1.485
53803W        W54668  23.355   3.301   1.098
53804W        W54669  22.470   0.481   0.356
53805W        W54670  23.574   0.135   2.166
53806W        W54671  22.602   3.255   0.014
53807W        W54672  22.976   1.721   0.765
53808W        W54673  23.630   2.350   3.078
53809W        W54674  23.460   0.708   1.068
53810W        W54675  24.816   0.305   1.496
53811W        W54676  24.536   3.587   1.824
53812W        W54677  23.948   3.235   2.164
53813W        W54678  23.344   2.272   2.125
53814W        W54679  25.114   2.995   2.251
53815W        W54680  22.808   0.498   1.020
53816W        W54681  23.330   2.795   1.980
53817W        W54682  22.813   0.726   0.045
53818W        W54683  23.614   1.335   2.439
53819W        W54684  24.462   0.201   2.309
53820W        W54685  21.882   2.044   2.194
53821W        W54686  23.586   1.862   0.352
53822W        W54687  22.854   0.177   0.122
53823W        W54688  23.592   1.258   1.173
53824W        W54689  24.562   0.234   2.872
53825W        W54690  23.150   2.246   2.981
53826W        W54691  23.954   2.028   3.198
53827W        W54692  24.571   2.058   3.091
53828W        W54693  23.855   0.198   3.596
53829W        W54694  23.077   0.814   1.989
53830W        W54695  22.503   0.770   1.387
53831W        W54696  22.289   3.482   1.063
53832W        W54697  23.621   2.812   3.188
53833W        W54698  22.656   2.297   0.547
53834W        W54699  24.336   1.682   1.768
53835W        W54700  24.616   1.481   2.167
53836W        W54701  23.821   2.155   2.101
53837W        W54702  24.291   2.529   0.233
53838W        W54703  23.963   0.550   1.561
53839W        W54704  25.442   0.828   0.829
53840W        W54705  21.936   3.417   2.860
53841W        W54706  22.353   2.643   2.392
53842W        W54707  21.920   3.489   0.624
53843W        W54708  23.819   0.759   2.430
53844W        W54709  23.182   2.782   0.279
53845W        W54710  25.087   3.164   0.465
53846W        W54711  24.062   1.817   0.479
53847W        W54712  22.905   1.008   0.996
53848W        W54713  23.737   0.918   0.048
53849W        W54714  24.321   2.483   3.226
53850W        W54715  24.674   0.389   0.843
53851W        W54716  22.004   0.237   0.291
53852W        W54717  23.290   2.556   2.581
53853W        W54718  23.089   2.472   1.673
53854W        W54719  22.831   2.424   0.071
53855W        W54720  22.072   2.665   0.839
53856W        W54721  22.576   1.735   3.281
53857W        W54722  23.280   0.295   3.467
53858W        W54723  23.989   0.437   2.823
53859W        W54724  23.184   0.205   1.104
53860W        W54725  24.243   0.282   0.609
53861W        W54726  22.188   0.214   2.186
53862W        W54727  22.236   1.177   1.556
53863W        W54728  24.925   0.285   1.962
53864W        W54729  22.347   0.783   0.776
53865W        W54730  24.918   0.471   2.392
53866W        W54731  25.314   1.674   0.077
53867W        W54732  22.606   0.432   1.896
53868W        W54733  23.720   1.004   2.836
53869W        W54734  21.868   0.694   0.314
53870W        W54735  22.654   2.083   2.875
53871W        W54736  24.012   1.481   2.054
53872W        W54737  23.879   3.560   0.350
53873W        W54738  22.025   2.067   0.047
53874W        W54739  22.760   2.478   3.173
53875W        W54740  22.281   1.645   2.804
53876W        W54741  23.272   1.750   2.598
53877W        W54742  25.040   0.109   2.860
53878W        W54743  25.438   1.719   2.851
53879W        W54744  25.426   1.919   0.537
53880W        W54745  24.289   2.251   0.636
53881W        W54746  24.763   3.551   0.331
53882W        W54747  23.940   1.541   3.473
53883W        W54748  22.270   2.508   3.513
53884W        W54749  25.476   0.430   3.465
53885W        W54750  25.194   1.358   2.086
53886W        W54751  23.502   3.488   3.563
53887W        W54752  23.357   0.117   0.290
53888W        W54753  24.896   2.716   0.233
53889W        W54754  22.665   0.809   3.119
53890W        W54755  23.099   2.803   2.981
53891W        W54756  25.225   0.794   2.779
53892W        W54757  24.436   3.453   0.747
53893W        W54758  24.675   2.072   2.114
53894W        W54759  22.925   0.488   2.781
53895W        W54760  23.394   1.557   3.538
53896W        W54761  22.897   2.736   0.732
53897W        W54762  24.652   2.234   0.996
53898W        W54763  22.420   0.860   2.720
53899W        W54764  23.749   2.922   1.184
53900W        W54765  25.499   1.482   1.365
53901W        W54766  23.721   0.115   3.084
53902W        W54767  24.501   2.820   2.163
53903W        W54768  24.804   3.164   1.871
53904W        W54769  24.023   2.966   0.299
53905W        W54770  22.033   2.858   3.141
53906W        W54771  22.776   0.850   2.379
53907W        W54772  22.746   0.198   1.489
53908W        W54773  24.367   1.040   2.181
53909W        W54774  23.165   2.211   0.381
53910W        W54775  25.163   2.153   1.880
53911W        W54776  22.490   2.911   3.303
53912W        W54777  24.877   3.593   1.100
53913W        W54778  22.976   0.613   1.545
53914W        W54779  22.745   2.106   1.635
53915W        W54780  23.058   3.517   2.385
53916W        W54781  25.125   3.613   3.417
53917W        W54782  24.284   1.801   2.350
53918W        W54783  22.133   1.599   0.265
53919W        W54784  25.267   3.257   0.962
53920W        W54785  25.104   0.581   0.581
53921W        W54786  23.243   0.100   2.984
53922W        W54787  24.949   2.902   1.442
53923W        W54788  24.978   1.458   1.347
53924W        W54789  23.095   1.131   1.563
53925W        W54790  23.340   1.393   2.887
53926W        W54791  24.451   2.546   2.750
53927W        W54792  23.101   1.000   2.862
53928W        W54793  23.080   3.466   1.478
53929W        W54794  22.397   3.425   3.112
53930W        W54795  22.509   2.786   0.242
53931W        W54796  25.026   2.544   1.052
53932W        W54797  22.630   1.336   2.938
53933W        W54798  25.403   1.266   0.419
53934W        W54799  23.148   2.323   0.890
53935W        W54800  24.247   1.705   2.971
53936W        W54801  24.138   1.333   2.515
53937W        W54802  22.698   1.705   2.544
53938W        W54803  24.908   3.593   2.373
53939W        W54804  24.699   0.227   3.367
53940W        W54805  22.363   0.377   2.954
53941W        W54806  22.702   1.400   2.007
53942W        W54807  23.071   1.214   0.129
53943W        W54808  21.874   2.973   2.674
53944W        W54809  23.459   1.682   2.117
53945W        W54810  23.282   0.707   0.222
53946W        W54811  22.417   1.523   1.003
53947W        W54812  22.188   3.375   2.440
53948W        W54813  24.983   1.601   0.548
53949W        W54814  25.078   0.517   3.234
53950W        W54815  24.514   2.726   1.197
53951W        W54816  22.112   1.650   3.374
53952W        W54817  25.078   0.114   0.670
53953W        W54818  24.598   2.589   0.681
53954W        W54819  23.500   1.647   0.766
53955W        W54820  24.687   0.451   0.289
53956W        W54821  24.752   1.058   2.475
53957W        W54822  22.461   1.651   1.682
53958W        W54823  22.755   2.590   1.331
53959W        W54824  24.518   1.210   1.296
53960W        W54825  23.541   0.589   1.992
53961W        W54826  25.503   2.500   2.503
53962W        W54827  25.421   0.487   2.064
53963W        W54828  21.960   3.317   1.440
53964W        W54829  22.469   2.504   0.976
53965W        W54830  22.384   0.121   3.529
53966W        W54831  23.503   2.974   3.631
53967W        W54832  25.258   1.942   1.421
53968W        W54833  24.612   2.119   0.301
53969W        W54834  23.907   3.640   2.513
53970W        W54835  24.764   2.362   3.550
53971W        W54836  23.579   0.072   0.830
53972W        W54837  24.292   0.941   1.689
53973W        W54838  21.978   2.528   2.021
53974W        W54839  23.231   0.490   0.662
53975W        W54840  23.035   1.974   3.511
53976W        W54841  24.029   0.955   1.225
53977W        W54842  24.234   2.365   2.347
53978W        W54843  22.388   2.970   2.782
53979W        W54844  22.979   2.953   3.505
53980W        W54845  22.830   0.750   0.519
53981W        W54846  24.347   0.892   0.844
53982W        W54847  24.305   3.000   3.081
53983W        W54848  22.990   1.592   1.680
53984W        W54849  22.645   3.290   2.545
53985W        W54850  25.390   3.407   0.146
53986W        W54851  22.253   2.079   3.142
53987W        W54852  24.248   2.341   1.830
53988W        W54853  22.684   1.990   1.072
53989W        W54854  23.055   2.997   2.467
53990W        W54855  23.433   0.416   1.508
53991W        W54856  23.563   1.351   0.308
53992W        W54857  22.209   1.900   1.327
53993W        W54858  23.499   0.542   2.791
53994W        W54859  25.171   0.251   0.218
53995W        W54860  25.264   1.997   3.317
53996W        W54861  23.918   3.254   3.469
53997W        W54862  25.476   2.348   2.991
53998W        W54863  24.884   3.146   3.602
53999W        W54864  22.623   3.602   2.080
54000W        W54865  25.482   2.224   0.954
54001W        W54866  24.012   1.491   1.467
54002W        W54867  23.779   0.103   1.357
54003W        W54868  22.838   3.087   1.194
54004W        W54869  23.337   0.828   2.419
54005W        W54870  23.037   0.197   1.888
54006W        W54871  22.100   3.019   0.436
54007W        W54872  23.916   2.383   1.154
54008W        W54873  22.791   3.178   3.033
54009W        W54874  22.268   2.001   0.729
54010W        W54875  22.153   0.544   1.728
54011W        W54876  23.701   2.509   1.785
54012W        W54877  21.953   0.363   0.805
54013W        W54878  24.617   1.569   2.732
54014W        W54879  24.494   0.955   0.304
54015W        W54880  25.011   2.627   1.952
54016W        W54881  23.672   3.111   1.783
54017W        W54882  23.084   3.215   0.694
54018W        W54883  24.366   0.118   0.124
54019W        W54884  22.166   3.378   1.865
54020W        W54885  24.363   1.136   3.500
54021W        W54886  22.346   0.666   3.499
54022W        W54887  22.077   1.266   0.832
54023W        W54888  22.768   1.255   0.557
54024W        W54889  24.531   1.582   3.374
54025W        W54890  22.874   1.863   2.083
54026W        W54891  24.348   0.149   1.203
54027W        W54892  23.479   3.580   1.706
54028W        W54893  24.693   3.042   2.643
54029W        W54894  24.277   3.191   1.754
54030W        W54895  24.296   2.171   1.348
54031W        W54896  23.758   0.396   0.419
54032W        W54897  25.439   0.024   1.141
54033W        W54898  23.127   1.659   0.304
54034W        W54899  25.293   0.996   1.294
54035W        W54900  23.985   2.166   0.171
54036W        W54901  24.921   2.366   2.919
54037W        W54902  24.575   3.067   0.386
54038W        W54903  23.190   0.742   3.292
54039W        W54904  23.010   1.326   2.533
54040W        W54905  25.102   2.821   2.810
54041W        W54906  24.202   0.771   3.187
54042W        W54907  22.046   1.242   2.964
54043W        W54908  23.806   1.719   2.690
54044W        W54909  22.163   2.477   1.347
54045W        W54910  22.310   1.774   2.237
54046W        W54911  24.627   2.060   2.587
54047W        W54912  24.399   3.440   3.398
54048W        W54913  24.295   1.179   2.951
54049W        W54914  24.572   3.233   1.356
54050W        W54915  23.574   2.953   2.679
54051W        W54916  23.059   3.308   1.948
54052W        W54917  24.864   2.479   2.367
54053W        W54918  23.914   2.551   3.504
54054W        W54919  22.519   2.504   1.843
54055W        W54920  24.865   2.263   1.488
54056W        W54921  24.506   3.329   2.239
54057W        W54922  22.484   3.058   2.109
54058W        W54923  23.505   1.110   3.319
54059W        W54924  23.956   3.276   0.830
54060W        W54925  23.264   2.531   3.468
54061W        W54926  23.390   2.769   0.845
54062W        W54927  22.611   1.509   0.104
54063W        W54928  21.950   3.595   7.003
54064W        W54929  22.326   2.488   6.526
54065W        W54930  25.031   2.218   4.296
54066W        W54931  25.161   3.303   6.323
54067W        W54932  23.079   3.294   3.849
54068W        W54933  23.162   1.446   4.832
54069W        W54934  22.677   1.294   4.996
54070W        W54935  23.668   2.109   4.430
54071W        W54936  23.343   3.201   6.785
54072W        W54937  21.992   0.762   6.748
54073W        W54938  22.754   0.042   6.550
54074W        W54939  24.448   0.430   5.437
54075W        W54940  24.097   1.301   4.007
54076W        W54941  24.667   0.735   7.098
54077W        W54942  22.033   0.527   6.223
54078W        W54943  22.132   3.146   7.244
54079W        W54944  23.654   2.536   3.976
54080W        W54945  22.086   1.319   5.669
54081W        W54946  22.979   1.210   6.906
54082W        W54947  25.438   1.069   5.405
54083W        W54948  25.202   2.112   6.264
54084W        W54949  23.510   1.445   5.291
54085W        W54950  24.056   2.784   5.660
54086W        W54951  22.556   2.218   5.892
54087W        W54952  21.915   1.746   5.463
54088W        W54953  22.951   1.718   6.655
54089W        W54954  25.222   1.501   6.909
54090W        W54955  22.838   2.945   5.354
54091W        W54956  23.959   2.634   6.488
54092W        W54957  23.179   1.274   5.713
54093W        W54958  23.471   2.058   5.356
54094W        W54959  24.468   2.831   7.204
54095W        W54960  23.547   2.151   7.214
54096W        W54961  23.528   1.867   6.692
54097W        W54962  21.937   1.258   7.214
54098W        W54963  24.769   2.793   6.813
54099W        W54964  22.350   0.375   4.811
54100W        W54965  22.877   2.633   5.810
54101W        W54966  25.340   2.416   5.100
54102W        W54967  24.753   0.816   5.667
54103W        W54968  25.038   0.769   3.762
54104W        W54969  25.503   1.570   6.068
54105W        W54970  23.470   3.277   5.821
54106W        W54971  25.244   2.743   4.259
54107W        W54972  22.373   3.529   4.013
54108W        W54973  22.766   3.575   4.689
54109W        W54974  22.563   0.329   6.115
54110W        W54975  25.186   1.347   6.390
54111W        W54976  24.591   1.769   4.849
54112W        W54977  24.557   1.457   3.876
54113W        W54978  23.765   2.601   6.016
54114W        W54979  23.571   0.931   5.215
54115W        W54980  24.171   3.018   6.209
54116W        W54981  25.042   1.809   4.631
54117W        W54982  23.944   0.467   4.647
54118W        W54983  22.601   3.161   4.330
54119W        W54984  21.972   0.660   4.929
54120W        W54985  24.758   1.267   5.403
54121W        W54986  22.216   2.884   5.318
54122W        W54987  23.557   3.234   4.188
54123W        W54988  24.949   1.260   3.652
54124W        W54989  21.972   3.018   5.816
54125W        W54990  22.763   2.590   6.296
54126W        W54991  23.136   1.950   4.915
54127W        W54992  23.158   0.355   6.008
54128W        W54993  25.387   0.117   5.305
54129W        W54994  22.606   1.989   3.773
54130W        W54995  22.261   1.022   3.952
54131W        W54996  22.323   2.978   4.746
54132W        W54997  23.454   2.461   4.994
54133W        W54998  24.786   3.320   6.708
54134W        W54999  23.712   0.962   4.392
54135W        W55000  25.095   3.360   5.164
54136W        W55001  24.772   1.213   6.762
54137W        W55002  25.485   2.869   4.896
54138W        W55003  24.112   2.161   6.380
54139W        W55004  21.878   1.712   4.586
54140W        W55005  22.989   2.127   6.159
54141W        W55006  24.193   1.391   4.537
54142W        W55007  24.070   1.881   4.641
54143W        W55008  22.413   1.301   6.115
54144W        W55009  22.398   1.177   7.037
54145W        W55010  22.288   0.094   5.196
54146W        W55011  24.056   0.441   5.757
54147W        W55012  23.704   0.626   6.920
54148W        W55013  24.059   0.775   4.098
54149W        W55014  25.242   3.168   6.852
54150W        W55015  24.209   0.249   6.891
54151W        W55016  25.228   2.550   7.013
54152W        W55017  24.658   0.717   6.609
54153W        W55018  24.458   0.655   4.879
54154W        W55019  24.851   1.789   7.283
54155W        W55020  22.591   3.365   5.269
54156W        W55021  23.249   1.082   4.255
54157W        W55022  22.818   0.366   6.919
54158W        W55023  24.870   0.850   4.600
54159W        W55024  25.237   1.332   4.545
54160W        W55025  22.980   3.549   7.016
54161W        W55026  22.906   0.085   4.251
54162W        W55027  25.227   0.619   5.286
54163W        W55028  25.377   2.868   3.731
54164W        W55029  22.284   2.071   5.433
54165W        W55030  24.201   0.658   3.663
54166W        W55031  25.335   2.990   5.383
54167W        W55032  25.374   0.184   6.133
54168W        W55033  23.819   1.396   6.687
54169W        W55034  23.912   2.735   4.390
54170W        W55035  24.312   2.029   7.130
54171W        W55036  23.986   0.006   5.439
54172W        W55037  22.598   0.909   5.502
54173W        W55038  22.152   2.109   6.276
54174W        W55039  24.011   3.302   4.982
54175W        W55040  25.205   0.899   5.854
54176W        W55041  23.842   3.246   6.621
54177W        W55042  25.185   2.305   3.826
54178W        W55043  23.620   1.788   4.887
54179W        W55044  25.472   0.299   6.628
54180W        W55045  23.621   2.134   6.222
54181W        W55046  23.838   1.020   5.667
54182W        W55047  24.690   1.318   4.505
54183W        W55048  24.977   1.051   4.147
54184W        W55049  24.786   3.091   4.536
54185W        W55050  24.620   2.694   5.332
54186W        W55051  24.516   1.773   4.310
54187W        W55052  23.949   1.983   5.296
54188W        W55053  24.830   1.771   5.363
54189W        W55054  22.205   0.786   5.787
54190W        W55055  24.983   1.838   6.614
54191W        W55056  25.334   3.456   5.760
54192W        W55057  23.264   2.900   5.162
54193W        W55058  24.271   3.433   6.486
54194W        W55059  24.265   0.763   6.250
54195W        W55060  23.472   3.471   6.311
54196W        W55061  25.169   0.425   4.777
54197W        W55062  24.960   1.744   6.078
54198W        W55063  21.943   1.065   6.116
54199W        W55064  24.803   0.860   5.134
54200W        W55065  25.214   1.011   6.911
54201W        W55066  24.099   2.710   5.129
54202W        W55067  23.355   3.301   4.742
54203W        W55068  22.470   0.481   4.000
54204W        W55069  23.574   0.135   5.810
54205W        W55070  22.602   3.255   3.658
54206W        W55071  22.976   1.721   4.409
54207W        W55072  23.630   2.350   6.722
54208W        W55073  23.460   0.708   4.712
54209W        W55074  24.816   0.305   5.140
54210W        W55075  24.536   3.587   5.468
54211W        W55076  23.948   3.235   5.808
54212W        W55077  23.344   2.272   5.769
54213W        W55078  25.114   2.995   5.895
54214W        W55079  22.808   0.498   4.664
54215W        W55080  23.330   2.795   5.624
54216W        W55081  22.813   0.726   3.689
54217W        W55082  23.614   1.335   6.083
54218W        W55083  24.462   0.201   5.953
54219W        W55084  21.882   2.044   5.838
54220W        W55085  23.586   1.862   3.996
54221W        W55086  22.854   0.177   3.766
54222W        W55087  23.592   1.258   4.817
54223W        W55088  24.562   0.234   6.516
54224W        W55089  23.150   2.246   6.625
54225W        W55090  23.954   2.028   6.842
54226W        W55091  24.571   2.058   6.735
54227W        W55092  23.855   0.198   7.240
54228W        W55093  23.077   0.814   5.633
54229W        W55094  22.503   0.770   5.031
54230W        W55095  22.289   3.482   4.707
54231W        W55096  23.621   2.812   6.832
54232W        W55097  22.656   2.297   4.191
54233W        W55098  24.336   1.682   5.412
54234W        W55099  24.616   1.481   5.811
54235W        W55100  23.821   2.155   5.745
54236W        W55101  24.291   2.529   3.877
54237W        W55102  23.963   0.550   5.205
54238W        W55103  25.442   0.828   4.473
54239W        W55104  21.936   3.417   6.504
54240W        W55105  22.353   2.643   6.036
54241W        W55106  21.920   3.489   4.268
54242W        W55107  23.819   0.759   6.074
54243W        W55108  23.182   2.782   3.923
54244W        W55109  25.087   3.164   4.109
54245W        W55110  24.062   1.817   4.123
54246W        W55111  22.905   1.008   4.640
54247W        W55112  23.737   0.918   3.692
54248W        W55113  24.321   2.483   6.870
54249W        W55114  24.674   0.389   4.487
54250W        W55115  22.004   0.237   3.935
54251W        W55116  23.290   2.556   6.225
54252W        W55117  23.089   2.472   5.317
54253W        W55118  22.831   2.424   3.715
54254W        W55119  22.072   2.665   4.483
54255W        W55120  22.576   1.735   6.925
54256W        W55121  23.280   0.295   7.111
54257W        W55122  23.989   0.437   6.467
54258W        W55123  23.184   0.205   4.748
54259W        W55124  24.243   0.282   4.253
54260W        W55125  22.188   0.214   5.830
54261W        W55126  22.236   1.177   5.200
54262W        W55127  24.925   0.285   5.606
54263W        W55128  22.347   0.783   4.420
54264W        W55129  24.918   0.471   6.036
54265W        W55130  25.314   1.674   3.721
54266W        W55131  22.606   0.432   5.540
54267W        W55132  23.720   1.004   6.480
54268W        W55133  21.868   0.694   3.958
54269W        W55134  22.654   2.083   6.519
54270W        W55135  24.012   1.481   5.698
54271W        W55136  23.879   3.560   3.994
54272W        W55137  22.025   2.067   3.691
54273W        W55138  22.760   2.478   6.817
54274W        W55139  22.281   1.645   6.448
54275W        W55140  23.272   1.750   6.242
54276W        W55141  25.040   0.109   6.504
54277W        W55142  25.438   1.719   6.495
54278W        W55143  25.426   1.919   4.181
54279W        W55144  24.289   2.251   4.280
54280W        W55145  24.763   3.551   3.975
54281W        W55146  23.940   1.541   7.117
54282W        W55147  22.270   2.508   7.157
54283W        W55148  25.476   0.430   7.109
54284W        W55149  25.194   1.358   5.730
54285W        W55150  23.502   3.488   7.207
54286W        W55151  23.357   0.117   3.934
54287W        W55152  24.896   2.716   3.877
54288W        W55153  22.665   0.809   6.763
54289W        W55154  23.099   2.803   6.625
54290W        W55155  25.225   0.794   6.423
54291W        W55156  24.436   3.453   4.391
54292W        W55157  24.675   2.072   5.758
54293W        W55158  22.925   0.488   6.425
54294W        W55159  23.394   1.557   7.182
54295W        W55160  22.897   2.736   4.376
54296W        W55161  24.652   2.234   4.640
54297W        W55162  22.420   0.860   6.364
54298W        W55163  23.749   2.922   4.828
54299W        W55164  25.499   1.482   5.009
54300W        W55165  23.721   0.115   6.728
54301W        W55166  24.501   2.820   5.807
54302W        W55167  24.023   2.966   3.943
54303W        W55168  22.033   2.858   6.785
54304W        W55169  22.776   0.850   6.023
54305W        W55170  22.746   0.198   5.133
54306W        W55171  24.367   1.040   5.825
54307W        W55172  23.165   2.211   4.025
54308W        W55173  25.163   2.153   5.524
54309W        W55174  22.490   2.911   6.947
54310W        W55175  24.877   3.593   4.744
54311W        W55176  22.976   0.613   5.189
54312W        W55177  22.745   2.106   5.279
54313W        W55178  23.058   3.517   6.029
54314W        W55179  25.125   3.613   7.061
54315W        W55180  24.284   1.801   5.994
54316W        W55181  22.133   1.599   3.909
54317W        W55182  25.267   3.257   4.606
54318W        W55183  25.104   0.581   4.225
54319W        W55184  23.243   0.100   6.628
54320W        W55185  24.949   2.902   5.086
54321W        W55186  24.978   1.458   4.991
54322W        W55187  23.095   1.131   5.207
54323W        W55188  23.340   1.393   6.531
54324W        W55189  24.451   2.546   6.394
54325W        W55190  23.101   1.000   6.506
54326W        W55191  23.080   3.466   5.122
54327W        W55192  22.397   3.425   6.756
54328W        W55193  22.509   2.786   3.886
54329W        W55194  25.026   2.544   4.696
54330W        W55195  22.630   1.336   6.582
54331W        W55196  25.403   1.266   4.063
54332W        W55197  23.148   2.323   4.534
54333W        W55198  24.247   1.705   6.615
54334W        W55199  24.138   1.333   6.159
54335W        W55200  22.698   1.705   6.188
54336W        W55201  24.908   3.593   6.017
54337W        W55202  24.699   0.227   7.011
54338W        W55203  22.363   0.377   6.598
54339W        W55204  22.702   1.400   5.651
54340W        W55205  23.071   1.214   3.773
54341W        W55206  21.874   2.973   6.318
54342W        W55207  23.459   1.682   5.761
54343W        W55208  23.282   0.707   3.866
54344W        W55209  22.417   1.523   4.647
54345W        W55210  22.188   3.375   6.084
54346W        W55211  24.983   1.601   4.192
54347W        W55212  25.078   0.517   6.878
54348W        W55213  24.514   2.726   4.841
54349W        W55214  22.112   1.650   7.018
54350W        W55215  25.078   0.114   4.314
54351W        W55216  24.598   2.589   4.325
54352W        W55217  23.500   1.647   4.410
54353W        W55218  24.687   0.451   3.933
54354W        W55219  24.752   1.058   6.119
54355W        W55220  22.461   1.651   5.326
54356W        W55221  22.755   2.590   4.975
54357W        W55222  24.518   1.210   4.940
54358W        W55223  23.541   0.589   5.636
54359W        W55224  25.503   2.500   6.147
54360W        W55225  25.421   0.487   5.708
54361W        W55226  21.960   3.317   5.084
54362W        W55227  22.469   2.504   4.620
54363W        W55228  22.384   0.121   7.173
54364W        W55229  23.503   2.974   7.275
54365W        W55230  25.258   1.942   5.065
54366W        W55231  24.612   2.119   3.945
54367W        W55232  23.907   3.640   6.157
54368W        W55233  24.764   2.362   7.194
54369W        W55234  23.579   0.072   4.474
54370W        W55235  24.292   0.941   5.333
54371W        W55236  21.978   2.528   5.665
54372W        W55237  23.231   0.490   4.306
54373W        W55238  23.035   1.974   7.155
54374W        W55239  24.029   0.955   4.869
54375W        W55240  24.234   2.365   5.991
54376W        W55241  22.388   2.970   6.426
54377W        W55242  22.979   2.953   7.149
54378W        W55243  22.830   0.750   4.163
54379W        W55244  24.347   0.892   4.488
54380W        W55245  24.305   3.000   6.725
54381W        W55246  22.990   1.592   5.324
54382W        W55247  22.645   3.290   6.189
54383W        W55248  25.390   3.407   3.790
54384W        W55249  22.253   2.079   6.786
54385W        W55250  24.248   2.341   5.474
54386W        W55251  22.684   1.990   4.716
54387W        W55252  23.055   2.997   6.111
54388W        W55253  23.433   0.416   5.152
54389W        W55254  22.044   2.400   4.082
54390W        W55255  23.563   1.351   3.952
54391W        W55256  22.209   1.900   4.971
54392W        W55257  23.499   0.542   6.435
54393W        W55258  25.171   0.251   3.862
54394W        W55259  25.264   1.997   6.961
54395W        W55260  23.918   3.254   7.113
54396W        W55261  25.476   2.348   6.635
54397W        W55262  24.884   3.146   7.246
54398W        W55263  22.623   3.602   5.724
54399W        W55264  25.482   2.224   4.598
54400W        W55265  24.012   1.491   5.111
54401W        W55266  23.779   0.103   5.001
54402W        W55267  22.838   3.087   4.838
54403W        W55268  23.337   0.828   6.063
54404W        W55269  23.037   0.197   5.532
54405W        W55270  22.100   3.019   4.080
54406W        W55271  23.916   2.383   4.798
54407W        W55272  22.791   3.178   6.677
54408W        W55273  22.268   2.001   4.373
54409W        W55274  22.153   0.544   5.372
54410W        W55275  23.701   2.509   5.429
54411W        W55276  21.953   0.363   4.449
54412W        W55277  24.617   1.569   6.376
54413W        W55278  24.494   0.955   3.948
54414W        W55279  25.011   2.627   5.596
54415W        W55280  23.672   3.111   5.427
54416W        W55281  23.084   3.215   4.338
54417W        W55282  24.366   0.118   3.768
54418W        W55283  22.166   3.378   5.509
54419W        W55284  24.363   1.136   7.144
54420W        W55285  22.346   0.666   7.143
54421W        W55286  22.077   1.266   4.476
54422W        W55287  22.768   1.255   4.201
54423W        W55288  24.531   1.582   7.018
54424W        W55289  22.874   1.863   5.727
54425W        W55290  24.348   0.149   4.847
54426W        W55291  23.479   3.580   5.350
54427W        W55292  24.693   3.042   6.287
54428W        W55293  24.277   3.191   5.398
54429W        W55294  24.296   2.171   4.992
54430W        W55295  23.758   0.396   4.063
54431W        W55296  25.439   0.024   4.785
54432W        W55297  23.127   1.659   3.948
54433W        W55298  25.293   0.996   4.938
54434W        W55299  23.985   2.166   3.815
54435W        W55300  24.921   2.366   6.563
54436W        W55301  24.575   3.067   4.030
54437W        W55302  23.190   0.742   6.936
54438W        W55303  23.010   1.326   6.177
54439W        W55304  25.102   2.821   6.454
54440W        W55305  24.202   0.771   6.831
54441W        W55306  22.046   1.242   6.608
54442W        W55307  23.806   1.719   6.334
54443W        W55308  22.163   2.477   4.991
54444W        W55309  22.310   1.774   5.881
54445W        W55310  24.627   2.060   6.231
54446W        W55311  24.399   3.440   7.042
54447W        W55312  24.295   1.179   6.595
54448W        W55313  24.572   3.233   5.000
54449W        W55314  23.574   2.953   6.323
54450W        W55315  23.059   3.308   5.592
54451W        W55316  24.864   2.479   6.011
54452W        W55317  23.914   2.551   7.148
54453W        W55318  22.519   2.504   5.487
54454W        W55319  24.865   2.263   5.132
54455W        W55320  24.506   3.329   5.883
54456W        W55321  22.484   3.058   5.753
54457W        W55322  23.505   1.110   6.963
54458W        W55323  23.956   3.276   4.474
54459W        W55324  23.264   2.531   7.112
54460W        W55325  23.390   2.769   4.489
54461W        W55326  22.611   1.509   3.748
54462W        W55327  21.950   3.595  10.648
54463W        W55328  22.326   2.488  10.171
54464W        W55329  25.031   2.218   7.941
54465W        W55330  25.161   3.303   9.968
54466W        W55331  23.079   3.294   7.494
54467W        W55332  23.162   1.446   8.477
54468W        W55333  22.677   1.294   8.641
54469W        W55334  23.668   2.109   8.075
54470W        W55335  23.343   3.201  10.430
54471W        W55336  21.992   0.762  10.393
54472W        W55337  22.754   0.042  10.195
54473W        W55338  24.448   0.430   9.082
54474W        W55339  24.097   1.301   7.652
54475W        W55340  24.667   0.735  10.743
54476W        W55341  22.033   0.527   9.868
54477W        W55342  22.132   3.146  10.889
54478W        W55343  23.654   2.536   7.621
54479W        W55344  22.086   1.319   9.314
54480W        W55345  22.979   1.210  10.551
54481W        W55346  25.438   1.069   9.050
54482W        W55347  25.202   2.112   9.909
54483W        W55348  23.510   1.445   8.936
54484W        W55349  24.056   2.784   9.305
54485W        W55350  22.556   2.218   9.537
54486W        W55351  21.915   1.746   9.108
54487W        W55352  22.951   1.718  10.300
54488W        W55353  25.222   1.501  10.554
54489W        W55354  22.838   2.945   8.999
54490W        W55355  23.959   2.634  10.133
54491W        W55356  23.179   1.274   9.358
54492W        W55357  23.471   2.058   9.001
54493W        W55358  24.468   2.831  10.849
54494W        W55359  23.547   2.151  10.859
54495W        W55360  23.528   1.867  10.337
54496W        W55361  21.937   1.258  10.859
54497W        W55362  24.769   2.793  10.458
54498W        W55363  22.350   0.375   8.456
54499W        W55364  22.877   2.633   9.455
54500W        W55365  25.340   2.416   8.745
54501W        W55366  24.753   0.816   9.312
54502W        W55367  25.038   0.769   7.407
54503W        W55368  25.503   1.570   9.713
54504W        W55369  23.470   3.277   9.466
54505W        W55370  25.244   2.743   7.904
54506W        W55371  22.373   3.529   7.658
54507W        W55372  22.766   3.575   8.334
54508W        W55373  22.563   0.329   9.760
54509W        W55374  25.186   1.347  10.035
54510W        W55375  24.591   1.769   8.494
54511W        W55376  24.557   1.457   7.521
54512W        W55377  23.765   2.601   9.661
54513W        W55378  23.571   0.931   8.860
54514W        W55379  24.171   3.018   9.854
54515W        W55380  25.042   1.809   8.276
54516W        W55381  23.944   0.467   8.292
54517W        W55382  22.601   3.161   7.975
54518W        W55383  21.972   0.660   8.574
54519W        W55384  24.758   1.267   9.048
54520W        W55385  22.216   2.884   8.963
54521W        W55386  23.557   3.234   7.833
54522W        W55387  24.949   1.260   7.297
54523W        W55388  21.972   3.018   9.461
54524W        W55389  22.763   2.590   9.941
54525W        W55390  23.136   1.950   8.560
54526W        W55391  23.158   0.355   9.653
54527W        W55392  25.387   0.117   8.950
54528W        W55393  22.606   1.989   7.418
54529W        W55394  22.261   1.022   7.597
54530W        W55395  22.323   2.978   8.391
54531W        W55396  23.454   2.461   8.639
54532W        W55397  24.786   3.320  10.353
54533W        W55398  23.712   0.962   8.037
54534W        W55399  25.095   3.360   8.809
54535W        W55400  24.772   1.213  10.407
54536W        W55401  25.485   2.869   8.541
54537W        W55402  24.112   2.161  10.025
54538W        W55403  21.878   1.712   8.231
54539W        W55404  22.989   2.127   9.804
54540W        W55405  24.193   1.391   8.182
54541W        W55406  24.070   1.881   8.286
54542W        W55407  22.413   1.301   9.760
54543W        W55408  22.398   1.177  10.682
54544W        W55409  22.288   0.094   8.841
54545W        W55410  24.056   0.441   9.402
54546W        W55411  23.704   0.626  10.565
54547W        W55412  24.059   0.775   7.743
54548W        W55413  25.242   3.168  10.497
54549W        W55414  24.209   0.249  10.536
54550W        W55415  25.228   2.550  10.658
54551W        W55416  24.658   0.717  10.254
54552W        W55417  24.458   0.655   8.524
54553W        W55418  24.851   1.789  10.928
54554W        W55419  22.591   3.365   8.914
54555W        W55420  23.249   1.082   7.900
54556W        W55421  22.818   0.366  10.564
54557W        W55422  24.870   0.850   8.245
54558W        W55423  25.237   1.332   8.190
54559W        W55424  22.980   3.549  10.661
54560W        W55425  22.906   0.085   7.896
54561W        W55426  25.227   0.619   8.931
54562W        W55427  25.377   2.868   7.376
54563W        W55428  22.284   2.071   9.078
54564W        W55429  24.201   0.658   7.308
54565W        W55430  25.335   2.990   9.028
54566W        W55431  25.374   0.184   9.778
54567W        W55432  23.819   1.396  10.332
54568W        W55433  23.912   2.735   8.035
54569W        W55434  24.312   2.029  10.775
54570W        W55435  23.986   0.006   9.084
54571W        W55436  22.598   0.909   9.147
54572W        W55437  22.152   2.109   9.921
54573W        W55438  24.011   3.302   8.627
54574W        W55439  25.205   0.899   9.499
54575W        W55440  23.842   3.246  10.266
54576W        W55441  25.185   2.305   7.471
54577W        W55442  23.620   1.788   8.532
54578W        W55443  25.472   0.299  10.273
54579W        W55444  23.621   2.134   9.867
54580W        W55445  23.838   1.020   9.312
54581W        W55446  24.690   1.318   8.150
54582W        W55447  24.977   1.051   7.792
54583W        W55448  24.786   3.091   8.181
54584W        W55449  24.620   2.694   8.977
54585W        W55450  24.516   1.773   7.955
54586W        W55451  23.949   1.983   8.941
54587W        W55452  24.830   1.771   9.008
54588W        W55453  22.205   0.786   9.432
54589W        W55454  24.983   1.838  10.259
54590W        W55455  25.334   3.456   9.405
54591W        W55456  23.264   2.900   8.807
54592W        W55457  24.271   3.433  10.131
54593W        W55458  24.265   0.763   9.895
54594W        W55459  23.472   3.471   9.956
54595W        W55460  25.169   0.425   8.422
54596W        W55461  24.960   1.744   9.723
54597W        W55462  21.943   1.065   9.761
54598W        W55463  24.803   0.860   8.779
54599W        W55464  25.214   1.011  10.556
54600W        W55465  24.099   2.710   8.774
54601W        W55466  23.355   3.301   8.387
54602W        W55467  22.470   0.481   7.645
54603W        W55468  23.574   0.135   9.455
54604W        W55469  22.602   3.255   7.303
54605W        W55470  22.976   1.721   8.054
54606W        W55471  23.630   2.350  10.367
54607W        W55472  23.460   0.708   8.357
54608W        W55473  24.816   0.305   8.785
54609W        W55474  24.536   3.587   9.113
54610W        W55475  23.948   3.235   9.453
54611W        W55476  23.344   2.272   9.414
54612W        W55477  25.114   2.995   9.540
54613W        W55478  22.808   0.498   8.309
54614W        W55479  23.330   2.795   9.269
54615W        W55480  22.813   0.726   7.334
54616W        W55481  23.614   1.335   9.728
54617W        W55482  24.462   0.201   9.598
54618W        W55483  21.882   2.044   9.483
54619W        W55484  23.586   1.862   7.641
54620W        W55485  23.592   1.258   8.462
54621W        W55486  24.562   0.234  10.161
54622W        W55487  23.150   2.246  10.270
54623W        W55488  23.954   2.028  10.487
54624W        W55489  24.571   2.058  10.380
54625W        W55490  23.855   0.198  10.885
54626W        W55491  23.077   0.814   9.278
54627W        W55492  22.503   0.770   8.676
54628W        W55493  22.289   3.482   8.352
54629W        W55494  23.621   2.812  10.477
54630W        W55495  22.656   2.297   7.836
54631W        W55496  24.336   1.682   9.057
54632W        W55497  24.616   1.481   9.456
54633W        W55498  23.821   2.155   9.390
54634W        W55499  24.291   2.529   7.522
54635W        W55500  23.963   0.550   8.850
54636W        W55501  25.442   0.828   8.118
54637W        W55502  21.936   3.417  10.149
54638W        W55503  22.353   2.643   9.681
54639W        W55504  21.920   3.489   7.913
54640W        W55505  23.819   0.759   9.719
54641W        W55506  23.182   2.782   7.568
54642W        W55507  25.087   3.164   7.754
54643W        W55508  24.062   1.817   7.768
54644W        W55509  22.905   1.008   8.285
54645W        W55510  23.737   0.918   7.337
54646W        W55511  24.321   2.483  10.515
54647W        W55512  24.674   0.389   8.132
54648W        W55513  22.004   0.237   7.580
54649W        W55514  23.290   2.556   9.870
54650W        W55515  23.089   2.472   8.962
54651W        W55516  22.831   2.424   7.360
54652W        W55517  22.072   2.665   8.128
54653W        W55518  22.576   1.735  10.570
54654W        W55519  23.280   0.295  10.756
54655W        W55520  23.989   0.437  10.112
54656W        W55521  23.184   0.205   8.393
54657W        W55522  24.243   0.282   7.898
54658W        W55523  22.188   0.214   9.475
54659W        W55524  22.236   1.177   8.845
54660W        W55525  24.925   0.285   9.251
54661W        W55526  22.347   0.783   8.065
54662W        W55527  24.918   0.471   9.681
54663W        W55528  25.314   1.674   7.366
54664W        W55529  22.606   0.432   9.185
54665W        W55530  23.720   1.004  10.125
54666W        W55531  21.868   0.694   7.603
54667W        W55532  22.654   2.083  10.164
54668W        W55533  24.012   1.481   9.343
54669W        W55534  23.879   3.560   7.639
54670W        W55535  22.025   2.067   7.336
54671W        W55536  22.760   2.478  10.462
54672W        W55537  22.281   1.645  10.093
54673W        W55538  23.272   1.750   9.887
54674W        W55539  25.040   0.109  10.149
54675W        W55540  25.438   1.719  10.140
54676W        W55541  25.426   1.919   7.826
54677W        W55542  24.289   2.251   7.925
54678W        W55543  24.763   3.551   7.620
54679W        W55544  23.940   1.541  10.762
54680W        W55545  22.270   2.508  10.802
54681W        W55546  25.476   0.430  10.754
54682W        W55547  25.194   1.358   9.375
54683W        W55548  23.502   3.488  10.852
54684W        W55549  23.357   0.117   7.579
54685W        W55550  24.896   2.716   7.522
54686W        W55551  22.665   0.809  10.408
54687W        W55552  23.099   2.803  10.270
54688W        W55553  25.225   0.794  10.068
54689W        W55554  24.436   3.453   8.036
54690W        W55555  24.675   2.072   9.403
54691W        W55556  22.925   0.488  10.070
54692W        W55557  23.394   1.557  10.827
54693W        W55558  22.897   2.736   8.021
54694W        W55559  24.652   2.234   8.285
54695W        W55560  22.420   0.860  10.009
54696W        W55561  23.749   2.922   8.473
54697W        W55562  25.499   1.482   8.654
54698W        W55563  23.721   0.115  10.373
54699W        W55564  24.501   2.820   9.452
54700W        W55565  24.804   3.164   9.160
54701W        W55566  24.023   2.966   7.588
54702W        W55567  22.033   2.858  10.430
54703W        W55568  22.776   0.850   9.668
54704W        W55569  22.746   0.198   8.778
54705W        W55570  24.367   1.040   9.470
54706W        W55571  23.165   2.211   7.670
54707W        W55572  25.163   2.153   9.169
54708W        W55573  22.490   2.911  10.592
54709W        W55574  24.877   3.593   8.389
54710W        W55575  22.976   0.613   8.834
54711W        W55576  22.745   2.106   8.924
54712W        W55577  23.058   3.517   9.674
54713W        W55578  25.125   3.613  10.706
54714W        W55579  24.284   1.801   9.639
54715W        W55580  22.133   1.599   7.554
54716W        W55581  25.267   3.257   8.251
54717W        W55582  25.104   0.581   7.870
54718W        W55583  23.243   0.100  10.273
54719W        W55584  24.949   2.902   8.731
54720W        W55585  24.978   1.458   8.636
54721W        W55586  23.095   1.131   8.852
54722W        W55587  23.340   1.393  10.176
54723W        W55588  24.451   2.546  10.039
54724W        W55589  23.101   1.000  10.151
54725W        W55590  23.080   3.466   8.767
54726W        W55591  22.397   3.425  10.401
54727W        W55592  22.509   2.786   7.531
54728W        W55593  25.026   2.544   8.341
54729W        W55594  22.630   1.336  10.227
54730W        W55595  25.403   1.266   7.708
54731W        W55596  23.148   2.323   8.179
54732W        W55597  24.247   1.705  10.260
54733W        W55598  24.138   1.333   9.804
54734W        W55599  22.698   1.705   9.833
54735W        W55600  24.908   3.593   9.662
54736W        W55601  24.699   0.227  10.656
54737W        W55602  22.363   0.377  10.243
54738W        W55603  22.702   1.400   9.296
54739W        W55604  23.071   1.214   7.418
54740W        W55605  21.874   2.973   9.963
54741W        W55606  23.459   1.682   9.406
54742W        W55607  23.282   0.707   7.511
54743W        W55608  22.417   1.523   8.292
54744W        W55609  22.188   3.375   9.729
54745W        W55610  24.983   1.601   7.837
54746W        W55611  25.078   0.517  10.523
54747W        W55612  24.514   2.726   8.486
54748W        W55613  22.112   1.650  10.663
54749W        W55614  25.078   0.114   7.959
54750W        W55615  24.598   2.589   7.970
54751W        W55616  23.500   1.647   8.055
54752W        W55617  24.687   0.451   7.578
54753W        W55618  24.752   1.058   9.764
54754W        W55619  22.461   1.651   8.971
54755W        W55620  22.755   2.590   8.620
54756W        W55621  24.518   1.210   8.585
54757W        W55622  23.541   0.589   9.281
54758W        W55623  25.503   2.500   9.792
54759W        W55624  25.421   0.487   9.353
54760W        W55625  21.960   3.317   8.729
54761W        W55626  22.469   2.504   8.265
54762W        W55627  22.384   0.121  10.818
54763W        W55628  23.503   2.974  10.920
54764W        W55629  25.258   1.942   8.710
54765W        W55630  24.612   2.119   7.590
54766W        W55631  23.907   3.640   9.802
54767W        W55632  24.764   2.362  10.839
54768W        W55633  23.579   0.072   8.119
54769W        W55634  24.292   0.941   8.978
54770W        W55635  21.978   2.528   9.310
54771W        W55636  23.231   0.490   7.951
54772W        W55637  23.035   1.974  10.800
54773W        W55638  24.029   0.955   8.514
54774W        W55639  24.234   2.365   9.636
54775W        W55640  22.388   2.970  10.071
54776W        W55641  22.979   2.953  10.794
54777W        W55642  22.830   0.750   7.808
54778W        W55643  24.347   0.892   8.133
54779W        W55644  24.305   3.000  10.370
54780W        W55645  22.990   1.592   8.969
54781W        W55646  22.645   3.290   9.834
54782W        W55647  25.390   3.407   7.435
54783W        W55648  22.253   2.079  10.431
54784W        W55649  24.248   2.341   9.119
54785W        W55650  22.684   1.990   8.361
54786W        W55651  23.055   2.997   9.756
54787W        W55652  23.433   0.416   8.797
54788W        W55653  22.044   2.400   7.727
54789W        W55654  23.563   1.351   7.597
54790W        W55655  22.209   1.900   8.616
54791W        W55656  23.499   0.542  10.080
54792W        W55657  25.171   0.251   7.507
54793W        W55658  25.264   1.997  10.606
54794W        W55659  23.918   3.254  10.758
54795W        W55660  25.476   2.348  10.280
54796W        W55661  24.884   3.146  10.891
54797W        W55662  22.623   3.602   9.369
54798W        W55663  25.482   2.224   8.243
54799W        W55664  24.012   1.491   8.756
54800W        W55665  23.779   0.103   8.646
54801W        W55666  22.838   3.087   8.483
54802W        W55667  23.337   0.828   9.708
54803W        W55668  23.037   0.197   9.177
54804W        W55669  22.100   3.019   7.725
54805W        W55670  23.916   2.383   8.443
54806W        W55671  22.791   3.178  10.322
54807W        W55672  22.268   2.001   8.018
54808W        W55673  22.153   0.544   9.017
54809W        W55674  23.701   2.509   9.074
54810W        W55675  21.953   0.363   8.094
54811W        W55676  24.617   1.569  10.021
54812W        W55677  24.494   0.955   7.593
54813W        W55678  25.011   2.627   9.241
54814W        W55679  23.672   3.111   9.072
54815W        W55680  23.084   3.215   7.983
54816W        W55681  24.366   0.118   7.413
54817W        W55682  22.166   3.378   9.154
54818W        W55683  24.363   1.136  10.789
54819W        W55684  22.346   0.666  10.788
54820W        W55685  22.077   1.266   8.121
54821W        W55686  22.768   1.255   7.846
54822W        W55687  24.531   1.582  10.663
54823W        W55688  22.874   1.863   9.372
54824W        W55689  24.348   0.149   8.492
54825W        W55690  23.479   3.580   8.995
54826W        W55691  24.693   3.042   9.932
54827W        W55692  24.277   3.191   9.043
54828W        W55693  24.296   2.171   8.637
54829W        W55694  23.758   0.396   7.708
54830W        W55695  25.439   0.024   8.430
54831W        W55696  23.127   1.659   7.593
54832W        W55697  25.293   0.996   8.583
54833W        W55698  23.985   2.166   7.460
54834W        W55699  24.921   2.366  10.208
54835W        W55700  24.575   3.067   7.675
54836W        W55701  23.190   0.742  10.581
54837W        W55702  23.010   1.326   9.822
54838W        W55703  25.102   2.821  10.099
54839W        W55704  24.202   0.771  10.476
54840W        W55705  22.046   1.242  10.253
54841W        W55706  23.806   1.719   9.979
54842W        W55707  22.163   2.477   8.636
54843W        W55708  22.310   1.774   9.526
54844W        W55709  24.627   2.060   9.876
54845W        W55710  24.399   3.440  10.687
54846W        W55711  24.295   1.179  10.240
54847W        W55712  24.572   3.233   8.645
54848W        W55713  23.574   2.953   9.968
54849W        W55714  23.059   3.308   9.237
54850W        W55715  24.864   2.479   9.656
54851W        W55716  23.914   2.551  10.793
54852W        W55717  22.519   2.504   9.132
54853W        W55718  24.865   2.263   8.777
54854W        W55719  24.506   3.329   9.528
54855W        W55720  22.484   3.058   9.398
54856W        W55721  23.505   1.110  10.608
54857W        W55722  23.956   3.276   8.119
54858W        W55723  23.264   2.531  10.757
54859W        W55724  23.390   2.769   8.134
54860W        W55725  22.611   1.509   7.393
54861W        W55726  21.950   3.595  14.292
54862W        W55727  22.326   2.488  13.815
54863W        W55728  25.031   2.218  11.585
54864W        W55729  25.161   3.303  13.612
54865W        W55730  23.079   3.294  11.138
54866W        W55731  23.162   1.446  12.121
54867W        W55732  22.677   1.294  12.285
54868W        W55733  23.668   2.109  11.719
54869W        W55734  23.343   3.201  14.074
54870W        W55735  21.992   0.762  14.037
54871W        W55736  22.754   0.042  13.839
54872W        W55737  24.448   0.430  12.726
54873W        W55738  24.097   1.301  11.296
54874W        W55739  24.667   0.735  14.387
54875W        W55740  22.033   0.527  13.512
54876W        W55741  22.132   3.146  14.533
54877W        W55742  23.654   2.536  11.265
54878W        W55743  22.086   1.319  12.958
54879W        W55744  22.979   1.210  14.195
54880W        W55745  25.438   1.069  12.694
54881W        W55746  25.202   2.112  13.553
54882W        W55747  23.510   1.445  12.580
54883W        W55748  24.056   2.784  12.949
54884W        W55749  22.556   2.218  13.181
54885W        W55750  21.915   1.746  12.752
54886W        W55751  22.951   1.718  13.944
54887W        W55752  25.222   1.501  14.198
54888W        W55753  22.838   2.945  12.643
54889W        W55754  23.959   2.634  13.777
54890W        W55755  23.179   1.274  13.002
54891W        W55756  23.471   2.058  12.645
54892W        W55757  24.468   2.831  14.493
54893W        W55758  23.547   2.151  14.503
54894W        W55759  23.528   1.867  13.981
54895W        W55760  21.937   1.258  14.503
54896W        W55761  24.769   2.793  14.102
54897W        W55762  22.350   0.375  12.100
54898W        W55763  22.877   2.633  13.099
54899W        W55764  25.340   2.416  12.389
54900W        W55765  24.753   0.816  12.956
54901W        W55766  25.038   0.769  11.051
54902W        W55767  25.503   1.570  13.357
54903W        W55768  23.470   3.277  13.110
54904W        W55769  25.244   2.743  11.548
54905W        W55770  22.373   3.529  11.302
54906W        W55771  22.766   3.575  11.978
54907W        W55772  22.563   0.329  13.404
54908W        W55773  25.186   1.347  13.679
54909W        W55774  24.591   1.769  12.138
54910W        W55775  24.557   1.457  11.165
54911W        W55776  23.765   2.601  13.305
54912W        W55777  23.571   0.931  12.504
54913W        W55778  24.171   3.018  13.498
54914W        W55779  25.042   1.809  11.920
54915W        W55780  23.944   0.467  11.936
54916W        W55781  22.601   3.161  11.619
54917W        W55782  21.972   0.660  12.218
54918W        W55783  24.758   1.267  12.692
54919W        W55784  22.216   2.884  12.607
54920W        W55785  23.557   3.234  11.477
54921W        W55786  24.949   1.260  10.941
54922W        W55787  21.972   3.018  13.105
54923W        W55788  22.763   2.590  13.585
54924W        W55789  23.136   1.950  12.204
54925W        W55790  23.158   0.355  13.297
54926W        W55791  25.387   0.117  12.594
54927W        W55792  22.606   1.989  11.062
54928W        W55793  22.261   1.022  11.241
54929W        W55794  22.323   2.978  12.035
54930W        W55795  23.454   2.461  12.283
54931W        W55796  24.786   3.320  13.997
54932W        W55797  23.712   0.962  11.681
54933W        W55798  25.095   3.360  12.453
54934W        W55799  24.772   1.213  14.051
54935W        W55800  25.485   2.869  12.185
54936W        W55801  24.112   2.161  13.669
54937W        W55802  21.878   1.712  11.875
54938W        W55803  22.989   2.127  13.448
54939W        W55804  24.193   1.391  11.826
54940W        W55805  24.070   1.881  11.930
54941W        W55806  22.413   1.301  13.404
54942W        W55807  22.398   1.177  14.326
54943W        W55808  22.288   0.094  12.485
54944W        W55809  24.056   0.441  13.046
54945W        W55810  23.704   0.626  14.209
54946W        W55811  24.059   0.775  11.387
54947W        W55812  25.242   3.168  14.141
54948W        W55813  24.209   0.249  14.180
54949W        W55814  25.228   2.550  14.302
54950W        W55815  24.658   0.717  13.898
54951W        W55816  24.458   0.655  12.168
54952W        W55817  24.851   1.789  14.572
54953W        W55818  22.591   3.365  12.558
54954W        W55819  23.249   1.082  11.544
54955W        W55820  22.818   0.366  14.208
54956W        W55821  24.870   0.850  11.889
54957W        W55822  25.237   1.332  11.834
54958W        W55823  22.980   3.549  14.305
54959W        W55824  22.906   0.085  11.540
54960W        W55825  25.227   0.619  12.575
54961W        W55826  25.377   2.868  11.020
54962W        W55827  22.284   2.071  12.722
54963W        W55828  24.201   0.658  10.952
54964W        W55829  25.335   2.990  12.672
54965W        W55830  25.374   0.184  13.422
54966W        W55831  23.819   1.396  13.976
54967W        W55832  23.912   2.735  11.679
54968W        W55833  24.312   2.029  14.419
54969W        W55834  23.986   0.006  12.728
54970W        W55835  22.598   0.909  12.791
54971W        W55836  22.152   2.109  13.565
54972W        W55837  24.011   3.302  12.271
54973W        W55838  25.205   0.899  13.143
54974W        W55839  23.842   3.246  13.910
54975W        W55840  25.185   2.305  11.115
54976W        W55841  23.620   1.788  12.176
54977W        W55842  25.472   0.299  13.917
54978W        W55843  23.621   2.134  13.511
54979W        W55844  23.838   1.020  12.956
54980W        W55845  24.690   1.318  11.794
54981W        W55846  24.977   1.051  11.436
54982W        W55847  24.786   3.091  11.825
54983W        W55848  24.620   2.694  12.621
54984W        W55849  24.516   1.773  11.599
54985W        W55850  23.949   1.983  12.585
54986W        W55851  24.830   1.771  12.652
54987W        W55852  22.205   0.786  13.076
54988W        W55853  24.983   1.838  13.903
54989W        W55854  25.334   3.456  13.049
54990W        W55855  23.264   2.900  12.451
54991W        W55856  24.271   3.433  13.775
54992W        W55857  24.265   0.763  13.539
54993W        W55858  23.472   3.471  13.600
54994W        W55859  25.169   0.425  12.066
54995W        W55860  24.960   1.744  13.367
54996W        W55861  21.943   1.065  13.405
54997W        W55862  24.803   0.860  12.423
54998W        W55863  25.214   1.011  14.200
54999W        W55864  24.099   2.710  12.418
55000W        W55865  23.355   3.301  12.031
55001W        W55866  22.470   0.481  11.289
55002W        W55867  23.574   0.135  13.099
55003W        W55868  22.602   3.255  10.947
55004W        W55869  22.976   1.721  11.698
55005W        W55870  23.630   2.350  14.011
55006W        W55871  23.460   0.708  12.001
55007W        W55872  24.816   0.305  12.429
55008W        W55873  24.536   3.587  12.757
55009W        W55874  23.948   3.235  13.097
55010W        W55875  23.344   2.272  13.058
55011W        W55876  25.114   2.995  13.184
55012W        W55877  22.808   0.498  11.953
55013W        W55878  23.330   2.795  12.913
55014W        W55879  22.813   0.726  10.978
55015W        W55880  23.614   1.335  13.372
55016W        W55881  24.462   0.201  13.242
55017W        W55882  21.882   2.044  13.127
55018W        W55883  23.586   1.862  11.285
55019W        W55884  22.854   0.177  11.055
55020W        W55885  23.592   1.258  12.106
55021W        W55886  24.562   0.234  13.805
55022W        W55887  23.150   2.246  13.914
55023W        W55888  23.954   2.028  14.131
55024W        W55889  24.571   2.058  14.024
55025W        W55890  23.855   0.198  14.529
55026W        W55891  23.077   0.814  12.922
55027W        W55892  22.503   0.770  12.320
55028W        W55893  22.289   3.482  11.996
55029W        W55894  23.621   2.812  14.121
55030W        W55895  22.656   2.297  11.480
55031W        W55896  24.336   1.682  12.701
55032W        W55897  24.616   1.481  13.100
55033W        W55898  23.821   2.155  13.034
55034W        W55899  24.291   2.529  11.166
55035W        W55900  23.963   0.550  12.494
55036W        W55901  25.442   0.828  11.762
55037W        W55902  21.936   3.417  13.793
55038W        W55903  22.353   2.643  13.325
55039W        W55904  21.920   3.489  11.557
55040W        W55905  23.819   0.759  13.363
55041W        W55906  23.182   2.782  11.212
55042W        W55907  25.087   3.164  11.398
55043W        W55908  24.062   1.817  11.412
55044W        W55909  22.905   1.008  11.929
55045W        W55910  23.737   0.918  10.981
55046W        W55911  24.321   2.483  14.159
55047W        W55912  24.674   0.389  11.776
55048W        W55913  22.004   0.237  11.224
55049W        W55914  23.290   2.556  13.514
55050W        W55915  23.089   2.472  12.606
55051W        W55916  22.831   2.424  11.004
55052W        W55917  22.072   2.665  11.772
55053W        W55918  22.576   1.735  14.214
55054W        W55919  23.280   0.295  14.400
55055W        W55920  23.989   0.437  13.756
55056W        W55921  23.184   0.205  12.037
55057W        W55922  24.243   0.282  11.542
55058W        W55923  22.188   0.214  13.119
55059W        W55924  22.236   1.177  12.489
55060W        W55925  24.925   0.285  12.895
55061W        W55926  22.347   0.783  11.709
55062W        W55927  24.918   0.471  13.325
55063W        W55928  25.314   1.674  11.010
55064W        W55929  22.606   0.432  12.829
55065W        W55930  23.720   1.004  13.769
55066W        W55931  21.868   0.694  11.247
55067W        W55932  22.654   2.083  13.808
55068W        W55933  24.012   1.481  12.987
55069W        W55934  23.879   3.560  11.283
55070W        W55935  22.025   2.067  10.980
55071W        W55936  22.760   2.478  14.106
55072W        W55937  22.281   1.645  13.737
55073W        W55938  23.272   1.750  13.531
55074W        W55939  25.040   0.109  13.793
55075W        W55940  25.438   1.719  13.784
55076W        W55941  25.426   1.919  11.470
55077W        W55942  24.289   2.251  11.569
55078W        W55943  24.763   3.551  11.264
55079W        W55944  23.940   1.541  14.406
55080W        W55945  22.270   2.508  14.446
55081W        W55946  25.476   0.430  14.398
55082W        W55947  25.194   1.358  13.019
55083W        W55948  23.502   3.488  14.496
55084W        W55949  23.357   0.117  11.223
55085W        W55950  24.896   2.716  11.166
55086W        W55951  22.665   0.809  14.052
55087W        W55952  23.099   2.803  13.914
55088W        W55953  25.225   0.794  13.712
55089W        W55954  24.436   3.453  11.680
55090W        W55955  24.675   2.072  13.047
55091W        W55956  22.925   0.488  13.714
55092W        W55957  23.394   1.557  14.471
55093W        W55958  22.897   2.736  11.665
55094W        W55959  24.652   2.234  11.929
55095W        W55960  22.420   0.860  13.653
55096W        W55961  23.749   2.922  12.117
55097W        W55962  25.499   1.482  12.298
55098W        W55963  23.721   0.115  14.017
55099W        W55964  24.501   2.820  13.096
55100W        W55965  24.804   3.164  12.804
55101W        W55966  24.023   2.966  11.232
55102W        W55967  22.033   2.858  14.074
55103W        W55968  22.776   0.850  13.312
55104W        W55969  22.746   0.198  12.422
55105W        W55970  24.367   1.040  13.114
55106W        W55971  23.165   2.211  11.314
55107W        W55972  25.163   2.153  12.813
55108W        W55973  22.490   2.911  14.236
55109W        W55974  24.877   3.593  12.033
55110W        W55975  22.976   0.613  12.478
55111W        W55976  22.745   2.106  12.568
55112W        W55977  23.058   3.517  13.318
55113W        W55978  25.125   3.613  14.350
55114W        W55979  24.284   1.801  13.283
55115W        W55980  22.133   1.599  11.198
55116W        W55981  25.267   3.257  11.895
55117W        W55982  25.104   0.581  11.514
55118W        W55983  23.243   0.100  13.917
55119W        W55984  24.949   2.902  12.375
55120W        W55985  24.978   1.458  12.280
55121W        W55986  23.095   1.131  12.496
55122W        W55987  23.340   1.393  13.820
55123W        W55988  24.451   2.546  13.683
55124W        W55989  23.101   1.000  13.795
55125W        W55990  23.080   3.466  12.411
55126W        W55991  22.397   3.425  14.045
55127W        W55992  22.509   2.786  11.175
55128W        W55993  25.026   2.544  11.985
55129W        W55994  22.630   1.336  13.871
55130W        W55995  25.403   1.266  11.352
55131W        W55996  23.148   2.323  11.823
55132W        W55997  24.247   1.705  13.904
55133W        W55998  24.138   1.333  13.448
55134W        W55999  22.698   1.705  13.477
55135W        W56000  24.908   3.593  13.306
55136W        W56001  24.699   0.227  14.300
55137W        W56002  22.363   0.377  13.887
55138W        W56003  22.702   1.400  12.940
55139W        W56004  23.071   1.214  11.062
55140W        W56005  21.874   2.973  13.607
55141W        W56006  23.459   1.682  13.050
55142W        W56007  23.282   0.707  11.155
55143W        W56008  22.417   1.523  11.936
55144W        W56009  22.188   3.375  13.373
55145W        W56010  24.983   1.601  11.481
55146W        W56011  25.078   0.517  14.167
55147W        W56012  24.514   2.726  12.130
55148W        W56013  22.112   1.650  14.307
55149W        W56014  25.078   0.114  11.603
55150W        W56015  24.598   2.589  11.614
55151W        W56016  23.500   1.647  11.699
55152W        W56017  24.687   0.451  11.222
55153W        W56018  24.752   1.058  13.408
55154W        W56019  22.461   1.651  12.615
55155W        W56020  22.755   2.590  12.264
55156W        W56021  24.518   1.210  12.229
55157W        W56022  23.541   0.589  12.925
55158W        W56023  25.503   2.500  13.436
55159W        W56024  25.421   0.487  12.997
55160W        W56025  21.960   3.317  12.373
55161W        W56026  22.469   2.504  11.909
55162W        W56027  22.384   0.121  14.462
55163W        W56028  23.503   2.974  14.564
55164W        W56029  25.258   1.942  12.354
55165W        W56030  24.612   2.119  11.234
55166W        W56031  23.907   3.640  13.446
55167W        W56032  24.764   2.362  14.483
55168W        W56033  23.579   0.072  11.763
55169W        W56034  24.292   0.941  12.622
55170W        W56035  21.978   2.528  12.954
55171W        W56036  23.231   0.490  11.595
55172W        W56037  23.035   1.974  14.444
55173W        W56038  24.029   0.955  12.158
55174W        W56039  24.234   2.365  13.280
55175W        W56040  22.388   2.970  13.715
55176W        W56041  22.979   2.953  14.438
55177W        W56042  22.830   0.750  11.452
55178W        W56043  24.347   0.892  11.777
55179W        W56044  24.305   3.000  14.014
55180W        W56045  22.990   1.592  12.613
55181W        W56046  22.645   3.290  13.478
55182W        W56047  25.390   3.407  11.079
55183W        W56048  22.253   2.079  14.075
55184W        W56049  24.248   2.341  12.763
55185W        W56050  22.684   1.990  12.005
55186W        W56051  23.055   2.997  13.400
55187W        W56052  23.433   0.416  12.441
55188W        W56053  22.044   2.400  11.371
55189W        W56054  23.563   1.351  11.241
55190W        W56055  22.209   1.900  12.260
55191W        W56056  23.499   0.542  13.724
55192W        W56057  25.171   0.251  11.151
55193W        W56058  25.264   1.997  14.250
55194W        W56059  23.918   3.254  14.402
55195W        W56060  25.476   2.348  13.924
55196W        W56061  24.884   3.146  14.535
55197W        W56062  22.623   3.602  13.013
55198W        W56063  25.482   2.224  11.887
55199W        W56064  24.012   1.491  12.400
55200W        W56065  23.779   0.103  12.290
55201W        W56066  22.838   3.087  12.127
55202W        W56067  23.337   0.828  13.352
55203W        W56068  23.037   0.197  12.821
55204W        W56069  22.100   3.019  11.369
55205W        W56070  23.916   2.383  12.087
55206W        W56071  22.791   3.178  13.966
55207W        W56072  22.268   2.001  11.662
55208W        W56073  22.153   0.544  12.661
55209W        W56074  23.701   2.509  12.718
55210W        W56075  21.953   0.363  11.738
55211W        W56076  24.617   1.569  13.665
55212W        W56077  24.494   0.955  11.237
55213W        W56078  25.011   2.627  12.885
55214W        W56079  23.672   3.111  12.716
55215W        W56080  23.084   3.215  11.627
55216W        W56081  24.366   0.118  11.057
55217W        W56082  22.166   3.378  12.798
55218W        W56083  24.363   1.136  14.433
55219W        W56084  22.346   0.666  14.432
55220W        W56085  22.077   1.266  11.765
55221W        W56086  22.768   1.255  11.490
55222W        W56087  24.531   1.582  14.307
55223W        W56088  22.874   1.863  13.016
55224W        W56089  24.348   0.149  12.136
55225W        W56090  23.479   3.580  12.639
55226W        W56091  24.693   3.042  13.576
55227W        W56092  24.277   3.191  12.687
55228W        W56093  24.296   2.171  12.281
55229W        W56094  23.758   0.396  11.352
55230W        W56095  25.439   0.024  12.074
55231W        W56096  23.127   1.659  11.237
55232W        W56097  25.293   0.996  12.227
55233W        W56098  23.985   2.166  11.104
55234W        W56099  24.921   2.366  13.852
55235W        W56100  24.575   3.067  11.319
55236W        W56101  23.190   0.742  14.225
55237W        W56102  23.010   1.326  13.466
55238W        W56103  25.102   2.821  13.743
55239W        W56104  24.202   0.771  14.120
55240W        W56105  22.046   1.242  13.897
55241W        W56106  23.806   1.719  13.623
55242W        W56107  22.163   2.477  12.280
55243W        W56108  22.310   1.774  13.170
55244W        W56109  24.627   2.060  13.520
55245W        W56110  24.399   3.440  14.331
55246W        W56111  24.295   1.179  13.884
55247W        W56112  24.572   3.233  12.289
55248W        W56113  23.574   2.953  13.612
55249W        W56114  23.059   3.308  12.881
55250W        W56115  24.864   2.479  13.300
55251W        W56116  23.914   2.551  14.437
55252W        W56117  22.519   2.504  12.776
55253W        W56118  24.865   2.263  12.421
55254W        W56119  24.506   3.329  13.172
55255W        W56120  22.484   3.058  13.042
55256W        W56121  23.505   1.110  14.252
55257W        W56122  23.956   3.276  11.763
55258W        W56123  23.264   2.531  14.401
55259W        W56124  23.390   2.769  11.778
55260W        W56125  22.611   1.509  11.037
55261W        W56126  21.950   3.595  17.936
55262W        W56127  22.326   2.488  17.459
55263W        W56128  25.031   2.218  15.229
55264W        W56129  25.161   3.303  17.256
55265W        W56130  23.079   3.294  14.782
55266W        W56131  23.162   1.446  15.765
55267W        W56132  22.677   1.294  15.929
55268W        W56133  23.668   2.109  15.363
55269W        W56134  23.343   3.201  17.718
55270W        W56135  21.992   0.762  17.681
55271W        W56136  22.754   0.042  17.483
55272W        W56137  24.448   0.430  16.370
55273W        W56138  24.097   1.301  14.940
55274W        W56139  24.667   0.735  18.031
55275W        W56140  22.033   0.527  17.156
55276W        W56141  22.132   3.146  18.177
55277W        W56142  23.654   2.536  14.909
55278W        W56143  22.086   1.319  16.602
55279W        W56144  22.979   1.210  17.839
55280W        W56145  25.438   1.069  16.338
55281W        W56146  25.202   2.112  17.197
55282W        W56147  23.510   1.445  16.224
55283W        W56148  24.056   2.784  16.593
55284W        W56149  22.556   2.218  16.825
55285W        W56150  21.915   1.746  16.396
55286W        W56151  22.951   1.718  17.588
55287W        W56152  25.222   1.501  17.842
55288W        W56153  22.838   2.945  16.287
55289W        W56154  23.959   2.634  17.421
55290W        W56155  23.179   1.274  16.646
55291W        W56156  23.471   2.058  16.289
55292W        W56157  24.468   2.831  18.137
55293W        W56158  23.547   2.151  18.147
55294W        W56159  23.528   1.867  17.625
55295W        W56160  21.937   1.258  18.147
55296W        W56161  24.769   2.793  17.746
55297W        W56162  22.350   0.375  15.744
55298W        W56163  22.877   2.633  16.743
55299W        W56164  25.340   2.416  16.033
55300W        W56165  24.753   0.816  16.600
55301W        W56166  25.038   0.769  14.695
55302W        W56167  25.503   1.570  17.001
55303W        W56168  23.470   3.277  16.754
55304W        W56169  25.244   2.743  15.192
55305W        W56170  22.373   3.529  14.946
55306W        W56171  22.766   3.575  15.622
55307W        W56172  22.563   0.329  17.048
55308W        W56173  25.186   1.347  17.323
55309W        W56174  24.591   1.769  15.782
55310W        W56175  24.557   1.457  14.809
55311W        W56176  23.765   2.601  16.949
55312W        W56177  23.571   0.931  16.148
55313W        W56178  24.171   3.018  17.142
55314W        W56179  25.042   1.809  15.564
55315W        W56180  23.944   0.467  15.580
55316W        W56181  22.601   3.161  15.263
55317W        W56182  21.972   0.660  15.862
55318W        W56183  24.758   1.267  16.336
55319W        W56184  22.216   2.884  16.251
55320W        W56185  23.557   3.234  15.121
55321W        W56186  24.949   1.260  14.585
55322W        W56187  21.972   3.018  16.749
55323W        W56188  22.763   2.590  17.229
55324W        W56189  23.136   1.950  15.848
55325W        W56190  23.158   0.355  16.941
55326W        W56191  25.387   0.117  16.238
55327W        W56192  22.606   1.989  14.706
55328W        W56193  22.261   1.022  14.885
55329W        W56194  22.323   2.978  15.679
55330W        W56195  23.454   2.461  15.927
55331W        W56196  24.786   3.320  17.641
55332W        W56197  23.712   0.962  15.325
55333W        W56198  25.095   3.360  16.097
55334W        W56199  24.772   1.213  17.695
55335W        W56200  25.485   2.869  15.829
55336W        W56201  24.112   2.161  17.313
55337W        W56202  21.878   1.712  15.519
55338W        W56203  22.989   2.127  17.092
55339W        W56204  24.193   1.391  15.470
55340W        W56205  24.070   1.881  15.574
55341W        W56206  22.413   1.301  17.048
55342W        W56207  22.398   1.177  17.970
55343W        W56208  22.288   0.094  16.129
55344W        W56209  24.056   0.441  16.690
55345W        W56210  23.704   0.626  17.853
55346W        W56211  24.059   0.775  15.031
55347W        W56212  25.242   3.168  17.785
55348W        W56213  24.209   0.249  17.824
55349W        W56214  25.228   2.550  17.946
55350W        W56215  24.658   0.717  17.542
55351W        W56216  24.458   0.655  15.812
55352W        W56217  24.851   1.789  18.216
55353W        W56218  22.591   3.365  16.202
55354W        W56219  23.249   1.082  15.188
55355W        W56220  22.818   0.366  17.852
55356W        W56221  24.870   0.850  15.533
55357W        W56222  25.237   1.332  15.478
55358W        W56223  22.980   3.549  17.949
55359W        W56224  22.906   0.085  15.184
55360W        W56225  25.227   0.619  16.219
55361W        W56226  25.377   2.868  14.664
55362W        W56227  22.284   2.071  16.366
55363W        W56228  24.201   0.658  14.596
55364W        W56229  25.335   2.990  16.316
55365W        W56230  25.374   0.184  17.066
55366W        W56231  23.819   1.396  17.620
55367W        W56232  23.912   2.735  15.323
55368W        W56233  24.312   2.029  18.063
55369W        W56234  23.986   0.006  16.372
55370W        W56235  22.598   0.909  16.435
55371W        W56236  22.152   2.109  17.209
55372W        W56237  24.011   3.302  15.915
55373W        W56238  25.205   0.899  16.787
55374W        W56239  23.842   3.246  17.554
55375W        W56240  25.185   2.305  14.759
55376W        W56241  23.620   1.788  15.820
55377W        W56242  25.472   0.299  17.561
55378W        W56243  23.621   2.134  17.155
55379W        W56244  23.838   1.020  16.600
55380W        W56245  24.690   1.318  15.438
55381W        W56246  24.977   1.051  15.080
55382W        W56247  24.786   3.091  15.469
55383W        W56248  24.620   2.694  16.265
55384W        W56249  24.516   1.773  15.243
55385W        W56250  23.949   1.983  16.229
55386W        W56251  24.830   1.771  16.296
55387W        W56252  22.205   0.786  16.720
55388W        W56253  24.983   1.838  17.547
55389W        W56254  25.334   3.456  16.693
55390W        W56255  23.264   2.900  16.095
55391W        W56256  24.271   3.433  17.419
55392W        W56257  24.265   0.763  17.183
55393W        W56258  23.472   3.471  17.244
55394W        W56259  25.169   0.425  15.710
55395W        W56260  24.960   1.744  17.011
55396W        W56261  21.943   1.065  17.049
55397W        W56262  24.803   0.860  16.067
55398W        W56263  25.214   1.011  17.844
55399W        W56264  24.099   2.710  16.062
55400W        W56265  23.355   3.301  15.675
55401W        W56266  22.470   0.481  14.933
55402W        W56267  23.574   0.135  16.743
55403W        W56268  22.602   3.255  14.591
55404W        W56269  22.976   1.721  15.342
55405W        W56270  23.630   2.350  17.655
55406W        W56271  23.460   0.708  15.645
55407W        W56272  24.816   0.305  16.073
55408W        W56273  24.536   3.587  16.401
55409W        W56274  23.948   3.235  16.741
55410W        W56275  23.344   2.272  16.702
55411W        W56276  25.114   2.995  16.828
55412W        W56277  22.808   0.498  15.597
55413W        W56278  23.330   2.795  16.557
55414W        W56279  22.813   0.726  14.622
55415W        W56280  23.614   1.335  17.016
55416W        W56281  24.462   0.201  16.886
55417W        W56282  21.882   2.044  16.771
55418W        W56283  23.586   1.862  14.929
55419W        W56284  22.854   0.177  14.699
55420W        W56285  23.592   1.258  15.750
55421W        W56286  24.562   0.234  17.449
55422W        W56287  23.150   2.246  17.558
55423W        W56288  23.954   2.028  17.775
55424W        W56289  24.571   2.058  17.668
55425W        W56290  23.855   0.198  18.173
55426W        W56291  23.077   0.814  16.566
55427W        W56292  22.503   0.770  15.964
55428W        W56293  22.289   3.482  15.640
55429W        W56294  23.621   2.812  17.765
55430W        W56295  22.656   2.297  15.124
55431W        W56296  24.336   1.682  16.345
55432W        W56297  24.616   1.481  16.744
55433W        W56298  23.821   2.155  16.678
55434W        W56299  24.291   2.529  14.810
55435W        W56300  23.963   0.550  16.138
55436W        W56301  25.442   0.828  15.406
55437W        W56302  21.936   3.417  17.437
55438W        W56303  22.353   2.643  16.969
55439W        W56304  21.920   3.489  15.201
55440W        W56305  23.819   0.759  17.007
55441W        W56306  23.182   2.782  14.856
55442W        W56307  25.087   3.164  15.042
55443W        W56308  24.062   1.817  15.056
55444W        W56309  22.905   1.008  15.573
55445W        W56310  23.737   0.918  14.625
55446W        W56311  24.321   2.483  17.803
55447W        W56312  24.674   0.389  15.420
55448W        W56313  22.004   0.237  14.868
55449W        W56314  23.290   2.556  17.158
55450W        W56315  23.089   2.472  16.250
55451W        W56316  22.831   2.424  14.648
55452W        W56317  22.072   2.665  15.416
55453W        W56318  22.576   1.735  17.858
55454W        W56319  23.280   0.295  18.044
55455W        W56320  23.989   0.437  17.400
55456W        W56321  23.184   0.205  15.681
55457W        W56322  24.243   0.282  15.186
55458W        W56323  22.188   0.214  16.763
55459W        W56324  22.236   1.177  16.133
55460W        W56325  24.925   0.285  16.539
55461W        W56326  22.347   0.783  15.353
55462W        W56327  24.918   0.471  16.969
55463W        W56328  25.314   1.674  14.654
55464W        W56329  22.606   0.432  16.473
55465W        W56330  23.720   1.004  17.413
55466W        W56331  21.868   0.694  14.891
55467W        W56332  22.654   2.083  17.452
55468W        W56333  24.012   1.481  16.631
55469W        W56334  23.879   3.560  14.927
55470W        W56335  22.025   2.067  14.624
55471W        W56336  22.760   2.478  17.750
55472W        W56337  22.281   1.645  17.381
55473W        W56338  23.272   1.750  17.175
55474W        W56339  25.040   0.109  17.437
55475W        W56340  25.438   1.719  17.428
55476W        W56341  25.426   1.919  15.114
55477W        W56342  24.289   2.251  15.213
55478W        W56343  24.763   3.551  14.908
55479W        W56344  23.940   1.541  18.050
55480W        W56345  22.270   2.508  18.090
55481W        W56346  25.476   0.430  18.042
55482W        W56347  25.194   1.358  16.663
55483W        W56348  23.502   3.488  18.140
55484W        W56349  23.357   0.117  14.867
55485W        W56350  24.896   2.716  14.810
55486W        W56351  22.665   0.809  17.696
55487W        W56352  23.099   2.803  17.558
55488W        W56353  25.225   0.794  17.356
55489W        W56354  24.436   3.453  15.324
55490W        W56355  24.675   2.072  16.691
55491W        W56356  22.925   0.488  17.358
55492W        W56357  23.394   1.557  18.115
55493W        W56358  22.897   2.736  15.309
55494W        W56359  24.652   2.234  15.573
55495W        W56360  22.420   0.860  17.297
55496W        W56361  23.749   2.922  15.761
55497W        W56362  25.499   1.482  15.942
55498W        W56363  23.721   0.115  17.661
55499W        W56364  24.501   2.820  16.740
55500W        W56365  24.804   3.164  16.448
55501W        W56366  24.023   2.966  14.876
55502W        W56367  22.033   2.858  17.718
55503W        W56368  22.776   0.850  16.956
55504W        W56369  22.746   0.198  16.066
55505W        W56370  24.367   1.040  16.758
55506W        W56371  23.165   2.211  14.958
55507W        W56372  25.163   2.153  16.457
55508W        W56373  22.490   2.911  17.880
55509W        W56374  24.877   3.593  15.677
55510W        W56375  22.976   0.613  16.122
55511W        W56376  22.745   2.106  16.212
55512W        W56377  23.058   3.517  16.962
55513W        W56378  25.125   3.613  17.994
55514W        W56379  24.284   1.801  16.927
55515W        W56380  22.133   1.599  14.842
55516W        W56381  25.267   3.257  15.539
55517W        W56382  25.104   0.581  15.158
55518W        W56383  23.243   0.100  17.561
55519W        W56384  24.949   2.902  16.019
55520W        W56385  24.978   1.458  15.924
55521W        W56386  23.095   1.131  16.140
55522W        W56387  23.340   1.393  17.464
55523W        W56388  24.451   2.546  17.327
55524W        W56389  23.101   1.000  17.439
55525W        W56390  23.080   3.466  16.055
55526W        W56391  22.397   3.425  17.689
55527W        W56392  22.509   2.786  14.819
55528W        W56393  25.026   2.544  15.629
55529W        W56394  22.630   1.336  17.515
55530W        W56395  25.403   1.266  14.996
55531W        W56396  23.148   2.323  15.467
55532W        W56397  24.247   1.705  17.548
55533W        W56398  24.138   1.333  17.092
55534W        W56399  22.698   1.705  17.121
55535W        W56400  24.908   3.593  16.950
55536W        W56401  24.699   0.227  17.944
55537W        W56402  22.363   0.377  17.531
55538W        W56403  22.702   1.400  16.584
55539W        W56404  23.071   1.214  14.706
55540W        W56405  21.874   2.973  17.251
55541W        W56406  23.459   1.682  16.694
55542W        W56407  23.282   0.707  14.799
55543W        W56408  22.417   1.523  15.580
55544W        W56409  22.188   3.375  17.017
55545W        W56410  24.983   1.601  15.125
55546W        W56411  25.078   0.517  17.811
55547W        W56412  24.514   2.726  15.774
55548W        W56413  22.112   1.650  17.951
55549W        W56414  25.078   0.114  15.247
55550W        W56415  24.598   2.589  15.258
55551W        W56416  23.500   1.647  15.343
55552W        W56417  24.687   0.451  14.866
55553W        W56418  24.752   1.058  17.052
55554W        W56419  22.461   1.651  16.259
55555W        W56420  22.755   2.590  15.908
55556W        W56421  24.518   1.210  15.873
55557W        W56422  23.541   0.589  16.569
55558W        W56423  25.503   2.500  17.080
55559W        W56424  25.421   0.487  16.641
55560W        W56425  21.960   3.317  16.017
55561W        W56426  22.469   2.504  15.553
55562W        W56427  22.384   0.121  18.106
55563W        W56428  23.503   2.974  18.208
55564W        W56429  25.258   1.942  15.998
55565W        W56430  24.612   2.119  14.878
55566W        W56431  23.907   3.640  17.090
55567W        W56432  24.764   2.362  18.127
55568W        W56433  23.579   0.072  15.407
55569W        W56434  24.292   0.941  16.266
55570W        W56435  21.978   2.528  16.598
55571W        W56436  23.231   0.490  15.239
55572W        W56437  23.035   1.974  18.088
55573W        W56438  24.029   0.955  15.802
55574W        W56439  24.234   2.365  16.924
55575W        W56440  22.388   2.970  17.359
55576W        W56441  22.979   2.953  18.082
55577W        W56442  22.830   0.750  15.096
55578W        W56443  24.347   0.892  15.421
55579W        W56444  24.305   3.000  17.658
55580W        W56445  22.990   1.592  16.257
55581W        W56446  22.645   3.290  17.122
55582W        W56447  25.390   3.407  14.723
55583W        W56448  22.253   2.079  17.719
55584W        W56449  24.248   2.341  16.407
55585W        W56450  22.684   1.990  15.649
55586W        W56451  23.055   2.997  17.044
55587W        W56452  23.433   0.416  16.085
55588W        W56453  22.044   2.400  15.015
55589W        W56454  23.563   1.351  14.885
55590W        W56455  22.209   1.900  15.904
55591W        W56456  23.499   0.542  17.368
55592W        W56457  25.171   0.251  14.795
55593W        W56458  25.264   1.997  17.894
55594W        W56459  23.918   3.254  18.046
55595W        W56460  25.476   2.348  17.568
55596W        W56461  24.884   3.146  18.179
55597W        W56462  22.623   3.602  16.657
55598W        W56463  25.482   2.224  15.531
55599W        W56464  24.012   1.491  16.044
55600W        W56465  23.779   0.103  15.934
55601W        W56466  22.838   3.087  15.771
55602W        W56467  23.337   0.828  16.996
55603W        W56468  23.037   0.197  16.465
55604W        W56469  22.100   3.019  15.013
55605W        W56470  23.916   2.383  15.731
55606W        W56471  22.791   3.178  17.610
55607W        W56472  22.268   2.001  15.306
55608W        W56473  22.153   0.544  16.305
55609W        W56474  23.701   2.509  16.362
55610W        W56475  21.953   0.363  15.382
55611W        W56476  24.617   1.569  17.309
55612W        W56477  24.494   0.955  14.881
55613W        W56478  25.011   2.627  16.529
55614W        W56479  23.672   3.111  16.360
55615W        W56480  23.084   3.215  15.271
55616W        W56481  24.366   0.118  14.701
55617W        W56482  22.166   3.378  16.442
55618W        W56483  24.363   1.136  18.077
55619W        W56484  22.346   0.666  18.076
55620W        W56485  22.077   1.266  15.409
55621W        W56486  22.768   1.255  15.134
55622W        W56487  24.531   1.582  17.951
55623W        W56488  22.874   1.863  16.660
55624W        W56489  24.348   0.149  15.780
55625W        W56490  23.479   3.580  16.283
55626W        W56491  24.693   3.042  17.220
55627W        W56492  24.277   3.191  16.331
55628W        W56493  24.296   2.171  15.925
55629W        W56494  23.758   0.396  14.996
55630W        W56495  25.439   0.024  15.718
55631W        W56496  23.127   1.659  14.881
55632W        W56497  25.293   0.996  15.871
55633W        W56498  23.985   2.166  14.748
55634W        W56499  24.921   2.366  17.496
55635W        W56500  24.575   3.067  14.963
55636W        W56501  23.190   0.742  17.869
55637W        W56502  23.010   1.326  17.110
55638W        W56503  25.102   2.821  17.387
55639W        W56504  24.202   0.771  17.764
55640W        W56505  22.046   1.242  17.541
55641W        W56506  23.806   1.719  17.267
55642W        W56507  22.163   2.477  15.924
55643W        W56508  22.310   1.774  16.814
55644W        W56509  24.627   2.060  17.164
55645W        W56510  24.399   3.440  17.975
55646W        W56511  24.295   1.179  17.528
55647W        W56512  24.572   3.233  15.933
55648W        W56513  23.574   2.953  17.256
55649W        W56514  23.059   3.308  16.525
55650W        W56515  24.864   2.479  16.944
55651W        W56516  23.914   2.551  18.081
55652W        W56517  22.519   2.504  16.420
55653W        W56518  24.865   2.263  16.065
55654W        W56519  24.506   3.329  16.816
55655W        W56520  22.484   3.058  16.686
55656W        W56521  23.505   1.110  17.896
55657W        W56522  23.956   3.276  15.407
55658W        W56523  23.264   2.531  18.045
55659W        W56524  23.390   2.769  15.422
55660W        W56525  22.611   1.509  14.681
55661W        W56526  21.950   3.595  21.580
55662W        W56527  22.326   2.488  21.103
55663W        W56528  25.031   2.218  18.873
55664W        W56529  25.161   3.303  20.900
55665W        W56530  23.079   3.294  18.426
55666W        W56531  23.162   1.446  19.409
55667W        W56532  22.677   1.294  19.573
55668W        W56533  23.668   2.109  19.007
55669W        W56534  23.343   3.201  21.362
55670W        W56535  21.992   0.762  21.325
55671W        W56536  22.754   0.042  21.127
55672W        W56537  24.448   0.430  20.014
55673W        W56538  24.097   1.301  18.584
55674W        W56539  24.667   0.735  21.675
55675W        W56540  22.033   0.527  20.800
55676W        W56541  22.132   3.146  21.821
55677W        W56542  23.654   2.536  18.553
55678W        W56543  22.086   1.319  20.246
55679W        W56544  22.979   1.210  21.483
55680W        W56545  25.438   1.069  19.982
55681W        W56546  25.202   2.112  20.841
55682W        W56547  23.510   1.445  19.868
55683W        W56548  24.056   2.784  20.237
55684W        W56549  22.556   2.218  20.469
55685W        W56550  21.915   1.746  20.040
55686W        W56551  22.951   1.718  21.232
55687W        W56552  25.222   1.501  21.486
55688W        W56553  22.838   2.945  19.931
55689W        W56554  23.959   2.634  21.065
55690W        W56555  23.179   1.274  20.290
55691W        W56556  23.471   2.058  19.933
55692W        W56557  24.468   2.831  21.781
55693W        W56558  23.547   2.151  21.791
55694W        W56559  23.528   1.867  21.269
55695W        W56560  21.937   1.258  21.791
55696W        W56561  24.769   2.793  21.390
55697W        W56562  22.350   0.375  19.388
55698W        W56563  22.877   2.633  20.387
55699W        W56564  25.340   2.416  19.677
55700W        W56565  24.753   0.816  20.244
55701W        W56566  25.038   0.769  18.339
55702W        W56567  25.503   1.570  20.645
55703W        W56568  23.470   3.277  20.398
55704W        W56569  25.244   2.743  18.836
55705W        W56570  22.373   3.529  18.590
55706W        W56571  22.766   3.575  19.266
55707W        W56572  22.563   0.329  20.692
55708W        W56573  25.186   1.347  20.967
55709W        W56574  24.591   1.769  19.426
55710W        W56575  24.557   1.457  18.453
55711W        W56576  23.765   2.601  20.593
55712W        W56577  23.571   0.931  19.792
55713W        W56578  24.171   3.018  20.786
55714W        W56579  25.042   1.809  19.208
55715W        W56580  23.944   0.467  19.224
55716W        W56581  22.601   3.161  18.907
55717W        W56582  21.972   0.660  19.506
55718W        W56583  24.758   1.267  19.980
55719W        W56584  22.216   2.884  19.895
55720W        W56585  23.557   3.234  18.765
55721W        W56586  24.949   1.260  18.229
55722W        W56587  21.972   3.018  20.393
55723W        W56588  22.763   2.590  20.873
55724W        W56589  23.136   1.950  19.492
55725W        W56590  23.158   0.355  20.585
55726W        W56591  25.387   0.117  19.882
55727W        W56592  22.261   1.022  18.529
55728W        W56593  22.323   2.978  19.323
55729W        W56594  23.454   2.461  19.571
55730W        W56595  24.786   3.320  21.285
55731W        W56596  23.712   0.962  18.969
55732W        W56597  25.095   3.360  19.741
55733W        W56598  24.772   1.213  21.339
55734W        W56599  25.485   2.869  19.473
55735W        W56600  24.112   2.161  20.957
55736W        W56601  21.878   1.712  19.163
55737W        W56602  22.989   2.127  20.736
55738W        W56603  24.193   1.391  19.114
55739W        W56604  24.070   1.881  19.218
55740W        W56605  22.413   1.301  20.692
55741W        W56606  22.398   1.177  21.614
55742W        W56607  22.288   0.094  19.773
55743W        W56608  24.056   0.441  20.334
55744W        W56609  23.704   0.626  21.497
55745W        W56610  24.059   0.775  18.675
55746W        W56611  25.242   3.168  21.429
55747W        W56612  24.209   0.249  21.468
55748W        W56613  25.228   2.550  21.590
55749W        W56614  24.658   0.717  21.186
55750W        W56615  24.458   0.655  19.456
55751W        W56616  24.851   1.789  21.860
55752W        W56617  22.591   3.365  19.846
55753W        W56618  23.249   1.082  18.832
55754W        W56619  22.818   0.366  21.496
55755W        W56620  24.870   0.850  19.177
55756W        W56621  25.237   1.332  19.122
55757W        W56622  22.980   3.549  21.593
55758W        W56623  22.906   0.085  18.828
55759W        W56624  25.227   0.619  19.863
55760W        W56625  25.377   2.868  18.308
55761W        W56626  22.284   2.071  20.010
55762W        W56627  24.201   0.658  18.240
55763W        W56628  25.335   2.990  19.960
55764W        W56629  25.374   0.184  20.710
55765W        W56630  23.819   1.396  21.264
55766W        W56631  23.912   2.735  18.967
55767W        W56632  24.312   2.029  21.707
55768W        W56633  23.986   0.006  20.016
55769W        W56634  22.598   0.909  20.079
55770W        W56635  22.152   2.109  20.853
55771W        W56636  24.011   3.302  19.559
55772W        W56637  25.205   0.899  20.431
55773W        W56638  23.842   3.246  21.198
55774W        W56639  25.185   2.305  18.403
55775W        W56640  23.620   1.788  19.464
55776W        W56641  25.472   0.299  21.205
55777W        W56642  23.621   2.134  20.799
55778W        W56643  23.838   1.020  20.244
55779W        W56644  24.690   1.318  19.082
55780W        W56645  24.977   1.051  18.724
55781W        W56646  24.786   3.091  19.113
55782W        W56647  24.620   2.694  19.909
55783W        W56648  24.516   1.773  18.887
55784W        W56649  23.949   1.983  19.873
55785W        W56650  24.830   1.771  19.940
55786W        W56651  22.205   0.786  20.364
55787W        W56652  24.983   1.838  21.191
55788W        W56653  25.334   3.456  20.337
55789W        W56654  23.264   2.900  19.739
55790W        W56655  24.271   3.433  21.063
55791W        W56656  24.265   0.763  20.827
55792W        W56657  23.472   3.471  20.888
55793W        W56658  25.169   0.425  19.354
55794W        W56659  24.960   1.744  20.655
55795W        W56660  21.943   1.065  20.693
55796W        W56661  24.803   0.860  19.711
55797W        W56662  25.214   1.011  21.488
55798W        W56663  24.099   2.710  19.706
55799W        W56664  23.355   3.301  19.319
55800W        W56665  22.470   0.481  18.577
55801W        W56666  23.574   0.135  20.387
55802W        W56667  22.602   3.255  18.235
55803W        W56668  22.976   1.721  18.986
55804W        W56669  23.630   2.350  21.299
55805W        W56670  23.460   0.708  19.289
55806W        W56671  24.816   0.305  19.717
55807W        W56672  24.536   3.587  20.045
55808W        W56673  23.948   3.235  20.385
55809W        W56674  23.344   2.272  20.346
55810W        W56675  25.114   2.995  20.472
55811W        W56676  22.808   0.498  19.241
55812W        W56677  23.330   2.795  20.201
55813W        W56678  22.813   0.726  18.266
55814W        W56679  23.614   1.335  20.660
55815W        W56680  24.462   0.201  20.530
55816W        W56681  21.882   2.044  20.415
55817W        W56682  23.586   1.862  18.573
55818W        W56683  22.854   0.177  18.343
55819W        W56684  23.592   1.258  19.394
55820W        W56685  24.562   0.234  21.093
55821W        W56686  23.150   2.246  21.202
55822W        W56687  23.954   2.028  21.419
55823W        W56688  24.571   2.058  21.312
55824W        W56689  23.855   0.198  21.817
55825W        W56690  23.077   0.814  20.210
55826W        W56691  22.503   0.770  19.608
55827W        W56692  22.289   3.482  19.284
55828W        W56693  23.621   2.812  21.409
55829W        W56694  22.656   2.297  18.768
55830W        W56695  24.336   1.682  19.989
55831W        W56696  24.616   1.481  20.388
55832W        W56697  23.821   2.155  20.322
55833W        W56698  24.291   2.529  18.454
55834W        W56699  23.963   0.550  19.782
55835W        W56700  25.442   0.828  19.050
55836W        W56701  21.936   3.417  21.081
55837W        W56702  22.353   2.643  20.613
55838W        W56703  21.920   3.489  18.845
55839W        W56704  23.819   0.759  20.651
55840W        W56705  23.182   2.782  18.500
55841W        W56706  25.087   3.164  18.686
55842W        W56707  24.062   1.817  18.700
55843W        W56708  22.905   1.008  19.217
55844W        W56709  23.737   0.918  18.269
55845W        W56710  24.321   2.483  21.447
55846W        W56711  24.674   0.389  19.064
55847W        W56712  22.004   0.237  18.512
55848W        W56713  23.290   2.556  20.802
55849W        W56714  23.089   2.472  19.894
55850W        W56715  22.831   2.424  18.292
55851W        W56716  22.072   2.665  19.060
55852W        W56717  22.576   1.735  21.502
55853W        W56718  23.280   0.295  21.688
55854W        W56719  23.989   0.437  21.044
55855W        W56720  23.184   0.205  19.325
55856W        W56721  24.243   0.282  18.830
55857W        W56722  22.188   0.214  20.407
55858W        W56723  22.236   1.177  19.777
55859W        W56724  24.925   0.285  20.183
55860W        W56725  22.347   0.783  18.997
55861W        W56726  24.918   0.471  20.613
55862W        W56727  25.314   1.674  18.298
55863W        W56728  22.606   0.432  20.117
55864W        W56729  23.720   1.004  21.057
55865W        W56730  21.868   0.694  18.535
55866W        W56731  22.654   2.083  21.096
55867W        W56732  24.012   1.481  20.275
55868W        W56733  23.879   3.560  18.571
55869W        W56734  22.025   2.067  18.268
55870W        W56735  22.760   2.478  21.394
55871W        W56736  22.281   1.645  21.025
55872W        W56737  23.272   1.750  20.819
55873W        W56738  25.040   0.109  21.081
55874W        W56739  25.438   1.719  21.072
55875W        W56740  25.426   1.919  18.758
55876W        W56741  24.289   2.251  18.857
55877W        W56742  23.940   1.541  21.694
55878W        W56743  22.270   2.508  21.734
55879W        W56744  25.476   0.430  21.686
55880W        W56745  25.194   1.358  20.307
55881W        W56746  23.502   3.488  21.784
55882W        W56747  23.357   0.117  18.511
55883W        W56748  24.896   2.716  18.454
55884W        W56749  22.665   0.809  21.340
55885W        W56750  23.099   2.803  21.202
55886W        W56751  25.225   0.794  21.000
55887W        W56752  24.436   3.453  18.968
55888W        W56753  24.675   2.072  20.335
55889W        W56754  22.925   0.488  21.002
55890W        W56755  23.394   1.557  21.759
55891W        W56756  22.897   2.736  18.953
55892W        W56757  24.652   2.234  19.217
55893W        W56758  22.420   0.860  20.941
55894W        W56759  23.749   2.922  19.405
55895W        W56760  25.499   1.482  19.586
55896W        W56761  23.721   0.115  21.305
55897W        W56762  24.501   2.820  20.384
55898W        W56763  24.804   3.164  20.092
55899W        W56764  24.023   2.966  18.520
55900W        W56765  22.033   2.858  21.362
55901W        W56766  22.776   0.850  20.600
55902W        W56767  22.746   0.198  19.710
55903W        W56768  24.367   1.040  20.402
55904W        W56769  23.165   2.211  18.602
55905W        W56770  25.163   2.153  20.101
55906W        W56771  22.490   2.911  21.524
55907W        W56772  24.877   3.593  19.321
55908W        W56773  22.976   0.613  19.766
55909W        W56774  22.745   2.106  19.856
55910W        W56775  23.058   3.517  20.606
55911W        W56776  25.125   3.613  21.638
55912W        W56777  24.284   1.801  20.571
55913W        W56778  22.133   1.599  18.486
55914W        W56779  25.267   3.257  19.183
55915W        W56780  25.104   0.581  18.802
55916W        W56781  23.243   0.100  21.205
55917W        W56782  24.949   2.902  19.663
55918W        W56783  24.978   1.458  19.568
55919W        W56784  23.095   1.131  19.784
55920W        W56785  23.340   1.393  21.108
55921W        W56786  24.451   2.546  20.971
55922W        W56787  23.101   1.000  21.083
55923W        W56788  23.080   3.466  19.699
55924W        W56789  22.397   3.425  21.333
55925W        W56790  22.509   2.786  18.463
55926W        W56791  25.026   2.544  19.273
55927W        W56792  22.630   1.336  21.159
55928W        W56793  25.403   1.266  18.640
55929W        W56794  23.148   2.323  19.111
55930W        W56795  24.247   1.705  21.192
55931W        W56796  24.138   1.333  20.736
55932W        W56797  22.698   1.705  20.765
55933W        W56798  24.908   3.593  20.594
55934W        W56799  24.699   0.227  21.588
55935W        W56800  22.363   0.377  21.175
55936W        W56801  22.702   1.400  20.228
55937W        W56802  23.071   1.214  18.350
55938W        W56803  21.874   2.973  20.895
55939W        W56804  23.459   1.682  20.338
55940W        W56805  23.282   0.707  18.443
55941W        W56806  22.417   1.523  19.224
55942W        W56807  22.188   3.375  20.661
55943W        W56808  24.983   1.601  18.769
55944W        W56809  25.078   0.517  21.455
55945W        W56810  24.514   2.726  19.418
55946W        W56811  22.112   1.650  21.595
55947W        W56812  25.078   0.114  18.891
55948W        W56813  24.598   2.589  18.902
55949W        W56814  23.500   1.647  18.987
55950W        W56815  24.687   0.451  18.510
55951W        W56816  24.752   1.058  20.696
55952W        W56817  22.461   1.651  19.903
55953W        W56818  22.755   2.590  19.552
55954W        W56819  24.518   1.210  19.517
55955W        W56820  23.541   0.589  20.213
55956W        W56821  25.503   2.500  20.724
55957W        W56822  25.421   0.487  20.285
55958W        W56823  21.960   3.317  19.661
55959W        W56824  22.469   2.504  19.197
55960W        W56825  22.384   0.121  21.750
55961W        W56826  23.503   2.974  21.852
55962W        W56827  25.258   1.942  19.642
55963W        W56828  24.612   2.119  18.522
55964W        W56829  23.907   3.640  20.734
55965W        W56830  24.764   2.362  21.771
55966W        W56831  23.579   0.072  19.051
55967W        W56832  24.292   0.941  19.910
55968W        W56833  21.978   2.528  20.242
55969W        W56834  23.231   0.490  18.883
55970W        W56835  23.035   1.974  21.732
55971W        W56836  24.029   0.955  19.446
55972W        W56837  24.234   2.365  20.568
55973W        W56838  22.388   2.970  21.003
55974W        W56839  22.979   2.953  21.726
55975W        W56840  22.830   0.750  18.740
55976W        W56841  24.347   0.892  19.065
55977W        W56842  24.305   3.000  21.302
55978W        W56843  22.990   1.592  19.901
55979W        W56844  22.645   3.290  20.766
55980W        W56845  25.390   3.407  18.367
55981W        W56846  22.253   2.079  21.363
55982W        W56847  24.248   2.341  20.051
55983W        W56848  22.684   1.990  19.293
55984W        W56849  23.055   2.997  20.688
55985W        W56850  23.433   0.416  19.729
55986W        W56851  22.044   2.400  18.659
55987W        W56852  23.563   1.351  18.529
55988W        W56853  22.209   1.900  19.548
55989W        W56854  23.499   0.542  21.012
55990W        W56855  25.171   0.251  18.439
55991W        W56856  25.264   1.997  21.538
55992W        W56857  23.918   3.254  21.690
55993W        W56858  25.476   2.348  21.212
55994W        W56859  24.884   3.146  21.823
55995W        W56860  22.623   3.602  20.301
55996W        W56861  25.482   2.224  19.175
55997W        W56862  24.012   1.491  19.688
55998W        W56863  23.779   0.103  19.578
55999W        W56864  22.838   3.087  19.415
56000W        W56865  23.337   0.828  20.640
56001W        W56866  23.037   0.197  20.109
56002W        W56867  22.100   3.019  18.657
56003W        W56868  23.916   2.383  19.375
56004W        W56869  22.791   3.178  21.254
56005W        W56870  22.268   2.001  18.950
56006W        W56871  22.153   0.544  19.949
56007W        W56872  23.701   2.509  20.006
56008W        W56873  21.953   0.363  19.026
56009W        W56874  24.617   1.569  20.953
56010W        W56875  24.494   0.955  18.525
56011W        W56876  25.011   2.627  20.173
56012W        W56877  23.672   3.111  20.004
56013W        W56878  23.084   3.215  18.915
56014W        W56879  24.366   0.118  18.345
56015W        W56880  22.166   3.378  20.086
56016W        W56881  24.363   1.136  21.721
56017W        W56882  22.346   0.666  21.720
56018W        W56883  22.077   1.266  19.053
56019W        W56884  22.768   1.255  18.778
56020W        W56885  24.531   1.582  21.595
56021W        W56886  22.874   1.863  20.304
56022W        W56887  24.348   0.149  19.424
56023W        W56888  23.479   3.580  19.927
56024W        W56889  24.693   3.042  20.864
56025W        W56890  24.277   3.191  19.975
56026W        W56891  24.296   2.171  19.569
56027W        W56892  23.758   0.396  18.640
56028W        W56893  25.439   0.024  19.362
56029W        W56894  23.127   1.659  18.525
56030W        W56895  25.293   0.996  19.515
56031W        W56896  23.985   2.166  18.392
56032W        W56897  24.921   2.366  21.140
56033W        W56898  24.575   3.067  18.607
56034W        W56899  23.190   0.742  21.513
56035W        W56900  23.010   1.326  20.754
56036W        W56901  25.102   2.821  21.031
56037W        W56902  24.202   0.771  21.408
56038W        W56903  22.046   1.242  21.185
56039W        W56904  23.806   1.719  20.911
56040W        W56905  22.163   2.477  19.568
56041W        W56906  22.310   1.774  20.458
56042W        W56907  24.627   2.060  20.808
56043W        W56908  24.399   3.440  21.619
56044W        W56909  24.295   1.179  21.172
56045W        W56910  24.572   3.233  19.577
56046W        W56911  23.574   2.953  20.900
56047W        W56912  23.059   3.308  20.169
56048W        W56913  24.864   2.479  20.588
56049W        W56914  23.914   2.551  21.725
56050W        W56915  22.519   2.504  20.064
56051W        W56916  24.865   2.263  19.709
56052W        W56917  24.506   3.329  20.460
56053W        W56918  22.484   3.058  20.330
56054W        W56919  23.505   1.110  21.540
56055W        W56920  23.956   3.276  19.051
56056W        W56921  23.264   2.531  21.689
56057W        W56922  23.390   2.769  19.066
56058W        W56923  22.611   1.509  18.325
56059W        W56924  21.950   3.595  25.225
56060W        W56925  22.326   2.488  24.748
56061W        W56926  25.031   2.218  22.518
56062W        W56927  25.161   3.303  24.545
56063W        W56928  23.079   3.294  22.071
56064W        W56929  23.162   1.446  23.054
56065W        W56930  22.677   1.294  23.218
56066W        W56931  23.668   2.109  22.652
56067W        W56932  23.343   3.201  25.007
56068W        W56933  21.992   0.762  24.970
56069W        W56934  22.754   0.042  24.772
56070W        W56935  24.448   0.430  23.659
56071W        W56936  24.097   1.301  22.229
56072W        W56937  24.667   0.735  25.320
56073W        W56938  22.033   0.527  24.445
56074W        W56939  22.132   3.146  25.466
56075W        W56940  23.654   2.536  22.198
56076W        W56941  22.086   1.319  23.891
56077W        W56942  22.979   1.210  25.128
56078W        W56943  25.438   1.069  23.627
56079W        W56944  25.202   2.112  24.486
56080W        W56945  23.510   1.445  23.513
56081W        W56946  24.056   2.784  23.882
56082W        W56947  22.556   2.218  24.114
56083W        W56948  21.915   1.746  23.685
56084W        W56949  22.951   1.718  24.877
56085W        W56950  25.222   1.501  25.131
56086W        W56951  22.838   2.945  23.576
56087W        W56952  23.959   2.634  24.710
56088W        W56953  23.179   1.274  23.935
56089W        W56954  23.471   2.058  23.578
56090W        W56955  24.468   2.831  25.426
56091W        W56956  23.547   2.151  25.436
56092W        W56957  23.528   1.867  24.914
56093W        W56958  21.937   1.258  25.436
56094W        W56959  24.769   2.793  25.035
56095W        W56960  22.350   0.375  23.033
56096W        W56961  22.877   2.633  24.032
56097W        W56962  25.340   2.416  23.322
56098W        W56963  24.753   0.816  23.889
56099W        W56964  25.038   0.769  21.984
56100W        W56965  25.503   1.570  24.290
56101W        W56966  23.470   3.277  24.043
56102W        W56967  25.244   2.743  22.481
56103W        W56968  22.373   3.529  22.235
56104W        W56969  22.766   3.575  22.911
56105W        W56970  22.563   0.329  24.337
56106W        W56971  25.186   1.347  24.612
56107W        W56972  24.591   1.769  23.071
56108W        W56973  24.557   1.457  22.098
56109W        W56974  23.765   2.601  24.238
56110W        W56975  23.571   0.931  23.437
56111W        W56976  24.171   3.018  24.431
56112W        W56977  25.042   1.809  22.853
56113W        W56978  23.944   0.467  22.869
56114W        W56979  22.601   3.161  22.552
56115W        W56980  21.972   0.660  23.151
56116W        W56981  24.758   1.267  23.625
56117W        W56982  22.216   2.884  23.540
56118W        W56983  23.557   3.234  22.410
56119W        W56984  24.949   1.260  21.874
56120W        W56985  21.972   3.018  24.038
56121W        W56986  22.763   2.590  24.518
56122W        W56987  23.136   1.950  23.137
56123W        W56988  23.158   0.355  24.230
56124W        W56989  25.387   0.117  23.527
56125W        W56990  22.606   1.989  21.995
56126W        W56991  22.261   1.022  22.174
56127W        W56992  22.323   2.978  22.968
56128W        W56993  23.454   2.461  23.216
56129W        W56994  24.786   3.320  24.930
56130W        W56995  23.712   0.962  22.614
56131W        W56996  25.095   3.360  23.386
56132W        W56997  24.772   1.213  24.984
56133W        W56998  25.485   2.869  23.118
56134W        W56999  24.112   2.161  24.602
56135W        W57000  21.878   1.712  22.808
56136W        W57001  22.989   2.127  24.381
56137W        W57002  24.193   1.391  22.759
56138W        W57003  24.070   1.881  22.863
56139W        W57004  22.413   1.301  24.337
56140W        W57005  22.398   1.177  25.259
56141W        W57006  22.288   0.094  23.418
56142W        W57007  24.056   0.441  23.979
56143W        W57008  23.704   0.626  25.142
56144W        W57009  24.059   0.775  22.320
56145W        W57010  25.242   3.168  25.074
56146W        W57011  24.209   0.249  25.113
56147W        W57012  25.228   2.550  25.235
56148W        W57013  24.658   0.717  24.831
56149W        W57014  24.458   0.655  23.101
56150W        W57015  24.851   1.789  25.505
56151W        W57016  22.591   3.365  23.491
56152W        W57017  23.249   1.082  22.477
56153W        W57018  22.818   0.366  25.141
56154W        W57019  24.870   0.850  22.822
56155W        W57020  25.237   1.332  22.767
56156W        W57021  22.980   3.549  25.238
56157W        W57022  22.906   0.085  22.473
56158W        W57023  25.227   0.619  23.508
56159W        W57024  25.377   2.868  21.953
56160W        W57025  22.284   2.071  23.655
56161W        W57026  24.201   0.658  21.885
56162W        W57027  25.335   2.990  23.605
56163W        W57028  25.374   0.184  24.355
56164W        W57029  23.819   1.396  24.909
56165W        W57030  23.912   2.735  22.612
56166W        W57031  24.312   2.029  25.352
56167W        W57032  23.986   0.006  23.661
56168W        W57033  22.598   0.909  23.724
56169W        W57034  22.152   2.109  24.498
56170W        W57035  24.011   3.302  23.204
56171W        W57036  25.205   0.899  24.076
56172W        W57037  23.842   3.246  24.843
56173W        W57038  25.185   2.305  22.048
56174W        W57039  23.620   1.788  23.109
56175W        W57040  25.472   0.299  24.850
56176W        W57041  23.621   2.134  24.444
56177W        W57042  23.838   1.020  23.889
56178W        W57043  24.690   1.318  22.727
56179W        W57044  24.977   1.051  22.369
56180W        W57045  24.786   3.091  22.758
56181W        W57046  24.620   2.694  23.554
56182W        W57047  24.516   1.773  22.532
56183W        W57048  23.949   1.983  23.518
56184W        W57049  24.830   1.771  23.585
56185W        W57050  22.205   0.786  24.009
56186W        W57051  24.983   1.838  24.836
56187W        W57052  25.334   3.456  23.982
56188W        W57053  23.264   2.900  23.384
56189W        W57054  24.271   3.433  24.708
56190W        W57055  24.265   0.763  24.472
56191W        W57056  23.472   3.471  24.533
56192W        W57057  25.169   0.425  22.999
56193W        W57058  24.960   1.744  24.300
56194W        W57059  21.943   1.065  24.338
56195W        W57060  24.803   0.860  23.356
56196W        W57061  25.214   1.011  25.133
56197W        W57062  24.099   2.710  23.351
56198W        W57063  23.355   3.301  22.964
56199W        W57064  22.470   0.481  22.222
56200W        W57065  23.574   0.135  24.032
56201W        W57066  22.602   3.255  21.880
56202W        W57067  22.976   1.721  22.631
56203W        W57068  23.630   2.350  24.944
56204W        W57069  23.460   0.708  22.934
56205W        W57070  24.816   0.305  23.362
56206W        W57071  24.536   3.587  23.690
56207W        W57072  23.948   3.235  24.030
56208W        W57073  23.344   2.272  23.991
56209W        W57074  25.114   2.995  24.117
56210W        W57075  22.808   0.498  22.886
56211W        W57076  23.330   2.795  23.846
56212W        W57077  22.813   0.726  21.911
56213W        W57078  23.614   1.335  24.305
56214W        W57079  24.462   0.201  24.175
56215W        W57080  21.882   2.044  24.060
56216W        W57081  23.586   1.862  22.218
56217W        W57082  22.854   0.177  21.988
56218W        W57083  23.592   1.258  23.039
56219W        W57084  24.562   0.234  24.738
56220W        W57085  23.150   2.246  24.847
56221W        W57086  23.954   2.028  25.064
56222W        W57087  24.571   2.058  24.957
56223W        W57088  23.855   0.198  25.462
56224W        W57089  23.077   0.814  23.855
56225W        W57090  22.503   0.770  23.253
56226W        W57091  22.289   3.482  22.929
56227W        W57092  23.621   2.812  25.054
56228W        W57093  22.656   2.297  22.413
56229W        W57094  24.336   1.682  23.634
56230W        W57095  24.616   1.481  24.033
56231W        W57096  23.821   2.155  23.967
56232W        W57097  24.291   2.529  22.099
56233W        W57098  23.963   0.550  23.427
56234W        W57099  25.442   0.828  22.695
56235W        W57100  21.936   3.417  24.726
56236W        W57101  22.353   2.643  24.258
56237W        W57102  21.920   3.489  22.490
56238W        W57103  23.819   0.759  24.296
56239W        W57104  23.182   2.782  22.145
56240W        W57105  25.087   3.164  22.331
56241W        W57106  24.062   1.817  22.345
56242W        W57107  22.905   1.008  22.862
56243W        W57108  23.737   0.918  21.914
56244W        W57109  24.321   2.483  25.092
56245W        W57110  24.674   0.389  22.709
56246W        W57111  22.004   0.237  22.157
56247W        W57112  23.290   2.556  24.447
56248W        W57113  23.089   2.472  23.539
56249W        W57114  22.831   2.424  21.937
56250W        W57115  22.072   2.665  22.705
56251W        W57116  22.576   1.735  25.147
56252W        W57117  23.280   0.295  25.333
56253W        W57118  23.989   0.437  24.689
56254W        W57119  23.184   0.205  22.970
56255W        W57120  24.243   0.282  22.475
56256W        W57121  22.188   0.214  24.052
56257W        W57122  22.236   1.177  23.422
56258W        W57123  24.925   0.285  23.828
56259W        W57124  22.347   0.783  22.642
56260W        W57125  24.918   0.471  24.258
56261W        W57126  25.314   1.674  21.943
56262W        W57127  22.606   0.432  23.762
56263W        W57128  23.720   1.004  24.702
56264W        W57129  21.868   0.694  22.180
56265W        W57130  22.654   2.083  24.741
56266W        W57131  24.012   1.481  23.920
56267W        W57132  23.879   3.560  22.216
56268W        W57133  22.025   2.067  21.913
56269W        W57134  22.760   2.478  25.039
56270W        W57135  22.281   1.645  24.670
56271W        W57136  23.272   1.750  24.464
56272W        W57137  25.040   0.109  24.726
56273W        W57138  25.438   1.719  24.717
56274W        W57139  25.426   1.919  22.403
56275W        W57140  24.289   2.251  22.502
56276W        W57141  24.763   3.551  22.197
56277W        W57142  23.940   1.541  25.339
56278W        W57143  22.270   2.508  25.379
56279W        W57144  25.476   0.430  25.331
56280W        W57145  25.194   1.358  23.952
56281W        W57146  23.502   3.488  25.429
56282W        W57147  23.357   0.117  22.156
56283W        W57148  24.896   2.716  22.099
56284W        W57149  22.665   0.809  24.985
56285W        W57150  23.099   2.803  24.847
56286W        W57151  25.225   0.794  24.645
56287W        W57152  24.436   3.453  22.613
56288W        W57153  24.675   2.072  23.980
56289W        W57154  22.925   0.488  24.647
56290W        W57155  23.394   1.557  25.404
56291W        W57156  22.897   2.736  22.598
56292W        W57157  24.652   2.234  22.862
56293W        W57158  22.420   0.860  24.586
56294W        W57159  23.749   2.922  23.050
56295W        W57160  25.499   1.482  23.231
56296W        W57161  23.721   0.115  24.950
56297W        W57162  24.501   2.820  24.029
56298W        W57163  24.804   3.164  23.737
56299W        W57164  24.023   2.966  22.165
56300W        W57165  22.033   2.858  25.007
56301W        W57166  22.776   0.850  24.245
56302W        W57167  22.746   0.198  23.355
56303W        W57168  24.367   1.040  24.047
56304W        W57169  23.165   2.211  22.247
56305W        W57170  25.163   2.153  23.746
56306W        W57171  22.490   2.911  25.169
56307W        W57172  24.877   3.593  22.966
56308W        W57173  22.976   0.613  23.411
56309W        W57174  22.745   2.106  23.501
56310W        W57175  23.058   3.517  24.251
56311W        W57176  25.125   3.613  25.283
56312W        W57177  24.284   1.801  24.216
56313W        W57178  22.133   1.599  22.131
56314W        W57179  25.267   3.257  22.828
56315W        W57180  25.104   0.581  22.447
56316W        W57181  23.243   0.100  24.850
56317W        W57182  24.949   2.902  23.308
56318W        W57183  24.978   1.458  23.213
56319W        W57184  23.095   1.131  23.429
56320W        W57185  23.340   1.393  24.753
56321W        W57186  24.451   2.546  24.616
56322W        W57187  23.101   1.000  24.728
56323W        W57188  23.080   3.466  23.344
56324W        W57189  22.397   3.425  24.978
56325W        W57190  22.509   2.786  22.108
56326W        W57191  25.026   2.544  22.918
56327W        W57192  22.630   1.336  24.804
56328W        W57193  25.403   1.266  22.285
56329W        W57194  23.148   2.323  22.756
56330W        W57195  24.247   1.705  24.837
56331W        W57196  24.138   1.333  24.381
56332W        W57197  22.698   1.705  24.410
56333W        W57198  24.908   3.593  24.239
56334W        W57199  24.699   0.227  25.233
56335W        W57200  22.363   0.377  24.820
56336W        W57201  22.702   1.400  23.873
56337W        W57202  23.071   1.214  21.995
56338W        W57203  21.874   2.973  24.540
56339W        W57204  23.459   1.682  23.983
56340W        W57205  23.282   0.707  22.088
56341W        W57206  22.417   1.523  22.869
56342W        W57207  22.188   3.375  24.306
56343W        W57208  24.983   1.601  22.414
56344W        W57209  25.078   0.517  25.100
56345W        W57210  24.514   2.726  23.063
56346W        W57211  22.112   1.650  25.240
56347W        W57212  25.078   0.114  22.536
56348W        W57213  24.598   2.589  22.547
56349W        W57214  23.500   1.647  22.632
56350W        W57215  24.687   0.451  22.155
56351W        W57216  24.752   1.058  24.341
56352W        W57217  22.461   1.651  23.548
56353W        W57218  22.755   2.590  23.197
56354W        W57219  24.518   1.210  23.162
56355W        W57220  23.541   0.589  23.858
56356W        W57221  25.503   2.500  24.369
56357W        W57222  25.421   0.487  23.930
56358W        W57223  21.960   3.317  23.306
56359W        W57224  22.469   2.504  22.842
56360W        W57225  22.384   0.121  25.395
56361W        W57226  23.503   2.974  25.497
56362W        W57227  25.258   1.942  23.287
56363W        W57228  24.612   2.119  22.167
56364W        W57229  23.907   3.640  24.379
56365W        W57230  24.764   2.362  25.416
56366W        W57231  23.579   0.072  22.696
56367W        W57232  24.292   0.941  23.555
56368W        W57233  21.978   2.528  23.887
56369W        W57234  23.231   0.490  22.528
56370W        W57235  23.035   1.974  25.377
56371W        W57236  24.029   0.955  23.091
56372W        W57237  24.234   2.365  24.213
56373W        W57238  22.388   2.970  24.648
56374W        W57239  22.979   2.953  25.371
56375W        W57240  22.830   0.750  22.385
56376W        W57241  24.347   0.892  22.710
56377W        W57242  24.305   3.000  24.947
56378W        W57243  22.990   1.592  23.546
56379W        W57244  22.645   3.290  24.411
56380W        W57245  25.390   3.407  22.012
56381W        W57246  22.253   2.079  25.008
56382W        W57247  24.248   2.341  23.696
56383W        W57248  22.684   1.990  22.938
56384W        W57249  23.055   2.997  24.333
56385W        W57250  23.433   0.416  23.374
56386W        W57251  22.044   2.400  22.304
56387W        W57252  23.563   1.351  22.174
56388W        W57253  22.209   1.900  23.193
56389W        W57254  23.499   0.542  24.657
56390W        W57255  25.171   0.251  22.084
56391W        W57256  25.264   1.997  25.183
56392W        W57257  23.918   3.254  25.335
56393W        W57258  25.476   2.348  24.857
56394W        W57259  24.884   3.146  25.468
56395W        W57260  22.623   3.602  23.946
56396W        W57261  25.482   2.224  22.820
56397W        W57262  24.012   1.491  23.333
56398W        W57263  23.779   0.103  23.223
56399W        W57264  22.838   3.087  23.060
56400W        W57265  23.337   0.828  24.285
56401W        W57266  23.037   0.197  23.754
56402W        W57267  22.100   3.019  22.302
56403W        W57268  23.916   2.383  23.020
56404W        W57269  22.791   3.178  24.899
56405W        W57270  22.268   2.001  22.595
56406W        W57271  22.153   0.544  23.594
56407W        W57272  23.701   2.509  23.651
56408W        W57273  21.953   0.363  22.671
56409W        W57274  24.617   1.569  24.598
56410W        W57275  24.494   0.955  22.170
56411W        W57276  25.011   2.627  23.818
56412W        W57277  23.672   3.111  23.649
56413W        W57278  23.084   3.215  22.560
56414W        W57279  24.366   0.118  21.990
56415W        W57280  22.166   3.378  23.731
56416W        W57281  24.363   1.136  25.366
56417W        W57282  22.346   0.666  25.365
56418W        W57283  22.077   1.266  22.698
56419W        W57284  22.768   1.255  22.423
56420W        W57285  24.531   1.582  25.240
56421W        W57286  22.874   1.863  23.949
56422W        W57287  24.348   0.149  23.069
56423W        W57288  23.479   3.580  23.572
56424W        W57289  24.693   3.042  24.509
56425W        W57290  24.277   3.191  23.620
56426W        W57291  24.296   2.171  23.214
56427W        W57292  23.758   0.396  22.285
56428W        W57293  25.439   0.024  23.007
56429W        W57294  23.127   1.659  22.170
56430W        W57295  25.293   0.996  23.160
56431W        W57296  23.985   2.166  22.037
56432W        W57297  24.921   2.366  24.785
56433W        W57298  24.575   3.067  22.252
56434W        W57299  23.190   0.742  25.158
56435W        W57300  23.010   1.326  24.399
56436W        W57301  25.102   2.821  24.676
56437W        W57302  24.202   0.771  25.053
56438W        W57303  22.046   1.242  24.830
56439W        W57304  23.806   1.719  24.556
56440W        W57305  22.163   2.477  23.213
56441W        W57306  22.310   1.774  24.103
56442W        W57307  24.627   2.060  24.453
56443W        W57308  24.399   3.440  25.264
56444W        W57309  24.295   1.179  24.817
56445W        W57310  24.572   3.233  23.222
56446W        W57311  23.574   2.953  24.545
56447W        W57312  23.059   3.308  23.814
56448W        W57313  24.864   2.479  24.233
56449W        W57314  23.914   2.551  25.370
56450W        W57315  22.519   2.504  23.709
56451W        W57316  24.865   2.263  23.354
56452W        W57317  24.506   3.329  24.105
56453W        W57318  22.484   3.058  23.975
56454W        W57319  23.505   1.110  25.185
56455W        W57320  23.956   3.276  22.696
56456W        W57321  23.264   2.531  25.334
56457W        W57322  23.390   2.769  22.711
56458W        W57323  22.611   1.509  21.970
56459W        W57324  21.950   3.595  28.869
56460W        W57325  22.326   2.488  28.392
56461W        W57326  25.031   2.218  26.162
56462W        W57327  25.161   3.303  28.189
56463W        W57328  23.079   3.294  25.715
56464W        W57329  23.162   1.446  26.698
56465W        W57330  22.677   1.294  26.862
56466W        W57331  23.668   2.109  26.296
56467W        W57332  23.343   3.201  28.651
56468W        W57333  21.992   0.762  28.614
56469W        W57334  22.754   0.042  28.416
56470W        W57335  24.448   0.430  27.303
56471W        W57336  24.097   1.301  25.873
56472W        W57337  24.667   0.735  28.964
56473W        W57338  22.033   0.527  28.089
56474W        W57339  22.132   3.146  29.110
56475W        W57340  23.654   2.536  25.842
56476W        W57341  22.086   1.319  27.535
56477W        W57342  22.979   1.210  28.772
56478W        W57343  25.438   1.069  27.271
56479W        W57344  25.202   2.112  28.130
56480W        W57345  23.510   1.445  27.157
56481W        W57346  24.056   2.784  27.526
56482W        W57347  22.556   2.218  27.758
56483W        W57348  21.915   1.746  27.329
56484W        W57349  22.951   1.718  28.521
56485W        W57350  25.222   1.501  28.775
56486W        W57351  22.838   2.945  27.220
56487W        W57352  23.959   2.634  28.354
56488W        W57353  23.179   1.274  27.579
56489W        W57354  23.471   2.058  27.222
56490W        W57355  24.468   2.831  29.070
56491W        W57356  23.547   2.151  29.080
56492W        W57357  23.528   1.867  28.558
56493W        W57358  21.937   1.258  29.080
56494W        W57359  24.769   2.793  28.679
56495W        W57360  22.350   0.375  26.677
56496W        W57361  22.877   2.633  27.676
56497W        W57362  25.340   2.416  26.966
56498W        W57363  24.753   0.816  27.533
56499W        W57364  25.038   0.769  25.628
56500W        W57365  25.503   1.570  27.934
56501W        W57366  23.470   3.277  27.687
56502W        W57367  25.244   2.743  26.125
56503W        W57368  22.373   3.529  25.879
56504W        W57369  22.766   3.575  26.555
56505W        W57370  22.563   0.329  27.981
56506W        W57371  25.186   1.347  28.256
56507W        W57372  24.591   1.769  26.715
56508W        W57373  24.557   1.457  25.742
56509W        W57374  23.765   2.601  27.882
56510W        W57375  23.571   0.931  27.081
56511W        W57376  24.171   3.018  28.075
56512W        W57377  25.042   1.809  26.497
56513W        W57378  23.944   0.467  26.513
56514W        W57379  22.601   3.161  26.196
56515W        W57380  21.972   0.660  26.795
56516W        W57381  24.758   1.267  27.269
56517W        W57382  22.216   2.884  27.184
56518W        W57383  23.557   3.234  26.054
56519W        W57384  24.949   1.260  25.518
56520W        W57385  21.972   3.018  27.682
56521W        W57386  22.763   2.590  28.162
56522W        W57387  23.136   1.950  26.781
56523W        W57388  23.158   0.355  27.874
56524W        W57389  25.387   0.117  27.171
56525W        W57390  22.606   1.989  25.639
56526W        W57391  22.261   1.022  25.818
56527W        W57392  22.323   2.978  26.612
56528W        W57393  23.454   2.461  26.860
56529W        W57394  24.786   3.320  28.574
56530W        W57395  23.712   0.962  26.258
56531W        W57396  25.095   3.360  27.030
56532W        W57397  24.772   1.213  28.628
56533W        W57398  25.485   2.869  26.762
56534W        W57399  24.112   2.161  28.246
56535W        W57400  21.878   1.712  26.452
56536W        W57401  22.989   2.127  28.025
56537W        W57402  24.193   1.391  26.403
56538W        W57403  24.070   1.881  26.507
56539W        W57404  22.413   1.301  27.981
56540W        W57405  22.398   1.177  28.903
56541W        W57406  22.288   0.094  27.062
56542W        W57407  24.056   0.441  27.623
56543W        W57408  23.704   0.626  28.786
56544W        W57409  24.059   0.775  25.964
56545W        W57410  25.242   3.168  28.718
56546W        W57411  24.209   0.249  28.757
56547W        W57412  25.228   2.550  28.879
56548W        W57413  24.658   0.717  28.475
56549W        W57414  24.458   0.655  26.745
56550W        W57415  24.851   1.789  29.149
56551W        W57416  22.591   3.365  27.135
56552W        W57417  23.249   1.082  26.121
56553W        W57418  22.818   0.366  28.785
56554W        W57419  24.870   0.850  26.466
56555W        W57420  25.237   1.332  26.411
56556W        W57421  22.980   3.549  28.882
56557W        W57422  22.906   0.085  26.117
56558W        W57423  25.227   0.619  27.152
56559W        W57424  25.377   2.868  25.597
56560W        W57425  22.284   2.071  27.299
56561W        W57426  24.201   0.658  25.529
56562W        W57427  25.335   2.990  27.249
56563W        W57428  25.374   0.184  27.999
56564W        W57429  23.819   1.396  28.553
56565W        W57430  23.912   2.735  26.256
56566W        W57431  24.312   2.029  28.996
56567W        W57432  23.986   0.006  27.305
56568W        W57433  22.598   0.909  27.368
56569W        W57434  22.152   2.109  28.142
56570W        W57435  24.011   3.302  26.848
56571W        W57436  25.205   0.899  27.720
56572W        W57437  23.842   3.246  28.487
56573W        W57438  25.185   2.305  25.692
56574W        W57439  23.620   1.788  26.753
56575W        W57440  25.472   0.299  28.494
56576W        W57441  23.621   2.134  28.088
56577W        W57442  23.838   1.020  27.533
56578W        W57443  24.690   1.318  26.371
56579W        W57444  24.977   1.051  26.013
56580W        W57445  24.786   3.091  26.402
56581W        W57446  24.620   2.694  27.198
56582W        W57447  24.516   1.773  26.176
56583W        W57448  23.949   1.983  27.162
56584W        W57449  24.830   1.771  27.229
56585W        W57450  22.205   0.786  27.653
56586W        W57451  24.983   1.838  28.480
56587W        W57452  25.334   3.456  27.626
56588W        W57453  23.264   2.900  27.028
56589W        W57454  24.271   3.433  28.352
56590W        W57455  24.265   0.763  28.116
56591W        W57456  23.472   3.471  28.177
56592W        W57457  25.169   0.425  26.643
56593W        W57458  24.960   1.744  27.944
56594W        W57459  21.943   1.065  27.982
56595W        W57460  24.803   0.860  27.000
56596W        W57461  25.214   1.011  28.777
56597W        W57462  24.099   2.710  26.995
56598W        W57463  23.355   3.301  26.608
56599W        W57464  22.470   0.481  25.866
56600W        W57465  23.574   0.135  27.676
56601W        W57466  22.602   3.255  25.524
56602W        W57467  22.976   1.721  26.275
56603W        W57468  23.630   2.350  28.588
56604W        W57469  23.460   0.708  26.578
56605W        W57470  24.816   0.305  27.006
56606W        W57471  24.536   3.587  27.334
56607W        W57472  23.948   3.235  27.674
56608W        W57473  23.344   2.272  27.635
56609W        W57474  25.114   2.995  27.761
56610W        W57475  22.808   0.498  26.530
56611W        W57476  23.330   2.795  27.490
56612W        W57477  22.813   0.726  25.555
56613W        W57478  23.614   1.335  27.949
56614W        W57479  24.462   0.201  27.819
56615W        W57480  21.882   2.044  27.704
56616W        W57481  23.586   1.862  25.862
56617W        W57482  22.854   0.177  25.632
56618W        W57483  23.592   1.258  26.683
56619W        W57484  24.562   0.234  28.382
56620W        W57485  23.150   2.246  28.491
56621W        W57486  23.954   2.028  28.708
56622W        W57487  24.571   2.058  28.601
56623W        W57488  23.855   0.198  29.106
56624W        W57489  23.077   0.814  27.499
56625W        W57490  22.503   0.770  26.897
56626W        W57491  22.289   3.482  26.573
56627W        W57492  23.621   2.812  28.698
56628W        W57493  22.656   2.297  26.057
56629W        W57494  24.336   1.682  27.278
56630W        W57495  24.616   1.481  27.677
56631W        W57496  23.821   2.155  27.611
56632W        W57497  24.291   2.529  25.743
56633W        W57498  23.963   0.550  27.071
56634W        W57499  25.442   0.828  26.339
56635W        W57500  21.936   3.417  28.370
56636W        W57501  22.353   2.643  27.902
56637W        W57502  21.920   3.489  26.134
56638W        W57503  23.819   0.759  27.940
56639W        W57504  23.182   2.782  25.789
56640W        W57505  25.087   3.164  25.975
56641W        W57506  24.062   1.817  25.989
56642W        W57507  22.905   1.008  26.506
56643W        W57508  23.737   0.918  25.558
56644W        W57509  24.321   2.483  28.736
56645W        W57510  24.674   0.389  26.353
56646W        W57511  22.004   0.237  25.801
56647W        W57512  23.290   2.556  28.091
56648W        W57513  23.089   2.472  27.183
56649W        W57514  22.831   2.424  25.581
56650W        W57515  22.072   2.665  26.349
56651W        W57516  22.576   1.735  28.791
56652W        W57517  23.280   0.295  28.977
56653W        W57518  23.989   0.437  28.333
56654W        W57519  23.184   0.205  26.614
56655W        W57520  24.243   0.282  26.119
56656W        W57521  22.188   0.214  27.696
56657W        W57522  22.236   1.177  27.066
56658W        W57523  24.925   0.285  27.472
56659W        W57524  22.347   0.783  26.286
56660W        W57525  24.918   0.471  27.902
56661W        W57526  25.314   1.674  25.587
56662W        W57527  22.606   0.432  27.406
56663W        W57528  23.720   1.004  28.346
56664W        W57529  21.868   0.694  25.824
56665W        W57530  22.654   2.083  28.385
56666W        W57531  24.012   1.481  27.564
56667W        W57532  23.879   3.560  25.860
56668W        W57533  22.025   2.067  25.557
56669W        W57534  22.760   2.478  28.683
56670W        W57535  22.281   1.645  28.314
56671W        W57536  23.272   1.750  28.108
56672W        W57537  25.040   0.109  28.370
56673W        W57538  25.438   1.719  28.361
56674W        W57539  25.426   1.919  26.047
56675W        W57540  24.289   2.251  26.146
56676W        W57541  24.763   3.551  25.841
56677W        W57542  23.940   1.541  28.983
56678W        W57543  22.270   2.508  29.023
56679W        W57544  25.476   0.430  28.975
56680W        W57545  25.194   1.358  27.596
56681W        W57546  23.502   3.488  29.073
56682W        W57547  23.357   0.117  25.800
56683W        W57548  24.896   2.716  25.743
56684W        W57549  22.665   0.809  28.629
56685W        W57550  23.099   2.803  28.491
56686W        W57551  25.225   0.794  28.289
56687W        W57552  24.436   3.453  26.257
56688W        W57553  24.675   2.072  27.624
56689W        W57554  22.925   0.488  28.291
56690W        W57555  23.394   1.557  29.048
56691W        W57556  22.897   2.736  26.242
56692W        W57557  24.652   2.234  26.506
56693W        W57558  22.420   0.860  28.230
56694W        W57559  23.749   2.922  26.694
56695W        W57560  25.499   1.482  26.875
56696W        W57561  23.721   0.115  28.594
56697W        W57562  24.501   2.820  27.673
56698W        W57563  24.804   3.164  27.381
56699W        W57564  24.023   2.966  25.809
56700W        W57565  22.033   2.858  28.651
56701W        W57566  22.776   0.850  27.889
56702W        W57567  22.746   0.198  26.999
56703W        W57568  24.367   1.040  27.691
56704W        W57569  23.165   2.211  25.891
56705W        W57570  25.163   2.153  27.390
56706W        W57571  22.490   2.911  28.813
56707W        W57572  24.877   3.593  26.610
56708W        W57573  22.976   0.613  27.055
56709W        W57574  22.745   2.106  27.145
56710W        W57575  23.058   3.517  27.895
56711W        W57576  25.125   3.613  28.927
56712W        W57577  24.284   1.801  27.860
56713W        W57578  22.133   1.599  25.775
56714W        W57579  25.267   3.257  26.472
56715W        W57580  25.104   0.581  26.091
56716W        W57581  23.243   0.100  28.494
56717W        W57582  24.949   2.902  26.952
56718W        W57583  24.978   1.458  26.857
56719W        W57584  23.095   1.131  27.073
56720W        W57585  23.340   1.393  28.397
56721W        W57586  24.451   2.546  28.260
56722W        W57587  23.101   1.000  28.372
56723W        W57588  23.080   3.466  26.988
56724W        W57589  22.397   3.425  28.622
56725W        W57590  22.509   2.786  25.752
56726W        W57591  25.026   2.544  26.562
56727W        W57592  22.630   1.336  28.448
56728W        W57593  25.403   1.266  25.929
56729W        W57594  23.148   2.323  26.400
56730W        W57595  24.247   1.705  28.481
56731W        W57596  24.138   1.333  28.025
56732W        W57597  22.698   1.705  28.054
56733W        W57598  24.908   3.593  27.883
56734W        W57599  24.699   0.227  28.877
56735W        W57600  22.363   0.377  28.464
56736W        W57601  22.702   1.400  27.517
56737W        W57602  23.071   1.214  25.639
56738W        W57603  21.874   2.973  28.184
56739W        W57604  23.459   1.682  27.627
56740W        W57605  23.282   0.707  25.732
56741W        W57606  22.417   1.523  26.513
56742W        W57607  22.188   3.375  27.950
56743W        W57608  24.983   1.601  26.058
56744W        W57609  25.078   0.517  28.744
56745W        W57610  24.514   2.726  26.707
56746W        W57611  22.112   1.650  28.884
56747W        W57612  25.078   0.114  26.180
56748W        W57613  24.598   2.589  26.191
56749W        W57614  23.500   1.647  26.276
56750W        W57615  24.687   0.451  25.799
56751W        W57616  24.752   1.058  27.985
56752W        W57617  22.461   1.651  27.192
56753W        W57618  22.755   2.590  26.841
56754W        W57619  24.518   1.210  26.806
56755W        W57620  23.541   0.589  27.502
56756W        W57621  25.503   2.500  28.013
56757W        W57622  25.421   0.487  27.574
56758W        W57623  21.960   3.317  26.950
56759W        W57624  22.469   2.504  26.486
56760W        W57625  22.384   0.121  29.039
56761W        W57626  23.503   2.974  29.141
56762W        W57627  25.258   1.942  26.931
56763W        W57628  24.612   2.119  25.811
56764W        W57629  23.907   3.640  28.023
56765W        W57630  24.764   2.362  29.060
56766W        W57631  23.579   0.072  26.340
56767W        W57632  24.292   0.941  27.199
56768W        W57633  21.978   2.528  27.531
56769W        W57634  23.231   0.490  26.172
56770W        W57635  23.035   1.974  29.021
56771W        W57636  24.029   0.955  26.735
56772W        W57637  24.234   2.365  27.857
56773W        W57638  22.388   2.970  28.292
56774W        W57639  22.979   2.953  29.015
56775W        W57640  22.830   0.750  26.029
56776W        W57641  24.347   0.892  26.354
56777W        W57642  24.305   3.000  28.591
56778W        W57643  22.990   1.592  27.190
56779W        W57644  22.645   3.290  28.055
56780W        W57645  25.390   3.407  25.656
56781W        W57646  22.253   2.079  28.652
56782W        W57647  24.248   2.341  27.340
56783W        W57648  22.684   1.990  26.582
56784W        W57649  23.055   2.997  27.977
56785W        W57650  23.433   0.416  27.018
56786W        W57651  22.044   2.400  25.948
56787W        W57652  23.563   1.351  25.818
56788W        W57653  22.209   1.900  26.837
56789W        W57654  23.499   0.542  28.301
56790W        W57655  25.171   0.251  25.728
56791W        W57656  25.264   1.997  28.827
56792W        W57657  23.918   3.254  28.979
56793W        W57658  25.476   2.348  28.501
56794W        W57659  24.884   3.146  29.112
56795W        W57660  22.623   3.602  27.590
56796W        W57661  25.482   2.224  26.464
56797W        W57662  24.012   1.491  26.977
56798W        W57663  23.779   0.103  26.867
56799W        W57664  22.838   3.087  26.704
56800W        W57665  23.337   0.828  27.929
56801W        W57666  23.037   0.197  27.398
56802W        W57667  22.100   3.019  25.946
56803W        W57668  23.916   2.383  26.664
56804W        W57669  22.791   3.178  28.543
56805W        W57670  22.268   2.001  26.239
56806W        W57671  22.153   0.544  27.238
56807W        W57672  23.701   2.509  27.295
56808W        W57673  21.953   0.363  26.315
56809W        W57674  24.617   1.569  28.242
56810W        W57675  24.494   0.955  25.814
56811W        W57676  25.011   2.627  27.462
56812W        W57677  23.672   3.111  27.293
56813W        W57678  23.084   3.215  26.204
56814W        W57679  24.366   0.118  25.634
56815W        W57680  22.166   3.378  27.375
56816W        W57681  24.363   1.136  29.010
56817W        W57682  22.346   0.666  29.009
56818W        W57683  22.077   1.266  26.342
56819W        W57684  22.768   1.255  26.067
56820W        W57685  24.531   1.582  28.884
56821W        W57686  22.874   1.863  27.593
56822W        W57687  24.348   0.149  26.713
56823W        W57688  23.479   3.580  27.216
56824W        W57689  24.693   3.042  28.153
56825W        W57690  24.277   3.191  27.264
56826W        W57691  24.296   2.171  26.858
56827W        W57692  23.758   0.396  25.929
56828W        W57693  25.439   0.024  26.651
56829W        W57694  23.127   1.659  25.814
56830W        W57695  25.293   0.996  26.804
56831W        W57696  23.985   2.166  25.681
56832W        W57697  24.921   2.366  28.429
56833W        W57698  24.575   3.067  25.896
56834W        W57699  23.190   0.742  28.802
56835W        W57700  23.010   1.326  28.043
56836W        W57701  25.102   2.821  28.320
56837W        W57702  24.202   0.771  28.697
56838W        W57703  22.046   1.242  28.474
56839W        W57704  23.806   1.719  28.200
56840W        W57705  22.163   2.477  26.857
56841W        W57706  22.310   1.774  27.747
56842W        W57707  24.627   2.060  28.097
56843W        W57708  24.399   3.440  28.908
56844W        W57709  24.295   1.179  28.461
56845W        W57710  24.572   3.233  26.866
56846W        W57711  23.574   2.953  28.189
56847W        W57712  23.059   3.308  27.458
56848W        W57713  24.864   2.479  27.877
56849W        W57714  23.914   2.551  29.014
56850W        W57715  22.519   2.504  27.353
56851W        W57716  24.865   2.263  26.998
56852W        W57717  24.506   3.329  27.749
56853W        W57718  22.484   3.058  27.619
56854W        W57719  23.505   1.110  28.829
56855W        W57720  23.956   3.276  26.340
56856W        W57721  23.264   2.531  28.978
56857W        W57722  23.390   2.769  26.355
56858W        W57723  22.611   1.509  25.614
56859W        W57724  21.950   7.239   3.359
56860W        W57725  22.326   6.132   2.882
56861W        W57726  25.031   5.862   0.652
56862W        W57727  25.161   6.947   2.679
56863W        W57728  23.079   6.938   0.205
56864W        W57729  23.162   5.090   1.188
56865W        W57730  22.677   4.938   1.352
56866W        W57731  23.668   5.753   0.786
56867W        W57732  23.343   6.845   3.141
56868W        W57733  21.992   4.406   3.104
56869W        W57734  22.754   3.686   2.906
56870W        W57735  24.448   4.074   1.793
56871W        W57736  24.097   4.945   0.363
56872W        W57737  24.667   4.379   3.454
56873W        W57738  22.033   4.171   2.579
56874W        W57739  22.132   6.790   3.600
56875W        W57740  23.654   6.180   0.332
56876W        W57741  22.086   4.963   2.025
56877W        W57742  22.979   4.854   3.262
56878W        W57743  25.438   4.713   1.761
56879W        W57744  25.202   5.756   2.620
56880W        W57745  23.510   5.089   1.647
56881W        W57746  24.056   6.428   2.016
56882W        W57747  22.556   5.862   2.248
56883W        W57748  21.915   5.390   1.819
56884W        W57749  22.951   5.362   3.011
56885W        W57750  25.222   5.145   3.265
56886W        W57751  22.838   6.589   1.710
56887W        W57752  23.959   6.278   2.844
56888W        W57753  23.179   4.918   2.069
56889W        W57754  23.471   5.702   1.712
56890W        W57755  24.468   6.475   3.560
56891W        W57756  23.547   5.795   3.570
56892W        W57757  23.528   5.511   3.048
56893W        W57758  21.937   4.902   3.570
56894W        W57759  24.769   6.437   3.169
56895W        W57760  22.350   4.019   1.167
56896W        W57761  22.877   6.277   2.166
56897W        W57762  25.340   6.060   1.456
56898W        W57763  24.753   4.460   2.023
56899W        W57764  25.038   4.413   0.118
56900W        W57765  25.503   5.214   2.424
56901W        W57766  23.470   6.921   2.177
56902W        W57767  25.244   6.387   0.615
56903W        W57768  22.373   7.173   0.369
56904W        W57769  22.766   7.219   1.045
56905W        W57770  22.563   3.973   2.471
56906W        W57771  25.186   4.991   2.746
56907W        W57772  24.591   5.413   1.205
56908W        W57773  24.557   5.101   0.232
56909W        W57774  23.765   6.245   2.372
56910W        W57775  23.571   4.575   1.571
56911W        W57776  24.171   6.662   2.565
56912W        W57777  25.042   5.453   0.987
56913W        W57778  23.944   4.111   1.003
56914W        W57779  22.601   6.805   0.686
56915W        W57780  21.972   4.304   1.285
56916W        W57781  24.758   4.911   1.759
56917W        W57782  22.216   6.528   1.674
56918W        W57783  23.557   6.878   0.544
56919W        W57784  24.949   4.904   0.008
56920W        W57785  21.972   6.662   2.172
56921W        W57786  22.763   6.234   2.652
56922W        W57787  23.136   5.594   1.271
56923W        W57788  23.158   3.999   2.364
56924W        W57789  25.387   3.761   1.661
56925W        W57790  22.606   5.633   0.129
56926W        W57791  22.261   4.666   0.308
56927W        W57792  22.323   6.622   1.102
56928W        W57793  23.454   6.105   1.350
56929W        W57794  24.786   6.964   3.064
56930W        W57795  23.712   4.606   0.748
56931W        W57796  25.095   7.004   1.520
56932W        W57797  24.772   4.857   3.118
56933W        W57798  25.485   6.513   1.252
56934W        W57799  24.112   5.805   2.736
56935W        W57800  21.878   5.356   0.942
56936W        W57801  22.989   5.771   2.515
56937W        W57802  24.193   5.035   0.893
56938W        W57803  24.070   5.525   0.997
56939W        W57804  22.413   4.945   2.471
56940W        W57805  22.398   4.821   3.393
56941W        W57806  22.288   3.738   1.552
56942W        W57807  24.056   4.085   2.113
56943W        W57808  23.704   4.270   3.276
56944W        W57809  24.059   4.419   0.454
56945W        W57810  25.242   6.812   3.208
56946W        W57811  24.209   3.893   3.247
56947W        W57812  25.228   6.194   3.369
56948W        W57813  24.658   4.361   2.965
56949W        W57814  24.458   4.299   1.235
56950W        W57815  24.851   5.433   3.639
56951W        W57816  22.591   7.009   1.625
56952W        W57817  23.249   4.726   0.611
56953W        W57818  22.818   4.010   3.275
56954W        W57819  24.870   4.494   0.956
56955W        W57820  25.237   4.976   0.901
56956W        W57821  22.980   7.193   3.372
56957W        W57822  22.906   3.729   0.607
56958W        W57823  25.227   4.263   1.642
56959W        W57824  25.377   6.512   0.087
56960W        W57825  22.284   5.715   1.789
56961W        W57826  24.201   4.302   0.019
56962W        W57827  25.335   6.634   1.739
56963W        W57828  25.374   3.828   2.489
56964W        W57829  23.819   5.040   3.043
56965W        W57830  23.912   6.379   0.746
56966W        W57831  24.312   5.673   3.486
56967W        W57832  23.986   3.650   1.795
56968W        W57833  22.598   4.553   1.858
56969W        W57834  22.152   5.753   2.632
56970W        W57835  24.011   6.946   1.338
56971W        W57836  25.205   4.543   2.210
56972W        W57837  23.842   6.890   2.977
56973W        W57838  25.185   5.949   0.182
56974W        W57839  23.620   5.432   1.243
56975W        W57840  25.472   3.943   2.984
56976W        W57841  23.621   5.778   2.578
56977W        W57842  23.838   4.664   2.023
56978W        W57843  24.690   4.962   0.861
56979W        W57844  24.977   4.695   0.503
56980W        W57845  24.786   6.735   0.892
56981W        W57846  24.620   6.338   1.688
56982W        W57847  24.516   5.417   0.666
56983W        W57848  23.949   5.627   1.652
56984W        W57849  24.830   5.415   1.719
56985W        W57850  22.205   4.430   2.143
56986W        W57851  24.983   5.482   2.970
56987W        W57852  25.334   7.100   2.116
56988W        W57853  23.264   6.544   1.518
56989W        W57854  24.271   7.077   2.842
56990W        W57855  24.265   4.407   2.606
56991W        W57856  23.472   7.115   2.667
56992W        W57857  25.169   4.069   1.133
56993W        W57858  24.960   5.388   2.434
56994W        W57859  21.943   4.709   2.472
56995W        W57860  24.803   4.504   1.490
56996W        W57861  25.214   4.655   3.267
56997W        W57862  24.099   6.354   1.485
56998W        W57863  23.355   6.945   1.098
56999W        W57864  22.470   4.125   0.356
57000W        W57865  23.574   3.779   2.166
57001W        W57866  22.602   6.899   0.014
57002W        W57867  22.976   5.365   0.765
57003W        W57868  23.630   5.994   3.078
57004W        W57869  23.460   4.352   1.068
57005W        W57870  24.816   3.949   1.496
57006W        W57871  24.536   7.231   1.824
57007W        W57872  23.948   6.879   2.164
57008W        W57873  23.344   5.916   2.125
57009W        W57874  25.114   6.639   2.251
57010W        W57875  22.808   4.142   1.020
57011W        W57876  23.330   6.439   1.980
57012W        W57877  22.813   4.370   0.045
57013W        W57878  23.614   4.979   2.439
57014W        W57879  24.462   3.845   2.309
57015W        W57880  21.882   5.688   2.194
57016W        W57881  23.586   5.506   0.352
57017W        W57882  22.854   3.821   0.122
57018W        W57883  23.592   4.902   1.173
57019W        W57884  24.562   3.878   2.872
57020W        W57885  23.150   5.890   2.981
57021W        W57886  23.954   5.672   3.198
57022W        W57887  24.571   5.702   3.091
57023W        W57888  23.855   3.842   3.596
57024W        W57889  23.077   4.458   1.989
57025W        W57890  22.503   4.414   1.387
57026W        W57891  22.289   7.126   1.063
57027W        W57892  23.621   6.456   3.188
57028W        W57893  22.656   5.941   0.547
57029W        W57894  24.336   5.326   1.768
57030W        W57895  24.616   5.125   2.167
57031W        W57896  23.821   5.799   2.101
57032W        W57897  24.291   6.173   0.233
57033W        W57898  23.963   4.194   1.561
57034W        W57899  25.442   4.472   0.829
57035W        W57900  21.936   7.061   2.860
57036W        W57901  22.353   6.287   2.392
57037W        W57902  21.920   7.133   0.624
57038W        W57903  23.819   4.403   2.430
57039W        W57904  23.182   6.426   0.279
57040W        W57905  25.087   6.808   0.465
57041W        W57906  24.062   5.461   0.479
57042W        W57907  22.905   4.652   0.996
57043W        W57908  23.737   4.562   0.048
57044W        W57909  24.321   6.127   3.226
57045W        W57910  24.674   4.033   0.843
57046W        W57911  22.004   3.881   0.291
57047W        W57912  23.290   6.200   2.581
57048W        W57913  23.089   6.116   1.673
57049W        W57914  22.831   6.068   0.071
57050W        W57915  22.072   6.309   0.839
57051W        W57916  22.576   5.379   3.281
57052W        W57917  23.280   3.939   3.467
57053W        W57918  23.989   4.081   2.823
57054W        W57919  23.184   3.849   1.104
57055W        W57920  24.243   3.926   0.609
57056W        W57921  22.188   3.858   2.186
57057W        W57922  22.236   4.821   1.556
57058W        W57923  24.925   3.929   1.962
57059W        W57924  22.347   4.427   0.776
57060W        W57925  24.918   4.115   2.392
57061W        W57926  25.314   5.318   0.077
57062W        W57927  22.606   4.076   1.896
57063W        W57928  23.720   4.648   2.836
57064W        W57929  21.868   4.338   0.314
57065W        W57930  22.654   5.727   2.875
57066W        W57931  24.012   5.125   2.054
57067W        W57932  23.879   7.204   0.350
57068W        W57933  22.025   5.711   0.047
57069W        W57934  22.760   6.122   3.173
57070W        W57935  22.281   5.289   2.804
57071W        W57936  23.272   5.394   2.598
57072W        W57937  25.040   3.753   2.860
57073W        W57938  25.438   5.363   2.851
57074W        W57939  25.426   5.563   0.537
57075W        W57940  24.289   5.895   0.636
57076W        W57941  24.763   7.195   0.331
57077W        W57942  23.940   5.185   3.473
57078W        W57943  22.270   6.152   3.513
57079W        W57944  25.476   4.074   3.465
57080W        W57945  25.194   5.002   2.086
57081W        W57946  23.502   7.132   3.563
57082W        W57947  23.357   3.761   0.290
57083W        W57948  24.896   6.360   0.233
57084W        W57949  22.665   4.453   3.119
57085W        W57950  23.099   6.447   2.981
57086W        W57951  25.225   4.438   2.779
57087W        W57952  24.436   7.097   0.747
57088W        W57953  24.675   5.716   2.114
57089W        W57954  22.925   4.132   2.781
57090W        W57955  23.394   5.201   3.538
57091W        W57956  22.897   6.380   0.732
57092W        W57957  24.652   5.878   0.996
57093W        W57958  22.420   4.504   2.720
57094W        W57959  23.749   6.566   1.184
57095W        W57960  25.499   5.126   1.365
57096W        W57961  23.721   3.759   3.084
57097W        W57962  24.501   6.464   2.163
57098W        W57963  24.804   6.808   1.871
57099W        W57964  24.023   6.610   0.299
57100W        W57965  22.033   6.502   3.141
57101W        W57966  22.776   4.494   2.379
57102W        W57967  22.746   3.842   1.489
57103W        W57968  24.367   4.684   2.181
57104W        W57969  23.165   5.855   0.381
57105W        W57970  25.163   5.797   1.880
57106W        W57971  22.490   6.555   3.303
57107W        W57972  24.877   7.237   1.100
57108W        W57973  22.976   4.257   1.545
57109W        W57974  22.745   5.750   1.635
57110W        W57975  23.058   7.161   2.385
57111W        W57976  25.125   7.257   3.417
57112W        W57977  24.284   5.445   2.350
57113W        W57978  22.133   5.243   0.265
57114W        W57979  25.267   6.901   0.962
57115W        W57980  25.104   4.225   0.581
57116W        W57981  23.243   3.744   2.984
57117W        W57982  24.949   6.546   1.442
57118W        W57983  24.978   5.102   1.347
57119W        W57984  23.095   4.775   1.563
57120W        W57985  23.340   5.037   2.887
57121W        W57986  24.451   6.190   2.750
57122W        W57987  23.101   4.644   2.862
57123W        W57988  23.080   7.110   1.478
57124W        W57989  22.397   7.069   3.112
57125W        W57990  22.509   6.430   0.242
57126W        W57991  25.026   6.188   1.052
57127W        W57992  22.630   4.980   2.938
57128W        W57993  25.403   4.910   0.419
57129W        W57994  23.148   5.967   0.890
57130W        W57995  24.247   5.349   2.971
57131W        W57996  24.138   4.977   2.515
57132W        W57997  22.698   5.349   2.544
57133W        W57998  24.908   7.237   2.373
57134W        W57999  24.699   3.871   3.367
57135W        W58000  22.363   4.021   2.954
57136W        W58001  22.702   5.044   2.007
57137W        W58002  23.071   4.858   0.129
57138W        W58003  21.874   6.617   2.674
57139W        W58004  23.459   5.326   2.117
57140W        W58005  23.282   4.351   0.222
57141W        W58006  22.417   5.167   1.003
57142W        W58007  22.188   7.019   2.440
57143W        W58008  24.983   5.245   0.548
57144W        W58009  25.078   4.161   3.234
57145W        W58010  24.514   6.370   1.197
57146W        W58011  22.112   5.294   3.374
57147W        W58012  25.078   3.758   0.670
57148W        W58013  24.598   6.233   0.681
57149W        W58014  23.500   5.291   0.766
57150W        W58015  24.687   4.095   0.289
57151W        W58016  24.752   4.702   2.475
57152W        W58017  22.461   5.295   1.682
57153W        W58018  22.755   6.234   1.331
57154W        W58019  24.518   4.854   1.296
57155W        W58020  23.541   4.233   1.992
57156W        W58021  25.503   6.144   2.503
57157W        W58022  25.421   4.131   2.064
57158W        W58023  21.960   6.961   1.440
57159W        W58024  22.469   6.148   0.976
57160W        W58025  22.384   3.765   3.529
57161W        W58026  23.503   6.618   3.631
57162W        W58027  25.258   5.586   1.421
57163W        W58028  24.612   5.763   0.301
57164W        W58029  23.907   7.284   2.513
57165W        W58030  24.764   6.006   3.550
57166W        W58031  23.579   3.716   0.830
57167W        W58032  24.292   4.585   1.689
57168W        W58033  21.978   6.172   2.021
57169W        W58034  23.231   4.134   0.662
57170W        W58035  23.035   5.618   3.511
57171W        W58036  24.029   4.599   1.225
57172W        W58037  24.234   6.009   2.347
57173W        W58038  22.388   6.614   2.782
57174W        W58039  22.979   6.597   3.505
57175W        W58040  22.830   4.394   0.519
57176W        W58041  24.347   4.536   0.844
57177W        W58042  24.305   6.644   3.081
57178W        W58043  22.990   5.236   1.680
57179W        W58044  22.645   6.934   2.545
57180W        W58045  25.390   7.051   0.146
57181W        W58046  22.253   5.723   3.142
57182W        W58047  24.248   5.985   1.830
57183W        W58048  22.684   5.634   1.072
57184W        W58049  23.055   6.641   2.467
57185W        W58050  23.433   4.060   1.508
57186W        W58051  22.044   6.044   0.438
57187W        W58052  23.563   4.995   0.308
57188W        W58053  22.209   5.544   1.327
57189W        W58054  23.499   4.186   2.791
57190W        W58055  25.171   3.895   0.218
57191W        W58056  25.264   5.641   3.317
57192W        W58057  23.918   6.898   3.469
57193W        W58058  25.476   5.992   2.991
57194W        W58059  24.884   6.790   3.602
57195W        W58060  22.623   7.246   2.080
57196W        W58061  25.482   5.868   0.954
57197W        W58062  24.012   5.135   1.467
57198W        W58063  23.779   3.747   1.357
57199W        W58064  22.838   6.731   1.194
57200W        W58065  23.337   4.472   2.419
57201W        W58066  23.037   3.841   1.888
57202W        W58067  22.100   6.663   0.436
57203W        W58068  23.916   6.027   1.154
57204W        W58069  22.791   6.822   3.033
57205W        W58070  22.268   5.645   0.729
57206W        W58071  22.153   4.188   1.728
57207W        W58072  23.701   6.153   1.785
57208W        W58073  21.953   4.007   0.805
57209W        W58074  24.617   5.213   2.732
57210W        W58075  24.494   4.599   0.304
57211W        W58076  25.011   6.271   1.952
57212W        W58077  23.672   6.755   1.783
57213W        W58078  23.084   6.859   0.694
57214W        W58079  24.366   3.762   0.124
57215W        W58080  22.166   7.022   1.865
57216W        W58081  24.363   4.780   3.500
57217W        W58082  22.346   4.310   3.499
57218W        W58083  22.077   4.910   0.832
57219W        W58084  22.768   4.899   0.557
57220W        W58085  24.531   5.226   3.374
57221W        W58086  22.874   5.507   2.083
57222W        W58087  24.348   3.793   1.203
57223W        W58088  23.479   7.224   1.706
57224W        W58089  24.693   6.686   2.643
57225W        W58090  24.277   6.835   1.754
57226W        W58091  24.296   5.815   1.348
57227W        W58092  23.758   4.040   0.419
57228W        W58093  25.439   3.668   1.141
57229W        W58094  23.127   5.303   0.304
57230W        W58095  25.293   4.640   1.294
57231W        W58096  23.985   5.810   0.171
57232W        W58097  24.921   6.010   2.919
57233W        W58098  24.575   6.711   0.386
57234W        W58099  23.190   4.386   3.292
57235W        W58100  23.010   4.970   2.533
57236W        W58101  25.102   6.465   2.810
57237W        W58102  24.202   4.415   3.187
57238W        W58103  22.046   4.886   2.964
57239W        W58104  23.806   5.363   2.690
57240W        W58105  22.163   6.121   1.347
57241W        W58106  22.310   5.418   2.237
57242W        W58107  24.627   5.704   2.587
57243W        W58108  24.399   7.084   3.398
57244W        W58109  24.295   4.823   2.951
57245W        W58110  24.572   6.877   1.356
57246W        W58111  23.574   6.597   2.679
57247W        W58112  23.059   6.952   1.948
57248W        W58113  24.864   6.123   2.367
57249W        W58114  23.914   6.195   3.504
57250W        W58115  22.519   6.148   1.843
57251W        W58116  24.865   5.907   1.488
57252W        W58117  24.506   6.973   2.239
57253W        W58118  22.484   6.702   2.109
57254W        W58119  23.505   4.754   3.319
57255W        W58120  23.956   6.920   0.830
57256W        W58121  23.264   6.175   3.468
57257W        W58122  23.390   6.413   0.845
57258W        W58123  22.611   5.153   0.104
57259W        W58124  21.950   7.239   7.003
57260W        W58125  22.326   6.132   6.526
57261W        W58126  25.031   5.862   4.296
57262W        W58127  25.161   6.947   6.323
57263W        W58128  23.079   6.938   3.849
57264W        W58129  23.162   5.090   4.832
57265W        W58130  22.677   4.938   4.996
57266W        W58131  23.668   5.753   4.430
57267W        W58132  23.343   6.845   6.785
57268W        W58133  21.992   4.406   6.748
57269W        W58134  22.754   3.686   6.550
57270W        W58135  24.448   4.074   5.437
57271W        W58136  24.097   4.945   4.007
57272W        W58137  24.667   4.379   7.098
57273W        W58138  22.033   4.171   6.223
57274W        W58139  22.132   6.790   7.244
57275W        W58140  23.654   6.180   3.976
57276W        W58141  22.086   4.963   5.669
57277W        W58142  22.979   4.854   6.906
57278W        W58143  25.438   4.713   5.405
57279W        W58144  23.510   5.089   5.291
57280W        W58145  24.056   6.428   5.660
57281W        W58146  22.556   5.862   5.892
57282W        W58147  21.915   5.390   5.463
57283W        W58148  22.951   5.362   6.655
57284W        W58149  25.222   5.145   6.909
57285W        W58150  22.838   6.589   5.354
57286W        W58151  23.959   6.278   6.488
57287W        W58152  23.179   4.918   5.713
57288W        W58153  23.471   5.702   5.356
57289W        W58154  24.468   6.475   7.204
57290W        W58155  23.547   5.795   7.214
57291W        W58156  23.528   5.511   6.692
57292W        W58157  21.937   4.902   7.214
57293W        W58158  24.769   6.437   6.813
57294W        W58159  22.350   4.019   4.811
57295W        W58160  22.877   6.277   5.810
57296W        W58161  25.340   6.060   5.100
57297W        W58162  24.753   4.460   5.667
57298W        W58163  25.038   4.413   3.762
57299W        W58164  25.503   5.214   6.068
57300W        W58165  23.470   6.921   5.821
57301W        W58166  25.244   6.387   4.259
57302W        W58167  22.373   7.173   4.013
57303W        W58168  22.766   7.219   4.689
57304W        W58169  22.563   3.973   6.115
57305W        W58170  25.186   4.991   6.390
57306W        W58171  24.591   5.413   4.849
57307W        W58172  24.557   5.101   3.876
57308W        W58173  23.765   6.245   6.016
57309W        W58174  23.571   4.575   5.215
57310W        W58175  24.171   6.662   6.209
57311W        W58176  25.042   5.453   4.631
57312W        W58177  23.944   4.111   4.647
57313W        W58178  22.601   6.805   4.330
57314W        W58179  21.972   4.304   4.929
57315W        W58180  24.758   4.911   5.403
57316W        W58181  22.216   6.528   5.318
57317W        W58182  23.557   6.878   4.188
57318W        W58183  24.949   4.904   3.652
57319W        W58184  21.972   6.662   5.816
57320W        W58185  22.763   6.234   6.296
57321W        W58186  23.136   5.594   4.915
57322W        W58187  23.158   3.999   6.008
57323W        W58188  25.387   3.761   5.305
57324W        W58189  22.606   5.633   3.773
57325W        W58190  22.261   4.666   3.952
57326W        W58191  22.323   6.622   4.746
57327W        W58192  23.454   6.105   4.994
57328W        W58193  24.786   6.964   6.708
57329W        W58194  23.712   4.606   4.392
57330W        W58195  25.095   7.004   5.164
57331W        W58196  24.772   4.857   6.762
57332W        W58197  25.485   6.513   4.896
57333W        W58198  24.112   5.805   6.380
57334W        W58199  21.878   5.356   4.586
57335W        W58200  22.989   5.771   6.159
57336W        W58201  24.193   5.035   4.537
57337W        W58202  24.070   5.525   4.641
57338W        W58203  22.413   4.945   6.115
57339W        W58204  22.398   4.821   7.037
57340W        W58205  22.288   3.738   5.196
57341W        W58206  24.056   4.085   5.757
57342W        W58207  23.704   4.270   6.920
57343W        W58208  24.059   4.419   4.098
57344W        W58209  25.242   6.812   6.852
57345W        W58210  24.209   3.893   6.891
57346W        W58211  25.228   6.194   7.013
57347W        W58212  24.658   4.361   6.609
57348W        W58213  24.458   4.299   4.879
57349W        W58214  24.851   5.433   7.283
57350W        W58215  22.591   7.009   5.269
57351W        W58216  23.249   4.726   4.255
57352W        W58217  22.818   4.010   6.919
57353W        W58218  24.870   4.494   4.600
57354W        W58219  25.237   4.976   4.545
57355W        W58220  22.980   7.193   7.016
57356W        W58221  22.906   3.729   4.251
57357W        W58222  25.227   4.263   5.286
57358W        W58223  25.377   6.512   3.731
57359W        W58224  22.284   5.715   5.433
57360W        W58225  24.201   4.302   3.663
57361W        W58226  25.335   6.634   5.383
57362W        W58227  25.374   3.828   6.133
57363W        W58228  23.819   5.040   6.687
57364W        W58229  23.912   6.379   4.390
57365W        W58230  24.312   5.673   7.130
57366W        W58231  23.986   3.650   5.439
57367W        W58232  22.598   4.553   5.502
57368W        W58233  22.152   5.753   6.276
57369W        W58234  24.011   6.946   4.982
57370W        W58235  25.205   4.543   5.854
57371W        W58236  23.842   6.890   6.621
57372W        W58237  25.185   5.949   3.826
57373W        W58238  23.620   5.432   4.887
57374W        W58239  25.472   3.943   6.628
57375W        W58240  23.621   5.778   6.222
57376W        W58241  23.838   4.664   5.667
57377W        W58242  24.690   4.962   4.505
57378W        W58243  24.977   4.695   4.147
57379W        W58244  24.786   6.735   4.536
57380W        W58245  24.620   6.338   5.332
57381W        W58246  24.516   5.417   4.310
57382W        W58247  23.949   5.627   5.296
57383W        W58248  24.830   5.415   5.363
57384W        W58249  22.205   4.430   5.787
57385W        W58250  24.983   5.482   6.614
57386W        W58251  25.334   7.100   5.760
57387W        W58252  23.264   6.544   5.162
57388W        W58253  24.271   7.077   6.486
57389W        W58254  24.265   4.407   6.250
57390W        W58255  23.472   7.115   6.311
57391W        W58256  25.169   4.069   4.777
57392W        W58257  24.960   5.388   6.078
57393W        W58258  21.943   4.709   6.116
57394W        W58259  24.803   4.504   5.134
57395W        W58260  25.214   4.655   6.911
57396W        W58261  24.099   6.354   5.129
57397W        W58262  23.355   6.945   4.742
57398W        W58263  22.470   4.125   4.000
57399W        W58264  23.574   3.779   5.810
57400W        W58265  22.602   6.899   3.658
57401W        W58266  22.976   5.365   4.409
57402W        W58267  23.630   5.994   6.722
57403W        W58268  23.460   4.352   4.712
57404W        W58269  24.816   3.949   5.140
57405W        W58270  24.536   7.231   5.468
57406W        W58271  23.948   6.879   5.808
57407W        W58272  23.344   5.916   5.769
57408W        W58273  25.114   6.639   5.895
57409W        W58274  22.808   4.142   4.664
57410W        W58275  23.330   6.439   5.624
57411W        W58276  22.813   4.370   3.689
57412W        W58277  23.614   4.979   6.083
57413W        W58278  24.462   3.845   5.953
57414W        W58279  21.882   5.688   5.838
57415W        W58280  23.586   5.506   3.996
57416W        W58281  22.854   3.821   3.766
57417W        W58282  23.592   4.902   4.817
57418W        W58283  24.562   3.878   6.516
57419W        W58284  23.150   5.890   6.625
57420W        W58285  23.954   5.672   6.842
57421W        W58286  24.571   5.702   6.735
57422W        W58287  23.855   3.842   7.240
57423W        W58288  23.077   4.458   5.633
57424W        W58289  22.503   4.414   5.031
57425W        W58290  22.289   7.126   4.707
57426W        W58291  23.621   6.456   6.832
57427W        W58292  22.656   5.941   4.191
57428W        W58293  24.336   5.326   5.412
57429W        W58294  24.616   5.125   5.811
57430W        W58295  23.821   5.799   5.745
57431W        W58296  24.291   6.173   3.877
57432W        W58297  23.963   4.194   5.205
57433W        W58298  25.442   4.472   4.473
57434W        W58299  21.936   7.061   6.504
57435W        W58300  22.353   6.287   6.036
57436W        W58301  21.920   7.133   4.268
57437W        W58302  23.819   4.403   6.074
57438W        W58303  23.182   6.426   3.923
57439W        W58304  25.087   6.808   4.109
57440W        W58305  24.062   5.461   4.123
57441W        W58306  22.905   4.652   4.640
57442W        W58307  23.737   4.562   3.692
57443W        W58308  24.321   6.127   6.870
57444W        W58309  24.674   4.033   4.487
57445W        W58310  22.004   3.881   3.935
57446W        W58311  23.290   6.200   6.225
57447W        W58312  23.089   6.116   5.317
57448W        W58313  22.831   6.068   3.715
57449W        W58314  22.072   6.309   4.483
57450W        W58315  22.576   5.379   6.925
57451W        W58316  23.280   3.939   7.111
57452W        W58317  23.989   4.081   6.467
57453W        W58318  23.184   3.849   4.748
57454W        W58319  24.243   3.926   4.253
57455W        W58320  22.188   3.858   5.830
57456W        W58321  22.236   4.821   5.200
57457W        W58322  24.925   3.929   5.606
57458W        W58323  22.347   4.427   4.420
57459W        W58324  24.918   4.115   6.036
57460W        W58325  25.314   5.318   3.721
57461W        W58326  22.606   4.076   5.540
57462W        W58327  23.720   4.648   6.480
57463W        W58328  21.868   4.338   3.958
57464W        W58329  22.654   5.727   6.519
57465W        W58330  24.012   5.125   5.698
57466W        W58331  23.879   7.204   3.994
57467W        W58332  22.025   5.711   3.691
57468W        W58333  22.760   6.122   6.817
57469W        W58334  22.281   5.289   6.448
57470W        W58335  23.272   5.394   6.242
57471W        W58336  25.040   3.753   6.504
57472W        W58337  25.426   5.563   4.181
57473W        W58338  24.289   5.895   4.280
57474W        W58339  24.763   7.195   3.975
57475W        W58340  23.940   5.185   7.117
57476W        W58341  22.270   6.152   7.157
57477W        W58342  25.476   4.074   7.109
57478W        W58343  25.194   5.002   5.730
57479W        W58344  23.502   7.132   7.207
57480W        W58345  23.357   3.761   3.934
57481W        W58346  24.896   6.360   3.877
57482W        W58347  22.665   4.453   6.763
57483W        W58348  23.099   6.447   6.625
57484W        W58349  25.225   4.438   6.423
57485W        W58350  24.436   7.097   4.391
57486W        W58351  24.675   5.716   5.758
57487W        W58352  22.925   4.132   6.425
57488W        W58353  23.394   5.201   7.182
57489W        W58354  22.897   6.380   4.376
57490W        W58355  24.652   5.878   4.640
57491W        W58356  22.420   4.504   6.364
57492W        W58357  23.749   6.566   4.828
57493W        W58358  25.499   5.126   5.009
57494W        W58359  23.721   3.759   6.728
57495W        W58360  24.501   6.464   5.807
57496W        W58361  24.804   6.808   5.515
57497W        W58362  24.023   6.610   3.943
57498W        W58363  22.033   6.502   6.785
57499W        W58364  22.776   4.494   6.023
57500W        W58365  22.746   3.842   5.133
57501W        W58366  24.367   4.684   5.825
57502W        W58367  23.165   5.855   4.025
57503W        W58368  25.163   5.797   5.524
57504W        W58369  22.490   6.555   6.947
57505W        W58370  24.877   7.237   4.744
57506W        W58371  22.976   4.257   5.189
57507W        W58372  22.745   5.750   5.279
57508W        W58373  23.058   7.161   6.029
57509W        W58374  25.125   7.257   7.061
57510W        W58375  24.284   5.445   5.994
57511W        W58376  22.133   5.243   3.909
57512W        W58377  25.267   6.901   4.606
57513W        W58378  25.104   4.225   4.225
57514W        W58379  23.243   3.744   6.628
57515W        W58380  24.949   6.546   5.086
57516W        W58381  24.978   5.102   4.991
57517W        W58382  23.095   4.775   5.207
57518W        W58383  23.340   5.037   6.531
57519W        W58384  24.451   6.190   6.394
57520W        W58385  23.101   4.644   6.506
57521W        W58386  23.080   7.110   5.122
57522W        W58387  22.397   7.069   6.756
57523W        W58388  22.509   6.430   3.886
57524W        W58389  25.026   6.188   4.696
57525W        W58390  22.630   4.980   6.582
57526W        W58391  25.403   4.910   4.063
57527W        W58392  23.148   5.967   4.534
57528W        W58393  24.247   5.349   6.615
57529W        W58394  24.138   4.977   6.159
57530W        W58395  22.698   5.349   6.188
57531W        W58396  24.908   7.237   6.017
57532W        W58397  24.699   3.871   7.011
57533W        W58398  22.363   4.021   6.598
57534W        W58399  22.702   5.044   5.651
57535W        W58400  23.071   4.858   3.773
57536W        W58401  21.874   6.617   6.318
57537W        W58402  23.459   5.326   5.761
57538W        W58403  23.282   4.351   3.866
57539W        W58404  22.417   5.167   4.647
57540W        W58405  22.188   7.019   6.084
57541W        W58406  24.983   5.245   4.192
57542W        W58407  25.078   4.161   6.878
57543W        W58408  24.514   6.370   4.841
57544W        W58409  22.112   5.294   7.018
57545W        W58410  25.078   3.758   4.314
57546W        W58411  24.598   6.233   4.325
57547W        W58412  23.500   5.291   4.410
57548W        W58413  24.687   4.095   3.933
57549W        W58414  24.752   4.702   6.119
57550W        W58415  22.461   5.295   5.326
57551W        W58416  22.755   6.234   4.975
57552W        W58417  24.518   4.854   4.940
57553W        W58418  23.541   4.233   5.636
57554W        W58419  25.503   6.144   6.147
57555W        W58420  25.421   4.131   5.708
57556W        W58421  21.960   6.961   5.084
57557W        W58422  22.469   6.148   4.620
57558W        W58423  22.384   3.765   7.173
57559W        W58424  23.503   6.618   7.275
57560W        W58425  25.258   5.586   5.065
57561W        W58426  24.612   5.763   3.945
57562W        W58427  23.907   7.284   6.157
57563W        W58428  24.764   6.006   7.194
57564W        W58429  23.579   3.716   4.474
57565W        W58430  24.292   4.585   5.333
57566W        W58431  21.978   6.172   5.665
57567W        W58432  23.231   4.134   4.306
57568W        W58433  23.035   5.618   7.155
57569W        W58434  24.029   4.599   4.869
57570W        W58435  24.234   6.009   5.991
57571W        W58436  22.388   6.614   6.426
57572W        W58437  22.979   6.597   7.149
57573W        W58438  22.830   4.394   4.163
57574W        W58439  24.347   4.536   4.488
57575W        W58440  24.305   6.644   6.725
57576W        W58441  22.990   5.236   5.324
57577W        W58442  22.645   6.934   6.189
57578W        W58443  25.390   7.051   3.790
57579W        W58444  22.253   5.723   6.786
57580W        W58445  24.248   5.985   5.474
57581W        W58446  22.684   5.634   4.716
57582W        W58447  23.055   6.641   6.111
57583W        W58448  23.433   4.060   5.152
57584W        W58449  22.044   6.044   4.082
57585W        W58450  23.563   4.995   3.952
57586W        W58451  22.209   5.544   4.971
57587W        W58452  23.499   4.186   6.435
57588W        W58453  25.171   3.895   3.862
57589W        W58454  25.264   5.641   6.961
57590W        W58455  23.918   6.898   7.113
57591W        W58456  25.476   5.992   6.635
57592W        W58457  24.884   6.790   7.246
57593W        W58458  22.623   7.246   5.724
57594W        W58459  25.482   5.868   4.598
57595W        W58460  24.012   5.135   5.111
57596W        W58461  23.779   3.747   5.001
57597W        W58462  22.838   6.731   4.838
57598W        W58463  23.337   4.472   6.063
57599W        W58464  23.037   3.841   5.532
57600W        W58465  22.100   6.663   4.080
57601W        W58466  23.916   6.027   4.798
57602W        W58467  22.791   6.822   6.677
57603W        W58468  22.268   5.645   4.373
57604W        W58469  22.153   4.188   5.372
57605W        W58470  23.701   6.153   5.429
57606W        W58471  21.953   4.007   4.449
57607W        W58472  24.617   5.213   6.376
57608W        W58473  24.494   4.599   3.948
57609W        W58474  25.011   6.271   5.596
57610W        W58475  23.672   6.755   5.427
57611W        W58476  23.084   6.859   4.338
57612W        W58477  24.366   3.762   3.768
57613W        W58478  22.166   7.022   5.509
57614W        W58479  24.363   4.780   7.144
57615W        W58480  22.346   4.310   7.143
57616W        W58481  22.077   4.910   4.476
57617W        W58482  22.768   4.899   4.201
57618W        W58483  24.531   5.226   7.018
57619W        W58484  22.874   5.507   5.727
57620W        W58485  24.348   3.793   4.847
57621W        W58486  23.479   7.224   5.350
57622W        W58487  24.693   6.686   6.287
57623W        W58488  24.277   6.835   5.398
57624W        W58489  24.296   5.815   4.992
57625W        W58490  23.758   4.040   4.063
57626W        W58491  25.439   3.668   4.785
57627W        W58492  23.127   5.303   3.948
57628W        W58493  25.293   4.640   4.938
57629W        W58494  23.985   5.810   3.815
57630W        W58495  24.921   6.010   6.563
57631W        W58496  24.575   6.711   4.030
57632W        W58497  23.190   4.386   6.936
57633W        W58498  23.010   4.970   6.177
57634W        W58499  25.102   6.465   6.454
57635W        W58500  24.202   4.415   6.831
57636W        W58501  22.046   4.886   6.608
57637W        W58502  23.806   5.363   6.334
57638W        W58503  22.163   6.121   4.991
57639W        W58504  22.310   5.418   5.881
57640W        W58505  24.627   5.704   6.231
57641W        W58506  24.399   7.084   7.042
57642W        W58507  24.295   4.823   6.595
57643W        W58508  24.572   6.877   5.000
57644W        W58509  23.574   6.597   6.323
57645W        W58510  23.059   6.952   5.592
57646W        W58511  24.864   6.123   6.011
57647W        W58512  23.914   6.195   7.148
57648W        W58513  22.519   6.148   5.487
57649W        W58514  24.865   5.907   5.132
57650W        W58515  24.506   6.973   5.883
57651W        W58516  22.484   6.702   5.753
57652W        W58517  23.505   4.754   6.963
57653W        W58518  23.956   6.920   4.474
57654W        W58519  23.264   6.175   7.112
57655W        W58520  23.390   6.413   4.489
57656W        W58521  22.611   5.153   3.748
57657W        W58522  21.950   7.239  10.648
57658W        W58523  22.326   6.132  10.171
57659W        W58524  25.031   5.862   7.941
57660W        W58525  25.161   6.947   9.968
57661W        W58526  23.079   6.938   7.494
57662W        W58527  23.162   5.090   8.477
57663W        W58528  22.677   4.938   8.641
57664W        W58529  23.668   5.753   8.075
57665W        W58530  23.343   6.845  10.430
57666W        W58531  21.992   4.406  10.393
57667W        W58532  22.754   3.686  10.195
57668W        W58533  24.448   4.074   9.082
57669W        W58534  24.097   4.945   7.652
57670W        W58535  24.667   4.379  10.743
57671W        W58536  22.033   4.171   9.868
57672W        W58537  22.132   6.790  10.889
57673W        W58538  23.654   6.180   7.621
57674W        W58539  22.086   4.963   9.314
57675W        W58540  22.979   4.854  10.551
57676W        W58541  25.438   4.713   9.050
57677W        W58542  25.202   5.756   9.909
57678W        W58543  23.510   5.089   8.936
57679W        W58544  24.056   6.428   9.305
57680W        W58545  22.556   5.862   9.537
57681W        W58546  21.915   5.390   9.108
57682W        W58547  22.951   5.362  10.300
57683W        W58548  25.222   5.145  10.554
57684W        W58549  22.838   6.589   8.999
57685W        W58550  23.959   6.278  10.133
57686W        W58551  23.179   4.918   9.358
57687W        W58552  23.471   5.702   9.001
57688W        W58553  24.468   6.475  10.849
57689W        W58554  23.547   5.795  10.859
57690W        W58555  23.528   5.511  10.337
57691W        W58556  21.937   4.902  10.859
57692W        W58557  24.769   6.437  10.458
57693W        W58558  22.350   4.019   8.456
57694W        W58559  22.877   6.277   9.455
57695W        W58560  25.340   6.060   8.745
57696W        W58561  24.753   4.460   9.312
57697W        W58562  25.038   4.413   7.407
57698W        W58563  25.503   5.214   9.713
57699W        W58564  23.470   6.921   9.466
57700W        W58565  25.244   6.387   7.904
57701W        W58566  22.373   7.173   7.658
57702W        W58567  22.766   7.219   8.334
57703W        W58568  22.563   3.973   9.760
57704W        W58569  25.186   4.991  10.035
57705W        W58570  24.591   5.413   8.494
57706W        W58571  24.557   5.101   7.521
57707W        W58572  23.765   6.245   9.661
57708W        W58573  23.571   4.575   8.860
57709W        W58574  24.171   6.662   9.854
57710W        W58575  25.042   5.453   8.276
57711W        W58576  23.944   4.111   8.292
57712W        W58577  22.601   6.805   7.975
57713W        W58578  21.972   4.304   8.574
57714W        W58579  24.758   4.911   9.048
57715W        W58580  22.216   6.528   8.963
57716W        W58581  23.557   6.878   7.833
57717W        W58582  24.949   4.904   7.297
57718W        W58583  21.972   6.662   9.461
57719W        W58584  22.763   6.234   9.941
57720W        W58585  23.136   5.594   8.560
57721W        W58586  23.158   3.999   9.653
57722W        W58587  25.387   3.761   8.950
57723W        W58588  22.606   5.633   7.418
57724W        W58589  22.261   4.666   7.597
57725W        W58590  22.323   6.622   8.391
57726W        W58591  23.454   6.105   8.639
57727W        W58592  24.786   6.964  10.353
57728W        W58593  23.712   4.606   8.037
57729W        W58594  25.095   7.004   8.809
57730W        W58595  24.772   4.857  10.407
57731W        W58596  25.485   6.513   8.541
57732W        W58597  24.112   5.805  10.025
57733W        W58598  21.878   5.356   8.231
57734W        W58599  22.989   5.771   9.804
57735W        W58600  24.193   5.035   8.182
57736W        W58601  24.070   5.525   8.286
57737W        W58602  22.413   4.945   9.760
57738W        W58603  22.398   4.821  10.682
57739W        W58604  22.288   3.738   8.841
57740W        W58605  24.056   4.085   9.402
57741W        W58606  23.704   4.270  10.565
57742W        W58607  24.059   4.419   7.743
57743W        W58608  25.242   6.812  10.497
57744W        W58609  24.209   3.893  10.536
57745W        W58610  25.228   6.194  10.658
57746W        W58611  24.658   4.361  10.254
57747W        W58612  24.458   4.299   8.524
57748W        W58613  24.851   5.433  10.928
57749W        W58614  22.591   7.009   8.914
57750W        W58615  23.249   4.726   7.900
57751W        W58616  22.818   4.010  10.564
57752W        W58617  24.870   4.494   8.245
57753W        W58618  25.237   4.976   8.190
57754W        W58619  22.980   7.193  10.661
57755W        W58620  22.906   3.729   7.896
57756W        W58621  25.227   4.263   8.931
57757W        W58622  25.377   6.512   7.376
57758W        W58623  22.284   5.715   9.078
57759W        W58624  24.201   4.302   7.308
57760W        W58625  25.335   6.634   9.028
57761W        W58626  25.374   3.828   9.778
57762W        W58627  23.819   5.040  10.332
57763W        W58628  23.912   6.379   8.035
57764W        W58629  24.312   5.673  10.775
57765W        W58630  23.986   3.650   9.084
57766W        W58631  22.598   4.553   9.147
57767W        W58632  22.152   5.753   9.921
57768W        W58633  24.011   6.946   8.627
57769W        W58634  25.205   4.543   9.499
57770W        W58635  23.842   6.890  10.266
57771W        W58636  25.185   5.949   7.471
57772W        W58637  23.620   5.432   8.532
57773W        W58638  25.472   3.943  10.273
57774W        W58639  23.621   5.778   9.867
57775W        W58640  23.838   4.664   9.312
57776W        W58641  24.690   4.962   8.150
57777W        W58642  24.977   4.695   7.792
57778W        W58643  24.786   6.735   8.181
57779W        W58644  24.620   6.338   8.977
57780W        W58645  24.516   5.417   7.955
57781W        W58646  23.949   5.627   8.941
57782W        W58647  24.830   5.415   9.008
57783W        W58648  22.205   4.430   9.432
57784W        W58649  24.983   5.482  10.259
57785W        W58650  25.334   7.100   9.405
57786W        W58651  23.264   6.544   8.807
57787W        W58652  24.271   7.077  10.131
57788W        W58653  24.265   4.407   9.895
57789W        W58654  23.472   7.115   9.956
57790W        W58655  25.169   4.069   8.422
57791W        W58656  24.960   5.388   9.723
57792W        W58657  21.943   4.709   9.761
57793W        W58658  24.803   4.504   8.779
57794W        W58659  25.214   4.655  10.556
57795W        W58660  24.099   6.354   8.774
57796W        W58661  23.355   6.945   8.387
57797W        W58662  22.470   4.125   7.645
57798W        W58663  23.574   3.779   9.455
57799W        W58664  22.602   6.899   7.303
57800W        W58665  22.976   5.365   8.054
57801W        W58666  23.630   5.994  10.367
57802W        W58667  23.460   4.352   8.357
57803W        W58668  24.816   3.949   8.785
57804W        W58669  24.536   7.231   9.113
57805W        W58670  23.948   6.879   9.453
57806W        W58671  23.344   5.916   9.414
57807W        W58672  25.114   6.639   9.540
57808W        W58673  22.808   4.142   8.309
57809W        W58674  23.330   6.439   9.269
57810W        W58675  22.813   4.370   7.334
57811W        W58676  23.614   4.979   9.728
57812W        W58677  24.462   3.845   9.598
57813W        W58678  21.882   5.688   9.483
57814W        W58679  23.586   5.506   7.641
57815W        W58680  22.854   3.821   7.411
57816W        W58681  23.592   4.902   8.462
57817W        W58682  24.562   3.878  10.161
57818W        W58683  23.150   5.890  10.270
57819W        W58684  23.954   5.672  10.487
57820W        W58685  24.571   5.702  10.380
57821W        W58686  23.855   3.842  10.885
57822W        W58687  23.077   4.458   9.278
57823W        W58688  22.503   4.414   8.676
57824W        W58689  22.289   7.126   8.352
57825W        W58690  23.621   6.456  10.477
57826W        W58691  22.656   5.941   7.836
57827W        W58692  24.336   5.326   9.057
57828W        W58693  24.616   5.125   9.456
57829W        W58694  23.821   5.799   9.390
57830W        W58695  24.291   6.173   7.522
57831W        W58696  23.963   4.194   8.850
57832W        W58697  25.442   4.472   8.118
57833W        W58698  21.936   7.061  10.149
57834W        W58699  22.353   6.287   9.681
57835W        W58700  21.920   7.133   7.913
57836W        W58701  23.819   4.403   9.719
57837W        W58702  23.182   6.426   7.568
57838W        W58703  25.087   6.808   7.754
57839W        W58704  24.062   5.461   7.768
57840W        W58705  22.905   4.652   8.285
57841W        W58706  23.737   4.562   7.337
57842W        W58707  24.321   6.127  10.515
57843W        W58708  24.674   4.033   8.132
57844W        W58709  22.004   3.881   7.580
57845W        W58710  23.290   6.200   9.870
57846W        W58711  23.089   6.116   8.962
57847W        W58712  22.831   6.068   7.360
57848W        W58713  22.072   6.309   8.128
57849W        W58714  22.576   5.379  10.570
57850W        W58715  23.280   3.939  10.756
57851W        W58716  23.989   4.081  10.112
57852W        W58717  23.184   3.849   8.393
57853W        W58718  24.243   3.926   7.898
57854W        W58719  22.188   3.858   9.475
57855W        W58720  22.236   4.821   8.845
57856W        W58721  24.925   3.929   9.251
57857W        W58722  22.347   4.427   8.065
57858W        W58723  24.918   4.115   9.681
57859W        W58724  25.314   5.318   7.366
57860W        W58725  22.606   4.076   9.185
57861W        W58726  23.720   4.648  10.125
57862W        W58727  21.868   4.338   7.603
57863W        W58728  22.654   5.727  10.164
57864W        W58729  24.012   5.125   9.343
57865W        W58730  23.879   7.204   7.639
57866W        W58731  22.025   5.711   7.336
57867W        W58732  22.760   6.122  10.462
57868W        W58733  22.281   5.289  10.093
57869W        W58734  23.272   5.394   9.887
57870W        W58735  25.040   3.753  10.149
57871W        W58736  25.438   5.363  10.140
57872W        W58737  25.426   5.563   7.826
57873W        W58738  24.289   5.895   7.925
57874W        W58739  24.763   7.195   7.620
57875W        W58740  23.940   5.185  10.762
57876W        W58741  22.270   6.152  10.802
57877W        W58742  25.476   4.074  10.754
57878W        W58743  25.194   5.002   9.375
57879W        W58744  23.502   7.132  10.852
57880W        W58745  23.357   3.761   7.579
57881W        W58746  24.896   6.360   7.522
57882W        W58747  22.665   4.453  10.408
57883W        W58748  23.099   6.447  10.270
57884W        W58749  25.225   4.438  10.068
57885W        W58750  24.436   7.097   8.036
57886W        W58751  24.675   5.716   9.403
57887W        W58752  22.925   4.132  10.070
57888W        W58753  23.394   5.201  10.827
57889W        W58754  22.897   6.380   8.021
57890W        W58755  24.652   5.878   8.285
57891W        W58756  22.420   4.504  10.009
57892W        W58757  23.749   6.566   8.473
57893W        W58758  25.499   5.126   8.654
57894W        W58759  23.721   3.759  10.373
57895W        W58760  24.501   6.464   9.452
57896W        W58761  24.804   6.808   9.160
57897W        W58762  24.023   6.610   7.588
57898W        W58763  22.033   6.502  10.430
57899W        W58764  22.776   4.494   9.668
57900W        W58765  22.746   3.842   8.778
57901W        W58766  24.367   4.684   9.470
57902W        W58767  23.165   5.855   7.670
57903W        W58768  25.163   5.797   9.169
57904W        W58769  22.490   6.555  10.592
57905W        W58770  24.877   7.237   8.389
57906W        W58771  22.976   4.257   8.834
57907W        W58772  22.745   5.750   8.924
57908W        W58773  23.058   7.161   9.674
57909W        W58774  25.125   7.257  10.706
57910W        W58775  24.284   5.445   9.639
57911W        W58776  22.133   5.243   7.554
57912W        W58777  25.267   6.901   8.251
57913W        W58778  25.104   4.225   7.870
57914W        W58779  23.243   3.744  10.273
57915W        W58780  24.949   6.546   8.731
57916W        W58781  24.978   5.102   8.636
57917W        W58782  23.095   4.775   8.852
57918W        W58783  23.340   5.037  10.176
57919W        W58784  24.451   6.190  10.039
57920W        W58785  23.101   4.644  10.151
57921W        W58786  23.080   7.110   8.767
57922W        W58787  22.397   7.069  10.401
57923W        W58788  22.509   6.430   7.531
57924W        W58789  25.026   6.188   8.341
57925W        W58790  22.630   4.980  10.227
57926W        W58791  25.403   4.910   7.708
57927W        W58792  23.148   5.967   8.179
57928W        W58793  24.247   5.349  10.260
57929W        W58794  24.138   4.977   9.804
57930W        W58795  22.698   5.349   9.833
57931W        W58796  24.908   7.237   9.662
57932W        W58797  24.699   3.871  10.656
57933W        W58798  22.363   4.021  10.243
57934W        W58799  22.702   5.044   9.296
57935W        W58800  23.071   4.858   7.418
57936W        W58801  21.874   6.617   9.963
57937W        W58802  23.459   5.326   9.406
57938W        W58803  23.282   4.351   7.511
57939W        W58804  22.417   5.167   8.292
57940W        W58805  22.188   7.019   9.729
57941W        W58806  24.983   5.245   7.837
57942W        W58807  25.078   4.161  10.523
57943W        W58808  24.514   6.370   8.486
57944W        W58809  22.112   5.294  10.663
57945W        W58810  25.078   3.758   7.959
57946W        W58811  24.598   6.233   7.970
57947W        W58812  23.500   5.291   8.055
57948W        W58813  24.687   4.095   7.578
57949W        W58814  24.752   4.702   9.764
57950W        W58815  22.461   5.295   8.971
57951W        W58816  22.755   6.234   8.620
57952W        W58817  24.518   4.854   8.585
57953W        W58818  23.541   4.233   9.281
57954W        W58819  25.503   6.144   9.792
57955W        W58820  25.421   4.131   9.353
57956W        W58821  21.960   6.961   8.729
57957W        W58822  22.469   6.148   8.265
57958W        W58823  22.384   3.765  10.818
57959W        W58824  23.503   6.618  10.920
57960W        W58825  25.258   5.586   8.710
57961W        W58826  24.612   5.763   7.590
57962W        W58827  23.907   7.284   9.802
57963W        W58828  24.764   6.006  10.839
57964W        W58829  23.579   3.716   8.119
57965W        W58830  24.292   4.585   8.978
57966W        W58831  21.978   6.172   9.310
57967W        W58832  23.231   4.134   7.951
57968W        W58833  23.035   5.618  10.800
57969W        W58834  24.029   4.599   8.514
57970W        W58835  24.234   6.009   9.636
57971W        W58836  22.388   6.614  10.071
57972W        W58837  22.979   6.597  10.794
57973W        W58838  22.830   4.394   7.808
57974W        W58839  24.347   4.536   8.133
57975W        W58840  24.305   6.644  10.370
57976W        W58841  22.990   5.236   8.969
57977W        W58842  22.645   6.934   9.834
57978W        W58843  25.390   7.051   7.435
57979W        W58844  22.253   5.723  10.431
57980W        W58845  24.248   5.985   9.119
57981W        W58846  22.684   5.634   8.361
57982W        W58847  23.055   6.641   9.756
57983W        W58848  23.433   4.060   8.797
57984W        W58849  22.044   6.044   7.727
57985W        W58850  23.563   4.995   7.597
57986W        W58851  22.209   5.544   8.616
57987W        W58852  23.499   4.186  10.080
57988W        W58853  25.171   3.895   7.507
57989W        W58854  25.264   5.641  10.606
57990W        W58855  23.918   6.898  10.758
57991W        W58856  25.476   5.992  10.280
57992W        W58857  24.884   6.790  10.891
57993W        W58858  22.623   7.246   9.369
57994W        W58859  25.482   5.868   8.243
57995W        W58860  24.012   5.135   8.756
57996W        W58861  23.779   3.747   8.646
57997W        W58862  22.838   6.731   8.483
57998W        W58863  23.337   4.472   9.708
57999W        W58864  23.037   3.841   9.177
58000W        W58865  22.100   6.663   7.725
58001W        W58866  23.916   6.027   8.443
58002W        W58867  22.791   6.822  10.322
58003W        W58868  22.268   5.645   8.018
58004W        W58869  22.153   4.188   9.017
58005W        W58870  23.701   6.153   9.074
58006W        W58871  21.953   4.007   8.094
58007W        W58872  24.617   5.213  10.021
58008W        W58873  24.494   4.599   7.593
58009W        W58874  25.011   6.271   9.241
58010W        W58875  23.672   6.755   9.072
58011W        W58876  23.084   6.859   7.983
58012W        W58877  24.366   3.762   7.413
58013W        W58878  22.166   7.022   9.154
58014W        W58879  24.363   4.780  10.789
58015W        W58880  22.346   4.310  10.788
58016W        W58881  22.077   4.910   8.121
58017W        W58882  22.768   4.899   7.846
58018W        W58883  24.531   5.226  10.663
58019W        W58884  22.874   5.507   9.372
58020W        W58885  24.348   3.793   8.492
58021W        W58886  23.479   7.224   8.995
58022W        W58887  24.693   6.686   9.932
58023W        W58888  24.277   6.835   9.043
58024W        W58889  24.296   5.815   8.637
58025W        W58890  23.758   4.040   7.708
58026W        W58891  25.439   3.668   8.430
58027W        W58892  23.127   5.303   7.593
58028W        W58893  25.293   4.640   8.583
58029W        W58894  23.985   5.810   7.460
58030W        W58895  24.921   6.010  10.208
58031W        W58896  24.575   6.711   7.675
58032W        W58897  23.190   4.386  10.581
58033W        W58898  23.010   4.970   9.822
58034W        W58899  25.102   6.465  10.099
58035W        W58900  24.202   4.415  10.476
58036W        W58901  22.046   4.886  10.253
58037W        W58902  23.806   5.363   9.979
58038W        W58903  22.163   6.121   8.636
58039W        W58904  22.310   5.418   9.526
58040W        W58905  24.627   5.704   9.876
58041W        W58906  24.399   7.084  10.687
58042W        W58907  24.295   4.823  10.240
58043W        W58908  24.572   6.877   8.645
58044W        W58909  23.574   6.597   9.968
58045W        W58910  23.059   6.952   9.237
58046W        W58911  24.864   6.123   9.656
58047W        W58912  23.914   6.195  10.793
58048W        W58913  22.519   6.148   9.132
58049W        W58914  24.865   5.907   8.777
58050W        W58915  24.506   6.973   9.528
58051W        W58916  22.484   6.702   9.398
58052W        W58917  23.505   4.754  10.608
58053W        W58918  23.956   6.920   8.119
58054W        W58919  23.264   6.175  10.757
58055W        W58920  23.390   6.413   8.134
58056W        W58921  22.611   5.153   7.393
58057W        W58922  21.950   7.239  14.292
58058W        W58923  22.326   6.132  13.815
58059W        W58924  25.031   5.862  11.585
58060W        W58925  25.161   6.947  13.612
58061W        W58926  23.079   6.938  11.138
58062W        W58927  23.162   5.090  12.121
58063W        W58928  22.677   4.938  12.285
58064W        W58929  23.668   5.753  11.719
58065W        W58930  23.343   6.845  14.074
58066W        W58931  21.992   4.406  14.037
58067W        W58932  22.754   3.686  13.839
58068W        W58933  24.448   4.074  12.726
58069W        W58934  24.097   4.945  11.296
58070W        W58935  24.667   4.379  14.387
58071W        W58936  22.033   4.171  13.512
58072W        W58937  22.132   6.790  14.533
58073W        W58938  23.654   6.180  11.265
58074W        W58939  22.086   4.963  12.958
58075W        W58940  22.979   4.854  14.195
58076W        W58941  25.438   4.713  12.694
58077W        W58942  25.202   5.756  13.553
58078W        W58943  23.510   5.089  12.580
58079W        W58944  24.056   6.428  12.949
58080W        W58945  22.556   5.862  13.181
58081W        W58946  21.915   5.390  12.752
58082W        W58947  22.951   5.362  13.944
58083W        W58948  25.222   5.145  14.198
58084W        W58949  22.838   6.589  12.643
58085W        W58950  23.959   6.278  13.777
58086W        W58951  23.179   4.918  13.002
58087W        W58952  23.471   5.702  12.645
58088W        W58953  24.468   6.475  14.493
58089W        W58954  23.547   5.795  14.503
58090W        W58955  23.528   5.511  13.981
58091W        W58956  21.937   4.902  14.503
58092W        W58957  24.769   6.437  14.102
58093W        W58958  22.350   4.019  12.100
58094W        W58959  22.877   6.277  13.099
58095W        W58960  25.340   6.060  12.389
58096W        W58961  24.753   4.460  12.956
58097W        W58962  25.038   4.413  11.051
58098W        W58963  25.503   5.214  13.357
58099W        W58964  23.470   6.921  13.110
58100W        W58965  25.244   6.387  11.548
58101W        W58966  22.373   7.173  11.302
58102W        W58967  22.766   7.219  11.978
58103W        W58968  22.563   3.973  13.404
58104W        W58969  25.186   4.991  13.679
58105W        W58970  24.591   5.413  12.138
58106W        W58971  24.557   5.101  11.165
58107W        W58972  23.765   6.245  13.305
58108W        W58973  23.571   4.575  12.504
58109W        W58974  24.171   6.662  13.498
58110W        W58975  25.042   5.453  11.920
58111W        W58976  23.944   4.111  11.936
58112W        W58977  22.601   6.805  11.619
58113W        W58978  21.972   4.304  12.218
58114W        W58979  24.758   4.911  12.692
58115W        W58980  22.216   6.528  12.607
58116W        W58981  23.557   6.878  11.477
58117W        W58982  24.949   4.904  10.941
58118W        W58983  21.972   6.662  13.105
58119W        W58984  22.763   6.234  13.585
58120W        W58985  23.136   5.594  12.204
58121W        W58986  23.158   3.999  13.297
58122W        W58987  25.387   3.761  12.594
58123W        W58988  22.606   5.633  11.062
58124W        W58989  22.261   4.666  11.241
58125W        W58990  22.323   6.622  12.035
58126W        W58991  23.454   6.105  12.283
58127W        W58992  24.786   6.964  13.997
58128W        W58993  23.712   4.606  11.681
58129W        W58994  25.095   7.004  12.453
58130W        W58995  24.772   4.857  14.051
58131W        W58996  25.485   6.513  12.185
58132W        W58997  24.112   5.805  13.669
58133W        W58998  21.878   5.356  11.875
58134W        W58999  22.989   5.771  13.448
58135W        W59000  24.193   5.035  11.826
58136W        W59001  24.070   5.525  11.930
58137W        W59002  22.413   4.945  13.404
58138W        W59003  22.398   4.821  14.326
58139W        W59004  22.288   3.738  12.485
58140W        W59005  24.056   4.085  13.046
58141W        W59006  23.704   4.270  14.209
58142W        W59007  24.059   4.419  11.387
58143W        W59008  25.242   6.812  14.141
58144W        W59009  24.209   3.893  14.180
58145W        W59010  25.228   6.194  14.302
58146W        W59011  24.658   4.361  13.898
58147W        W59012  24.458   4.299  12.168
58148W        W59013  24.851   5.433  14.572
58149W        W59014  22.591   7.009  12.558
58150W        W59015  23.249   4.726  11.544
58151W        W59016  22.818   4.010  14.208
58152W        W59017  24.870   4.494  11.889
58153W        W59018  25.237   4.976  11.834
58154W        W59019  22.980   7.193  14.305
58155W        W59020  22.906   3.729  11.540
58156W        W59021  25.227   4.263  12.575
58157W        W59022  25.377   6.512  11.020
58158W        W59023  22.284   5.715  12.722
58159W        W59024  24.201   4.302  10.952
58160W        W59025  25.335   6.634  12.672
58161W        W59026  25.374   3.828  13.422
58162W        W59027  23.819   5.040  13.976
58163W        W59028  23.912   6.379  11.679
58164W        W59029  24.312   5.673  14.419
58165W        W59030  23.986   3.650  12.728
58166W        W59031  22.598   4.553  12.791
58167W        W59032  22.152   5.753  13.565
58168W        W59033  24.011   6.946  12.271
58169W        W59034  25.205   4.543  13.143
58170W        W59035  23.842   6.890  13.910
58171W        W59036  25.185   5.949  11.115
58172W        W59037  23.620   5.432  12.176
58173W        W59038  25.472   3.943  13.917
58174W        W59039  23.621   5.778  13.511
58175W        W59040  23.838   4.664  12.956
58176W        W59041  24.690   4.962  11.794
58177W        W59042  24.977   4.695  11.436
58178W        W59043  24.786   6.735  11.825
58179W        W59044  24.620   6.338  12.621
58180W        W59045  24.516   5.417  11.599
58181W        W59046  23.949   5.627  12.585
58182W        W59047  24.830   5.415  12.652
58183W        W59048  22.205   4.430  13.076
58184W        W59049  24.983   5.482  13.903
58185W        W59050  25.334   7.100  13.049
58186W        W59051  23.264   6.544  12.451
58187W        W59052  24.271   7.077  13.775
58188W        W59053  24.265   4.407  13.539
58189W        W59054  23.472   7.115  13.600
58190W        W59055  25.169   4.069  12.066
58191W        W59056  24.960   5.388  13.367
58192W        W59057  21.943   4.709  13.405
58193W        W59058  24.803   4.504  12.423
58194W        W59059  25.214   4.655  14.200
58195W        W59060  24.099   6.354  12.418
58196W        W59061  23.355   6.945  12.031
58197W        W59062  22.470   4.125  11.289
58198W        W59063  23.574   3.779  13.099
58199W        W59064  22.602   6.899  10.947
58200W        W59065  22.976   5.365  11.698
58201W        W59066  23.630   5.994  14.011
58202W        W59067  23.460   4.352  12.001
58203W        W59068  24.816   3.949  12.429
58204W        W59069  24.536   7.231  12.757
58205W        W59070  23.948   6.879  13.097
58206W        W59071  23.344   5.916  13.058
58207W        W59072  25.114   6.639  13.184
58208W        W59073  22.808   4.142  11.953
58209W        W59074  23.330   6.439  12.913
58210W        W59075  22.813   4.370  10.978
58211W        W59076  23.614   4.979  13.372
58212W        W59077  24.462   3.845  13.242
58213W        W59078  21.882   5.688  13.127
58214W        W59079  23.586   5.506  11.285
58215W        W59080  22.854   3.821  11.055
58216W        W59081  23.592   4.902  12.106
58217W        W59082  24.562   3.878  13.805
58218W        W59083  23.150   5.890  13.914
58219W        W59084  23.954   5.672  14.131
58220W        W59085  24.571   5.702  14.024
58221W        W59086  23.855   3.842  14.529
58222W        W59087  23.077   4.458  12.922
58223W        W59088  22.503   4.414  12.320
58224W        W59089  22.289   7.126  11.996
58225W        W59090  23.621   6.456  14.121
58226W        W59091  22.656   5.941  11.480
58227W        W59092  24.336   5.326  12.701
58228W        W59093  24.616   5.125  13.100
58229W        W59094  23.821   5.799  13.034
58230W        W59095  24.291   6.173  11.166
58231W        W59096  23.963   4.194  12.494
58232W        W59097  25.442   4.472  11.762
58233W        W59098  21.936   7.061  13.793
58234W        W59099  22.353   6.287  13.325
58235W        W59100  21.920   7.133  11.557
58236W        W59101  23.819   4.403  13.363
58237W        W59102  23.182   6.426  11.212
58238W        W59103  25.087   6.808  11.398
58239W        W59104  24.062   5.461  11.412
58240W        W59105  22.905   4.652  11.929
58241W        W59106  23.737   4.562  10.981
58242W        W59107  24.321   6.127  14.159
58243W        W59108  24.674   4.033  11.776
58244W        W59109  22.004   3.881  11.224
58245W        W59110  23.290   6.200  13.514
58246W        W59111  23.089   6.116  12.606
58247W        W59112  22.831   6.068  11.004
58248W        W59113  22.072   6.309  11.772
58249W        W59114  22.576   5.379  14.214
58250W        W59115  23.280   3.939  14.400
58251W        W59116  23.989   4.081  13.756
58252W        W59117  23.184   3.849  12.037
58253W        W59118  24.243   3.926  11.542
58254W        W59119  22.188   3.858  13.119
58255W        W59120  22.236   4.821  12.489
58256W        W59121  24.925   3.929  12.895
58257W        W59122  22.347   4.427  11.709
58258W        W59123  24.918   4.115  13.325
58259W        W59124  25.314   5.318  11.010
58260W        W59125  22.606   4.076  12.829
58261W        W59126  23.720   4.648  13.769
58262W        W59127  21.868   4.338  11.247
58263W        W59128  22.654   5.727  13.808
58264W        W59129  24.012   5.125  12.987
58265W        W59130  23.879   7.204  11.283
58266W        W59131  22.025   5.711  10.980
58267W        W59132  22.760   6.122  14.106
58268W        W59133  22.281   5.289  13.737
58269W        W59134  23.272   5.394  13.531
58270W        W59135  25.040   3.753  13.793
58271W        W59136  25.438   5.363  13.784
58272W        W59137  25.426   5.563  11.470
58273W        W59138  24.289   5.895  11.569
58274W        W59139  24.763   7.195  11.264
58275W        W59140  23.940   5.185  14.406
58276W        W59141  22.270   6.152  14.446
58277W        W59142  25.476   4.074  14.398
58278W        W59143  25.194   5.002  13.019
58279W        W59144  23.502   7.132  14.496
58280W        W59145  23.357   3.761  11.223
58281W        W59146  24.896   6.360  11.166
58282W        W59147  22.665   4.453  14.052
58283W        W59148  23.099   6.447  13.914
58284W        W59149  25.225   4.438  13.712
58285W        W59150  24.436   7.097  11.680
58286W        W59151  24.675   5.716  13.047
58287W        W59152  22.925   4.132  13.714
58288W        W59153  23.394   5.201  14.471
58289W        W59154  22.897   6.380  11.665
58290W        W59155  24.652   5.878  11.929
58291W        W59156  22.420   4.504  13.653
58292W        W59157  23.749   6.566  12.117
58293W        W59158  25.499   5.126  12.298
58294W        W59159  23.721   3.759  14.017
58295W        W59160  24.501   6.464  13.096
58296W        W59161  24.804   6.808  12.804
58297W        W59162  24.023   6.610  11.232
58298W        W59163  22.033   6.502  14.074
58299W        W59164  22.776   4.494  13.312
58300W        W59165  22.746   3.842  12.422
58301W        W59166  24.367   4.684  13.114
58302W        W59167  23.165   5.855  11.314
58303W        W59168  25.163   5.797  12.813
58304W        W59169  22.490   6.555  14.236
58305W        W59170  24.877   7.237  12.033
58306W        W59171  22.976   4.257  12.478
58307W        W59172  22.745   5.750  12.568
58308W        W59173  23.058   7.161  13.318
58309W        W59174  25.125   7.257  14.350
58310W        W59175  24.284   5.445  13.283
58311W        W59176  22.133   5.243  11.198
58312W        W59177  25.267   6.901  11.895
58313W        W59178  25.104   4.225  11.514
58314W        W59179  23.243   3.744  13.917
58315W        W59180  24.949   6.546  12.375
58316W        W59181  24.978   5.102  12.280
58317W        W59182  23.095   4.775  12.496
58318W        W59183  23.340   5.037  13.820
58319W        W59184  24.451   6.190  13.683
58320W        W59185  23.101   4.644  13.795
58321W        W59186  23.080   7.110  12.411
58322W        W59187  22.397   7.069  14.045
58323W        W59188  22.509   6.430  11.175
58324W        W59189  25.026   6.188  11.985
58325W        W59190  22.630   4.980  13.871
58326W        W59191  25.403   4.910  11.352
58327W        W59192  23.148   5.967  11.823
58328W        W59193  24.247   5.349  13.904
58329W        W59194  24.138   4.977  13.448
58330W        W59195  22.698   5.349  13.477
58331W        W59196  24.908   7.237  13.306
58332W        W59197  24.699   3.871  14.300
58333W        W59198  22.363   4.021  13.887
58334W        W59199  22.702   5.044  12.940
58335W        W59200  23.071   4.858  11.062
58336W        W59201  21.874   6.617  13.607
58337W        W59202  23.459   5.326  13.050
58338W        W59203  23.282   4.351  11.155
58339W        W59204  22.417   5.167  11.936
58340W        W59205  22.188   7.019  13.373
58341W        W59206  24.983   5.245  11.481
58342W        W59207  25.078   4.161  14.167
58343W        W59208  24.514   6.370  12.130
58344W        W59209  22.112   5.294  14.307
58345W        W59210  25.078   3.758  11.603
58346W        W59211  24.598   6.233  11.614
58347W        W59212  23.500   5.291  11.699
58348W        W59213  24.687   4.095  11.222
58349W        W59214  24.752   4.702  13.408
58350W        W59215  22.461   5.295  12.615
58351W        W59216  22.755   6.234  12.264
58352W        W59217  24.518   4.854  12.229
58353W        W59218  23.541   4.233  12.925
58354W        W59219  25.503   6.144  13.436
58355W        W59220  25.421   4.131  12.997
58356W        W59221  21.960   6.961  12.373
58357W        W59222  22.469   6.148  11.909
58358W        W59223  22.384   3.765  14.462
58359W        W59224  23.503   6.618  14.564
58360W        W59225  25.258   5.586  12.354
58361W        W59226  24.612   5.763  11.234
58362W        W59227  23.907   7.284  13.446
58363W        W59228  24.764   6.006  14.483
58364W        W59229  23.579   3.716  11.763
58365W        W59230  24.292   4.585  12.622
58366W        W59231  21.978   6.172  12.954
58367W        W59232  23.231   4.134  11.595
58368W        W59233  23.035   5.618  14.444
58369W        W59234  24.029   4.599  12.158
58370W        W59235  24.234   6.009  13.280
58371W        W59236  22.388   6.614  13.715
58372W        W59237  22.979   6.597  14.438
58373W        W59238  22.830   4.394  11.452
58374W        W59239  24.347   4.536  11.777
58375W        W59240  24.305   6.644  14.014
58376W        W59241  22.990   5.236  12.613
58377W        W59242  22.645   6.934  13.478
58378W        W59243  25.390   7.051  11.079
58379W        W59244  22.253   5.723  14.075
58380W        W59245  24.248   5.985  12.763
58381W        W59246  22.684   5.634  12.005
58382W        W59247  23.055   6.641  13.400
58383W        W59248  23.433   4.060  12.441
58384W        W59249  22.044   6.044  11.371
58385W        W59250  23.563   4.995  11.241
58386W        W59251  22.209   5.544  12.260
58387W        W59252  23.499   4.186  13.724
58388W        W59253  25.171   3.895  11.151
58389W        W59254  25.264   5.641  14.250
58390W        W59255  23.918   6.898  14.402
58391W        W59256  25.476   5.992  13.924
58392W        W59257  24.884   6.790  14.535
58393W        W59258  22.623   7.246  13.013
58394W        W59259  25.482   5.868  11.887
58395W        W59260  24.012   5.135  12.400
58396W        W59261  23.779   3.747  12.290
58397W        W59262  22.838   6.731  12.127
58398W        W59263  23.337   4.472  13.352
58399W        W59264  23.037   3.841  12.821
58400W        W59265  22.100   6.663  11.369
58401W        W59266  23.916   6.027  12.087
58402W        W59267  22.791   6.822  13.966
58403W        W59268  22.268   5.645  11.662
58404W        W59269  22.153   4.188  12.661
58405W        W59270  23.701   6.153  12.718
58406W        W59271  21.953   4.007  11.738
58407W        W59272  24.617   5.213  13.665
58408W        W59273  24.494   4.599  11.237
58409W        W59274  25.011   6.271  12.885
58410W        W59275  23.672   6.755  12.716
58411W        W59276  23.084   6.859  11.627
58412W        W59277  24.366   3.762  11.057
58413W        W59278  22.166   7.022  12.798
58414W        W59279  24.363   4.780  14.433
58415W        W59280  22.346   4.310  14.432
58416W        W59281  22.077   4.910  11.765
58417W        W59282  22.768   4.899  11.490
58418W        W59283  24.531   5.226  14.307
58419W        W59284  22.874   5.507  13.016
58420W        W59285  24.348   3.793  12.136
58421W        W59286  23.479   7.224  12.639
58422W        W59287  24.693   6.686  13.576
58423W        W59288  24.277   6.835  12.687
58424W        W59289  24.296   5.815  12.281
58425W        W59290  23.758   4.040  11.352
58426W        W59291  25.439   3.668  12.074
58427W        W59292  23.127   5.303  11.237
58428W        W59293  25.293   4.640  12.227
58429W        W59294  23.985   5.810  11.104
58430W        W59295  24.921   6.010  13.852
58431W        W59296  24.575   6.711  11.319
58432W        W59297  23.190   4.386  14.225
58433W        W59298  23.010   4.970  13.466
58434W        W59299  25.102   6.465  13.743
58435W        W59300  24.202   4.415  14.120
58436W        W59301  22.046   4.886  13.897
58437W        W59302  23.806   5.363  13.623
58438W        W59303  22.163   6.121  12.280
58439W        W59304  22.310   5.418  13.170
58440W        W59305  24.627   5.704  13.520
58441W        W59306  24.399   7.084  14.331
58442W        W59307  24.295   4.823  13.884
58443W        W59308  24.572   6.877  12.289
58444W        W59309  23.574   6.597  13.612
58445W        W59310  23.059   6.952  12.881
58446W        W59311  24.864   6.123  13.300
58447W        W59312  23.914   6.195  14.437
58448W        W59313  22.519   6.148  12.776
58449W        W59314  24.865   5.907  12.421
58450W        W59315  24.506   6.973  13.172
58451W        W59316  22.484   6.702  13.042
58452W        W59317  23.505   4.754  14.252
58453W        W59318  23.956   6.920  11.763
58454W        W59319  23.264   6.175  14.401
58455W        W59320  23.390   6.413  11.778
58456W        W59321  22.611   5.153  11.037
58457W        W59322  21.950   7.239  17.936
58458W        W59323  22.326   6.132  17.459
58459W        W59324  25.031   5.862  15.229
58460W        W59325  25.161   6.947  17.256
58461W        W59326  23.079   6.938  14.782
58462W        W59327  23.162   5.090  15.765
58463W        W59328  22.677   4.938  15.929
58464W        W59329  23.668   5.753  15.363
58465W        W59330  23.343   6.845  17.718
58466W        W59331  21.992   4.406  17.681
58467W        W59332  22.754   3.686  17.483
58468W        W59333  24.448   4.074  16.370
58469W        W59334  24.097   4.945  14.940
58470W        W59335  24.667   4.379  18.031
58471W        W59336  22.033   4.171  17.156
58472W        W59337  22.132   6.790  18.177
58473W        W59338  23.654   6.180  14.909
58474W        W59339  22.086   4.963  16.602
58475W        W59340  22.979   4.854  17.839
58476W        W59341  25.438   4.713  16.338
58477W        W59342  25.202   5.756  17.197
58478W        W59343  23.510   5.089  16.224
58479W        W59344  24.056   6.428  16.593
58480W        W59345  22.556   5.862  16.825
58481W        W59346  21.915   5.390  16.396
58482W        W59347  22.951   5.362  17.588
58483W        W59348  25.222   5.145  17.842
58484W        W59349  22.838   6.589  16.287
58485W        W59350  23.959   6.278  17.421
58486W        W59351  23.179   4.918  16.646
58487W        W59352  23.471   5.702  16.289
58488W        W59353  24.468   6.475  18.137
58489W        W59354  23.547   5.795  18.147
58490W        W59355  23.528   5.511  17.625
58491W        W59356  21.937   4.902  18.147
58492W        W59357  24.769   6.437  17.746
58493W        W59358  22.350   4.019  15.744
58494W        W59359  22.877   6.277  16.743
58495W        W59360  25.340   6.060  16.033
58496W        W59361  24.753   4.460  16.600
58497W        W59362  25.038   4.413  14.695
58498W        W59363  25.503   5.214  17.001
58499W        W59364  23.470   6.921  16.754
58500W        W59365  25.244   6.387  15.192
58501W        W59366  22.373   7.173  14.946
58502W        W59367  22.766   7.219  15.622
58503W        W59368  22.563   3.973  17.048
58504W        W59369  25.186   4.991  17.323
58505W        W59370  24.591   5.413  15.782
58506W        W59371  24.557   5.101  14.809
58507W        W59372  23.765   6.245  16.949
58508W        W59373  23.571   4.575  16.148
58509W        W59374  24.171   6.662  17.142
58510W        W59375  25.042   5.453  15.564
58511W        W59376  23.944   4.111  15.580
58512W        W59377  22.601   6.805  15.263
58513W        W59378  21.972   4.304  15.862
58514W        W59379  24.758   4.911  16.336
58515W        W59380  22.216   6.528  16.251
58516W        W59381  23.557   6.878  15.121
58517W        W59382  24.949   4.904  14.585
58518W        W59383  21.972   6.662  16.749
58519W        W59384  22.763   6.234  17.229
58520W        W59385  23.136   5.594  15.848
58521W        W59386  23.158   3.999  16.941
58522W        W59387  25.387   3.761  16.238
58523W        W59388  22.606   5.633  14.706
58524W        W59389  22.261   4.666  14.885
58525W        W59390  22.323   6.622  15.679
58526W        W59391  23.454   6.105  15.927
58527W        W59392  24.786   6.964  17.641
58528W        W59393  23.712   4.606  15.325
58529W        W59394  25.095   7.004  16.097
58530W        W59395  24.772   4.857  17.695
58531W        W59396  25.485   6.513  15.829
58532W        W59397  24.112   5.805  17.313
58533W        W59398  21.878   5.356  15.519
58534W        W59399  22.989   5.771  17.092
58535W        W59400  24.193   5.035  15.470
58536W        W59401  24.070   5.525  15.574
58537W        W59402  22.413   4.945  17.048
58538W        W59403  22.398   4.821  17.970
58539W        W59404  22.288   3.738  16.129
58540W        W59405  24.056   4.085  16.690
58541W        W59406  23.704   4.270  17.853
58542W        W59407  24.059   4.419  15.031
58543W        W59408  25.242   6.812  17.785
58544W        W59409  24.209   3.893  17.824
58545W        W59410  25.228   6.194  17.946
58546W        W59411  24.658   4.361  17.542
58547W        W59412  24.458   4.299  15.812
58548W        W59413  24.851   5.433  18.216
58549W        W59414  22.591   7.009  16.202
58550W        W59415  23.249   4.726  15.188
58551W        W59416  22.818   4.010  17.852
58552W        W59417  24.870   4.494  15.533
58553W        W59418  25.237   4.976  15.478
58554W        W59419  22.980   7.193  17.949
58555W        W59420  22.906   3.729  15.184
58556W        W59421  25.227   4.263  16.219
58557W        W59422  25.377   6.512  14.664
58558W        W59423  22.284   5.715  16.366
58559W        W59424  24.201   4.302  14.596
58560W        W59425  25.335   6.634  16.316
58561W        W59426  25.374   3.828  17.066
58562W        W59427  23.819   5.040  17.620
58563W        W59428  23.912   6.379  15.323
58564W        W59429  24.312   5.673  18.063
58565W        W59430  23.986   3.650  16.372
58566W        W59431  22.598   4.553  16.435
58567W        W59432  22.152   5.753  17.209
58568W        W59433  24.011   6.946  15.915
58569W        W59434  25.205   4.543  16.787
58570W        W59435  23.842   6.890  17.554
58571W        W59436  25.185   5.949  14.759
58572W        W59437  23.620   5.432  15.820
58573W        W59438  25.472   3.943  17.561
58574W        W59439  23.621   5.778  17.155
58575W        W59440  23.838   4.664  16.600
58576W        W59441  24.690   4.962  15.438
58577W        W59442  24.977   4.695  15.080
58578W        W59443  24.786   6.735  15.469
58579W        W59444  24.620   6.338  16.265
58580W        W59445  24.516   5.417  15.243
58581W        W59446  23.949   5.627  16.229
58582W        W59447  24.830   5.415  16.296
58583W        W59448  22.205   4.430  16.720
58584W        W59449  24.983   5.482  17.547
58585W        W59450  25.334   7.100  16.693
58586W        W59451  23.264   6.544  16.095
58587W        W59452  24.271   7.077  17.419
58588W        W59453  24.265   4.407  17.183
58589W        W59454  23.472   7.115  17.244
58590W        W59455  25.169   4.069  15.710
58591W        W59456  24.960   5.388  17.011
58592W        W59457  21.943   4.709  17.049
58593W        W59458  24.803   4.504  16.067
58594W        W59459  25.214   4.655  17.844
58595W        W59460  24.099   6.354  16.062
58596W        W59461  23.355   6.945  15.675
58597W        W59462  22.470   4.125  14.933
58598W        W59463  23.574   3.779  16.743
58599W        W59464  22.602   6.899  14.591
58600W        W59465  22.976   5.365  15.342
58601W        W59466  23.630   5.994  17.655
58602W        W59467  23.460   4.352  15.645
58603W        W59468  24.816   3.949  16.073
58604W        W59469  24.536   7.231  16.401
58605W        W59470  23.948   6.879  16.741
58606W        W59471  23.344   5.916  16.702
58607W        W59472  25.114   6.639  16.828
58608W        W59473  22.808   4.142  15.597
58609W        W59474  23.330   6.439  16.557
58610W        W59475  22.813   4.370  14.622
58611W        W59476  23.614   4.979  17.016
58612W        W59477  24.462   3.845  16.886
58613W        W59478  21.882   5.688  16.771
58614W        W59479  23.586   5.506  14.929
58615W        W59480  22.854   3.821  14.699
58616W        W59481  23.592   4.902  15.750
58617W        W59482  24.562   3.878  17.449
58618W        W59483  23.150   5.890  17.558
58619W        W59484  23.954   5.672  17.775
58620W        W59485  24.571   5.702  17.668
58621W        W59486  23.855   3.842  18.173
58622W        W59487  23.077   4.458  16.566
58623W        W59488  22.503   4.414  15.964
58624W        W59489  22.289   7.126  15.640
58625W        W59490  23.621   6.456  17.765
58626W        W59491  22.656   5.941  15.124
58627W        W59492  24.336   5.326  16.345
58628W        W59493  24.616   5.125  16.744
58629W        W59494  23.821   5.799  16.678
58630W        W59495  24.291   6.173  14.810
58631W        W59496  23.963   4.194  16.138
58632W        W59497  25.442   4.472  15.406
58633W        W59498  21.936   7.061  17.437
58634W        W59499  22.353   6.287  16.969
58635W        W59500  21.920   7.133  15.201
58636W        W59501  23.819   4.403  17.007
58637W        W59502  23.182   6.426  14.856
58638W        W59503  25.087   6.808  15.042
58639W        W59504  24.062   5.461  15.056
58640W        W59505  22.905   4.652  15.573
58641W        W59506  23.737   4.562  14.625
58642W        W59507  24.321   6.127  17.803
58643W        W59508  24.674   4.033  15.420
58644W        W59509  22.004   3.881  14.868
58645W        W59510  23.290   6.200  17.158
58646W        W59511  23.089   6.116  16.250
58647W        W59512  22.831   6.068  14.648
58648W        W59513  22.072   6.309  15.416
58649W        W59514  22.576   5.379  17.858
58650W        W59515  23.280   3.939  18.044
58651W        W59516  23.989   4.081  17.400
58652W        W59517  23.184   3.849  15.681
58653W        W59518  24.243   3.926  15.186
58654W        W59519  22.188   3.858  16.763
58655W        W59520  22.236   4.821  16.133
58656W        W59521  24.925   3.929  16.539
58657W        W59522  22.347   4.427  15.353
58658W        W59523  24.918   4.115  16.969
58659W        W59524  25.314   5.318  14.654
58660W        W59525  22.606   4.076  16.473
58661W        W59526  23.720   4.648  17.413
58662W        W59527  21.868   4.338  14.891
58663W        W59528  22.654   5.727  17.452
58664W        W59529  24.012   5.125  16.631
58665W        W59530  23.879   7.204  14.927
58666W        W59531  22.025   5.711  14.624
58667W        W59532  22.760   6.122  17.750
58668W        W59533  22.281   5.289  17.381
58669W        W59534  23.272   5.394  17.175
58670W        W59535  25.040   3.753  17.437
58671W        W59536  25.438   5.363  17.428
58672W        W59537  25.426   5.563  15.114
58673W        W59538  24.289   5.895  15.213
58674W        W59539  24.763   7.195  14.908
58675W        W59540  23.940   5.185  18.050
58676W        W59541  22.270   6.152  18.090
58677W        W59542  25.476   4.074  18.042
58678W        W59543  25.194   5.002  16.663
58679W        W59544  23.502   7.132  18.140
58680W        W59545  23.357   3.761  14.867
58681W        W59546  24.896   6.360  14.810
58682W        W59547  22.665   4.453  17.696
58683W        W59548  23.099   6.447  17.558
58684W        W59549  25.225   4.438  17.356
58685W        W59550  24.436   7.097  15.324
58686W        W59551  24.675   5.716  16.691
58687W        W59552  22.925   4.132  17.358
58688W        W59553  23.394   5.201  18.115
58689W        W59554  22.897   6.380  15.309
58690W        W59555  24.652   5.878  15.573
58691W        W59556  22.420   4.504  17.297
58692W        W59557  23.749   6.566  15.761
58693W        W59558  25.499   5.126  15.942
58694W        W59559  23.721   3.759  17.661
58695W        W59560  24.501   6.464  16.740
58696W        W59561  24.804   6.808  16.448
58697W        W59562  24.023   6.610  14.876
58698W        W59563  22.033   6.502  17.718
58699W        W59564  22.776   4.494  16.956
58700W        W59565  22.746   3.842  16.066
58701W        W59566  24.367   4.684  16.758
58702W        W59567  23.165   5.855  14.958
58703W        W59568  25.163   5.797  16.457
58704W        W59569  22.490   6.555  17.880
58705W        W59570  24.877   7.237  15.677
58706W        W59571  22.976   4.257  16.122
58707W        W59572  22.745   5.750  16.212
58708W        W59573  25.125   7.257  17.994
58709W        W59574  24.284   5.445  16.927
58710W        W59575  22.133   5.243  14.842
58711W        W59576  25.267   6.901  15.539
58712W        W59577  25.104   4.225  15.158
58713W        W59578  23.243   3.744  17.561
58714W        W59579  24.949   6.546  16.019
58715W        W59580  24.978   5.102  15.924
58716W        W59581  23.095   4.775  16.140
58717W        W59582  23.340   5.037  17.464
58718W        W59583  24.451   6.190  17.327
58719W        W59584  23.101   4.644  17.439
58720W        W59585  23.080   7.110  16.055
58721W        W59586  22.397   7.069  17.689
58722W        W59587  22.509   6.430  14.819
58723W        W59588  25.026   6.188  15.629
58724W        W59589  22.630   4.980  17.515
58725W        W59590  25.403   4.910  14.996
58726W        W59591  23.148   5.967  15.467
58727W        W59592  24.247   5.349  17.548
58728W        W59593  24.138   4.977  17.092
58729W        W59594  22.698   5.349  17.121
58730W        W59595  24.908   7.237  16.950
58731W        W59596  24.699   3.871  17.944
58732W        W59597  22.363   4.021  17.531
58733W        W59598  22.702   5.044  16.584
58734W        W59599  23.071   4.858  14.706
58735W        W59600  21.874   6.617  17.251
58736W        W59601  23.459   5.326  16.694
58737W        W59602  23.282   4.351  14.799
58738W        W59603  22.417   5.167  15.580
58739W        W59604  22.188   7.019  17.017
58740W        W59605  24.983   5.245  15.125
58741W        W59606  25.078   4.161  17.811
58742W        W59607  24.514   6.370  15.774
58743W        W59608  22.112   5.294  17.951
58744W        W59609  25.078   3.758  15.247
58745W        W59610  24.598   6.233  15.258
58746W        W59611  23.500   5.291  15.343
58747W        W59612  24.687   4.095  14.866
58748W        W59613  24.752   4.702  17.052
58749W        W59614  22.461   5.295  16.259
58750W        W59615  22.755   6.234  15.908
58751W        W59616  24.518   4.854  15.873
58752W        W59617  23.541   4.233  16.569
58753W        W59618  25.503   6.144  17.080
58754W        W59619  25.421   4.131  16.641
58755W        W59620  21.960   6.961  16.017
58756W        W59621  22.469   6.148  15.553
58757W        W59622  22.384   3.765  18.106
58758W        W59623  23.503   6.618  18.208
58759W        W59624  25.258   5.586  15.998
58760W        W59625  24.612   5.763  14.878
58761W        W59626  23.907   7.284  17.090
58762W        W59627  24.764   6.006  18.127
58763W        W59628  23.579   3.716  15.407
58764W        W59629  24.292   4.585  16.266
58765W        W59630  21.978   6.172  16.598
58766W        W59631  23.231   4.134  15.239
58767W        W59632  23.035   5.618  18.088
58768W        W59633  24.029   4.599  15.802
58769W        W59634  24.234   6.009  16.924
58770W        W59635  22.388   6.614  17.359
58771W        W59636  22.979   6.597  18.082
58772W        W59637  22.830   4.394  15.096
58773W        W59638  24.347   4.536  15.421
58774W        W59639  24.305   6.644  17.658
58775W        W59640  22.990   5.236  16.257
58776W        W59641  22.645   6.934  17.122
58777W        W59642  25.390   7.051  14.723
58778W        W59643  22.253   5.723  17.719
58779W        W59644  24.248   5.985  16.407
58780W        W59645  22.684   5.634  15.649
58781W        W59646  23.055   6.641  17.044
58782W        W59647  23.433   4.060  16.085
58783W        W59648  22.044   6.044  15.015
58784W        W59649  23.563   4.995  14.885
58785W        W59650  22.209   5.544  15.904
58786W        W59651  23.499   4.186  17.368
58787W        W59652  25.171   3.895  14.795
58788W        W59653  25.264   5.641  17.894
58789W        W59654  23.918   6.898  18.046
58790W        W59655  25.476   5.992  17.568
58791W        W59656  24.884   6.790  18.179
58792W        W59657  22.623   7.246  16.657
58793W        W59658  25.482   5.868  15.531
58794W        W59659  24.012   5.135  16.044
58795W        W59660  23.779   3.747  15.934
58796W        W59661  22.838   6.731  15.771
58797W        W59662  23.337   4.472  16.996
58798W        W59663  23.037   3.841  16.465
58799W        W59664  22.100   6.663  15.013
58800W        W59665  23.916   6.027  15.731
58801W        W59666  22.791   6.822  17.610
58802W        W59667  22.268   5.645  15.306
58803W        W59668  22.153   4.188  16.305
58804W        W59669  23.701   6.153  16.362
58805W        W59670  21.953   4.007  15.382
58806W        W59671  24.617   5.213  17.309
58807W        W59672  24.494   4.599  14.881
58808W        W59673  25.011   6.271  16.529
58809W        W59674  23.672   6.755  16.360
58810W        W59675  23.084   6.859  15.271
58811W        W59676  24.366   3.762  14.701
58812W        W59677  22.166   7.022  16.442
58813W        W59678  24.363   4.780  18.077
58814W        W59679  22.346   4.310  18.076
58815W        W59680  22.077   4.910  15.409
58816W        W59681  22.768   4.899  15.134
58817W        W59682  24.531   5.226  17.951
58818W        W59683  22.874   5.507  16.660
58819W        W59684  24.348   3.793  15.780
58820W        W59685  23.479   7.224  16.283
58821W        W59686  24.693   6.686  17.220
58822W        W59687  24.277   6.835  16.331
58823W        W59688  24.296   5.815  15.925
58824W        W59689  23.758   4.040  14.996
58825W        W59690  25.439   3.668  15.718
58826W        W59691  23.127   5.303  14.881
58827W        W59692  25.293   4.640  15.871
58828W        W59693  23.985   5.810  14.748
58829W        W59694  24.921   6.010  17.496
58830W        W59695  24.575   6.711  14.963
58831W        W59696  23.190   4.386  17.869
58832W        W59697  23.010   4.970  17.110
58833W        W59698  25.102   6.465  17.387
58834W        W59699  24.202   4.415  17.764
58835W        W59700  22.046   4.886  17.541
58836W        W59701  23.806   5.363  17.267
58837W        W59702  22.163   6.121  15.924
58838W        W59703  22.310   5.418  16.814
58839W        W59704  24.627   5.704  17.164
58840W        W59705  24.399   7.084  17.975
58841W        W59706  24.295   4.823  17.528
58842W        W59707  24.572   6.877  15.933
58843W        W59708  23.574   6.597  17.256
58844W        W59709  23.059   6.952  16.525
58845W        W59710  24.864   6.123  16.944
58846W        W59711  23.914   6.195  18.081
58847W        W59712  22.519   6.148  16.420
58848W        W59713  24.865   5.907  16.065
58849W        W59714  24.506   6.973  16.816
58850W        W59715  22.484   6.702  16.686
58851W        W59716  23.505   4.754  17.896
58852W        W59717  23.956   6.920  15.407
58853W        W59718  23.264   6.175  18.045
58854W        W59719  23.390   6.413  15.422
58855W        W59720  22.611   5.153  14.681
58856W        W59721  21.950   7.239  21.580
58857W        W59722  22.326   6.132  21.103
58858W        W59723  25.031   5.862  18.873
58859W        W59724  25.161   6.947  20.900
58860W        W59725  23.079   6.938  18.426
58861W        W59726  23.162   5.090  19.409
58862W        W59727  22.677   4.938  19.573
58863W        W59728  23.668   5.753  19.007
58864W        W59729  23.343   6.845  21.362
58865W        W59730  21.992   4.406  21.325
58866W        W59731  22.754   3.686  21.127
58867W        W59732  24.448   4.074  20.014
58868W        W59733  24.097   4.945  18.584
58869W        W59734  24.667   4.379  21.675
58870W        W59735  22.033   4.171  20.800
58871W        W59736  22.132   6.790  21.821
58872W        W59737  23.654   6.180  18.553
58873W        W59738  22.086   4.963  20.246
58874W        W59739  22.979   4.854  21.483
58875W        W59740  25.438   4.713  19.982
58876W        W59741  25.202   5.756  20.841
58877W        W59742  23.510   5.089  19.868
58878W        W59743  24.056   6.428  20.237
58879W        W59744  22.556   5.862  20.469
58880W        W59745  21.915   5.390  20.040
58881W        W59746  22.951   5.362  21.232
58882W        W59747  25.222   5.145  21.486
58883W        W59748  22.838   6.589  19.931
58884W        W59749  23.959   6.278  21.065
58885W        W59750  23.179   4.918  20.290
58886W        W59751  23.471   5.702  19.933
58887W        W59752  24.468   6.475  21.781
58888W        W59753  23.547   5.795  21.791
58889W        W59754  23.528   5.511  21.269
58890W        W59755  21.937   4.902  21.791
58891W        W59756  24.769   6.437  21.390
58892W        W59757  22.350   4.019  19.388
58893W        W59758  22.877   6.277  20.387
58894W        W59759  25.340   6.060  19.677
58895W        W59760  24.753   4.460  20.244
58896W        W59761  25.038   4.413  18.339
58897W        W59762  25.503   5.214  20.645
58898W        W59763  23.470   6.921  20.398
58899W        W59764  25.244   6.387  18.836
58900W        W59765  22.373   7.173  18.590
58901W        W59766  22.766   7.219  19.266
58902W        W59767  22.563   3.973  20.692
58903W        W59768  25.186   4.991  20.967
58904W        W59769  24.591   5.413  19.426
58905W        W59770  24.557   5.101  18.453
58906W        W59771  23.765   6.245  20.593
58907W        W59772  23.571   4.575  19.792
58908W        W59773  24.171   6.662  20.786
58909W        W59774  25.042   5.453  19.208
58910W        W59775  23.944   4.111  19.224
58911W        W59776  22.601   6.805  18.907
58912W        W59777  21.972   4.304  19.506
58913W        W59778  24.758   4.911  19.980
58914W        W59779  22.216   6.528  19.895
58915W        W59780  23.557   6.878  18.765
58916W        W59781  24.949   4.904  18.229
58917W        W59782  21.972   6.662  20.393
58918W        W59783  22.763   6.234  20.873
58919W        W59784  23.136   5.594  19.492
58920W        W59785  23.158   3.999  20.585
58921W        W59786  25.387   3.761  19.882
58922W        W59787  22.606   5.633  18.350
58923W        W59788  22.261   4.666  18.529
58924W        W59789  22.323   6.622  19.323
58925W        W59790  23.454   6.105  19.571
58926W        W59791  24.786   6.964  21.285
58927W        W59792  23.712   4.606  18.969
58928W        W59793  25.095   7.004  19.741
58929W        W59794  24.772   4.857  21.339
58930W        W59795  25.485   6.513  19.473
58931W        W59796  24.112   5.805  20.957
58932W        W59797  21.878   5.356  19.163
58933W        W59798  22.989   5.771  20.736
58934W        W59799  24.193   5.035  19.114
58935W        W59800  24.070   5.525  19.218
58936W        W59801  22.413   4.945  20.692
58937W        W59802  22.398   4.821  21.614
58938W        W59803  22.288   3.738  19.773
58939W        W59804  24.056   4.085  20.334
58940W        W59805  23.704   4.270  21.497
58941W        W59806  24.059   4.419  18.675
58942W        W59807  25.242   6.812  21.429
58943W        W59808  24.209   3.893  21.468
58944W        W59809  25.228   6.194  21.590
58945W        W59810  24.658   4.361  21.186
58946W        W59811  24.458   4.299  19.456
58947W        W59812  24.851   5.433  21.860
58948W        W59813  22.591   7.009  19.846
58949W        W59814  23.249   4.726  18.832
58950W        W59815  22.818   4.010  21.496
58951W        W59816  24.870   4.494  19.177
58952W        W59817  25.237   4.976  19.122
58953W        W59818  22.980   7.193  21.593
58954W        W59819  22.906   3.729  18.828
58955W        W59820  25.227   4.263  19.863
58956W        W59821  25.377   6.512  18.308
58957W        W59822  22.284   5.715  20.010
58958W        W59823  24.201   4.302  18.240
58959W        W59824  25.335   6.634  19.960
58960W        W59825  25.374   3.828  20.710
58961W        W59826  23.819   5.040  21.264
58962W        W59827  23.912   6.379  18.967
58963W        W59828  24.312   5.673  21.707
58964W        W59829  23.986   3.650  20.016
58965W        W59830  22.598   4.553  20.079
58966W        W59831  22.152   5.753  20.853
58967W        W59832  24.011   6.946  19.559
58968W        W59833  25.205   4.543  20.431
58969W        W59834  23.842   6.890  21.198
58970W        W59835  25.185   5.949  18.403
58971W        W59836  23.620   5.432  19.464
58972W        W59837  25.472   3.943  21.205
58973W        W59838  23.621   5.778  20.799
58974W        W59839  23.838   4.664  20.244
58975W        W59840  24.690   4.962  19.082
58976W        W59841  24.977   4.695  18.724
58977W        W59842  24.786   6.735  19.113
58978W        W59843  24.620   6.338  19.909
58979W        W59844  24.516   5.417  18.887
58980W        W59845  23.949   5.627  19.873
58981W        W59846  24.830   5.415  19.940
58982W        W59847  22.205   4.430  20.364
58983W        W59848  24.983   5.482  21.191
58984W        W59849  25.334   7.100  20.337
58985W        W59850  23.264   6.544  19.739
58986W        W59851  24.271   7.077  21.063
58987W        W59852  24.265   4.407  20.827
58988W        W59853  23.472   7.115  20.888
58989W        W59854  25.169   4.069  19.354
58990W        W59855  24.960   5.388  20.655
58991W        W59856  21.943   4.709  20.693
58992W        W59857  24.803   4.504  19.711
58993W        W59858  25.214   4.655  21.488
58994W        W59859  24.099   6.354  19.706
58995W        W59860  23.355   6.945  19.319
58996W        W59861  22.470   4.125  18.577
58997W        W59862  23.574   3.779  20.387
58998W        W59863  22.602   6.899  18.235
58999W        W59864  22.976   5.365  18.986
59000W        W59865  23.630   5.994  21.299
59001W        W59866  23.460   4.352  19.289
59002W        W59867  24.816   3.949  19.717
59003W        W59868  24.536   7.231  20.045
59004W        W59869  23.948   6.879  20.385
59005W        W59870  23.344   5.916  20.346
59006W        W59871  25.114   6.639  20.472
59007W        W59872  22.808   4.142  19.241
59008W        W59873  23.330   6.439  20.201
59009W        W59874  22.813   4.370  18.266
59010W        W59875  23.614   4.979  20.660
59011W        W59876  24.462   3.845  20.530
59012W        W59877  21.882   5.688  20.415
59013W        W59878  23.586   5.506  18.573
59014W        W59879  22.854   3.821  18.343
59015W        W59880  23.592   4.902  19.394
59016W        W59881  24.562   3.878  21.093
59017W        W59882  23.150   5.890  21.202
59018W        W59883  23.954   5.672  21.419
59019W        W59884  24.571   5.702  21.312
59020W        W59885  23.855   3.842  21.817
59021W        W59886  23.077   4.458  20.210
59022W        W59887  22.503   4.414  19.608
59023W        W59888  22.289   7.126  19.284
59024W        W59889  23.621   6.456  21.409
59025W        W59890  22.656   5.941  18.768
59026W        W59891  24.336   5.326  19.989
59027W        W59892  24.616   5.125  20.388
59028W        W59893  23.821   5.799  20.322
59029W        W59894  24.291   6.173  18.454
59030W        W59895  23.963   4.194  19.782
59031W        W59896  25.442   4.472  19.050
59032W        W59897  21.936   7.061  21.081
59033W        W59898  22.353   6.287  20.613
59034W        W59899  21.920   7.133  18.845
59035W        W59900  23.819   4.403  20.651
59036W        W59901  23.182   6.426  18.500
59037W        W59902  25.087   6.808  18.686
59038W        W59903  24.062   5.461  18.700
59039W        W59904  22.905   4.652  19.217
59040W        W59905  23.737   4.562  18.269
59041W        W59906  24.321   6.127  21.447
59042W        W59907  24.674   4.033  19.064
59043W        W59908  22.004   3.881  18.512
59044W        W59909  23.290   6.200  20.802
59045W        W59910  23.089   6.116  19.894
59046W        W59911  22.831   6.068  18.292
59047W        W59912  22.072   6.309  19.060
59048W        W59913  22.576   5.379  21.502
59049W        W59914  23.280   3.939  21.688
59050W        W59915  23.989   4.081  21.044
59051W        W59916  23.184   3.849  19.325
59052W        W59917  24.243   3.926  18.830
59053W        W59918  22.188   3.858  20.407
59054W        W59919  22.236   4.821  19.777
59055W        W59920  24.925   3.929  20.183
59056W        W59921  22.347   4.427  18.997
59057W        W59922  24.918   4.115  20.613
59058W        W59923  25.314   5.318  18.298
59059W        W59924  22.606   4.076  20.117
59060W        W59925  23.720   4.648  21.057
59061W        W59926  21.868   4.338  18.535
59062W        W59927  22.654   5.727  21.096
59063W        W59928  24.012   5.125  20.275
59064W        W59929  23.879   7.204  18.571
59065W        W59930  22.025   5.711  18.268
59066W        W59931  22.760   6.122  21.394
59067W        W59932  22.281   5.289  21.025
59068W        W59933  23.272   5.394  20.819
59069W        W59934  25.040   3.753  21.081
59070W        W59935  25.438   5.363  21.072
59071W        W59936  25.426   5.563  18.758
59072W        W59937  24.289   5.895  18.857
59073W        W59938  24.763   7.195  18.552
59074W        W59939  23.940   5.185  21.694
59075W        W59940  22.270   6.152  21.734
59076W        W59941  25.476   4.074  21.686
59077W        W59942  25.194   5.002  20.307
59078W        W59943  23.502   7.132  21.784
59079W        W59944  23.357   3.761  18.511
59080W        W59945  24.896   6.360  18.454
59081W        W59946  22.665   4.453  21.340
59082W        W59947  23.099   6.447  21.202
59083W        W59948  25.225   4.438  21.000
59084W        W59949  24.436   7.097  18.968
59085W        W59950  24.675   5.716  20.335
59086W        W59951  22.925   4.132  21.002
59087W        W59952  23.394   5.201  21.759
59088W        W59953  22.897   6.380  18.953
59089W        W59954  24.652   5.878  19.217
59090W        W59955  22.420   4.504  20.941
59091W        W59956  23.749   6.566  19.405
59092W        W59957  25.499   5.126  19.586
59093W        W59958  23.721   3.759  21.305
59094W        W59959  24.501   6.464  20.384
59095W        W59960  24.804   6.808  20.092
59096W        W59961  24.023   6.610  18.520
59097W        W59962  22.033   6.502  21.362
59098W        W59963  22.776   4.494  20.600
59099W        W59964  22.746   3.842  19.710
59100W        W59965  24.367   4.684  20.402
59101W        W59966  23.165   5.855  18.602
59102W        W59967  25.163   5.797  20.101
59103W        W59968  22.490   6.555  21.524
59104W        W59969  24.877   7.237  19.321
59105W        W59970  22.976   4.257  19.766
59106W        W59971  22.745   5.750  19.856
59107W        W59972  23.058   7.161  20.606
59108W        W59973  25.125   7.257  21.638
59109W        W59974  24.284   5.445  20.571
59110W        W59975  22.133   5.243  18.486
59111W        W59976  25.267   6.901  19.183
59112W        W59977  25.104   4.225  18.802
59113W        W59978  23.243   3.744  21.205
59114W        W59979  24.949   6.546  19.663
59115W        W59980  24.978   5.102  19.568
59116W        W59981  23.095   4.775  19.784
59117W        W59982  23.340   5.037  21.108
59118W        W59983  24.451   6.190  20.971
59119W        W59984  23.101   4.644  21.083
59120W        W59985  23.080   7.110  19.699
59121W        W59986  22.397   7.069  21.333
59122W        W59987  22.509   6.430  18.463
59123W        W59988  25.026   6.188  19.273
59124W        W59989  22.630   4.980  21.159
59125W        W59990  25.403   4.910  18.640
59126W        W59991  23.148   5.967  19.111
59127W        W59992  24.247   5.349  21.192
59128W        W59993  24.138   4.977  20.736
59129W        W59994  22.698   5.349  20.765
59130W        W59995  24.908   7.237  20.594
59131W        W59996  24.699   3.871  21.588
59132W        W59997  22.363   4.021  21.175
59133W        W59998  22.702   5.044  20.228
59134W        W59999  23.071   4.858  18.350
59135W        W60000  21.874   6.617  20.895
59136W        W60001  23.459   5.326  20.338
59137W        W60002  23.282   4.351  18.443
59138W        W60003  22.417   5.167  19.224
59139W        W60004  22.188   7.019  20.661
59140W        W60005  24.983   5.245  18.769
59141W        W60006  25.078   4.161  21.455
59142W        W60007  24.514   6.370  19.418
59143W        W60008  22.112   5.294  21.595
59144W        W60009  25.078   3.758  18.891
59145W        W60010  24.598   6.233  18.902
59146W        W60011  23.500   5.291  18.987
59147W        W60012  24.687   4.095  18.510
59148W        W60013  24.752   4.702  20.696
59149W        W60014  22.461   5.295  19.903
59150W        W60015  22.755   6.234  19.552
59151W        W60016  24.518   4.854  19.517
59152W        W60017  23.541   4.233  20.213
59153W        W60018  25.503   6.144  20.724
59154W        W60019  25.421   4.131  20.285
59155W        W60020  21.960   6.961  19.661
59156W        W60021  22.469   6.148  19.197
59157W        W60022  22.384   3.765  21.750
59158W        W60023  23.503   6.618  21.852
59159W        W60024  25.258   5.586  19.642
59160W        W60025  24.612   5.763  18.522
59161W        W60026  23.907   7.284  20.734
59162W        W60027  24.764   6.006  21.771
59163W        W60028  23.579   3.716  19.051
59164W        W60029  24.292   4.585  19.910
59165W        W60030  21.978   6.172  20.242
59166W        W60031  23.231   4.134  18.883
59167W        W60032  23.035   5.618  21.732
59168W        W60033  24.029   4.599  19.446
59169W        W60034  24.234   6.009  20.568
59170W        W60035  22.388   6.614  21.003
59171W        W60036  22.979   6.597  21.726
59172W        W60037  22.830   4.394  18.740
59173W        W60038  24.347   4.536  19.065
59174W        W60039  24.305   6.644  21.302
59175W        W60040  22.990   5.236  19.901
59176W        W60041  22.645   6.934  20.766
59177W        W60042  25.390   7.051  18.367
59178W        W60043  22.253   5.723  21.363
59179W        W60044  24.248   5.985  20.051
59180W        W60045  22.684   5.634  19.293
59181W        W60046  23.055   6.641  20.688
59182W        W60047  23.433   4.060  19.729
59183W        W60048  22.044   6.044  18.659
59184W        W60049  23.563   4.995  18.529
59185W        W60050  22.209   5.544  19.548
59186W        W60051  23.499   4.186  21.012
59187W        W60052  25.171   3.895  18.439
59188W        W60053  25.264   5.641  21.538
59189W        W60054  23.918   6.898  21.690
59190W        W60055  25.476   5.992  21.212
59191W        W60056  24.884   6.790  21.823
59192W        W60057  22.623   7.246  20.301
59193W        W60058  25.482   5.868  19.175
59194W        W60059  24.012   5.135  19.688
59195W        W60060  23.779   3.747  19.578
59196W        W60061  22.838   6.731  19.415
59197W        W60062  23.337   4.472  20.640
59198W        W60063  23.037   3.841  20.109
59199W        W60064  22.100   6.663  18.657
59200W        W60065  23.916   6.027  19.375
59201W        W60066  22.791   6.822  21.254
59202W        W60067  22.268   5.645  18.950
59203W        W60068  22.153   4.188  19.949
59204W        W60069  23.701   6.153  20.006
59205W        W60070  21.953   4.007  19.026
59206W        W60071  24.617   5.213  20.953
59207W        W60072  24.494   4.599  18.525
59208W        W60073  25.011   6.271  20.173
59209W        W60074  23.672   6.755  20.004
59210W        W60075  23.084   6.859  18.915
59211W        W60076  24.366   3.762  18.345
59212W        W60077  22.166   7.022  20.086
59213W        W60078  24.363   4.780  21.721
59214W        W60079  22.346   4.310  21.720
59215W        W60080  22.077   4.910  19.053
59216W        W60081  22.768   4.899  18.778
59217W        W60082  24.531   5.226  21.595
59218W        W60083  22.874   5.507  20.304
59219W        W60084  24.348   3.793  19.424
59220W        W60085  23.479   7.224  19.927
59221W        W60086  24.693   6.686  20.864
59222W        W60087  24.277   6.835  19.975
59223W        W60088  24.296   5.815  19.569
59224W        W60089  23.758   4.040  18.640
59225W        W60090  25.439   3.668  19.362
59226W        W60091  23.127   5.303  18.525
59227W        W60092  25.293   4.640  19.515
59228W        W60093  23.985   5.810  18.392
59229W        W60094  24.921   6.010  21.140
59230W        W60095  24.575   6.711  18.607
59231W        W60096  23.190   4.386  21.513
59232W        W60097  23.010   4.970  20.754
59233W        W60098  25.102   6.465  21.031
59234W        W60099  24.202   4.415  21.408
59235W        W60100  22.046   4.886  21.185
59236W        W60101  23.806   5.363  20.911
59237W        W60102  22.163   6.121  19.568
59238W        W60103  22.310   5.418  20.458
59239W        W60104  24.627   5.704  20.808
59240W        W60105  24.399   7.084  21.619
59241W        W60106  24.295   4.823  21.172
59242W        W60107  24.572   6.877  19.577
59243W        W60108  23.574   6.597  20.900
59244W        W60109  23.059   6.952  20.169
59245W        W60110  24.864   6.123  20.588
59246W        W60111  23.914   6.195  21.725
59247W        W60112  22.519   6.148  20.064
59248W        W60113  24.865   5.907  19.709
59249W        W60114  24.506   6.973  20.460
59250W        W60115  22.484   6.702  20.330
59251W        W60116  23.505   4.754  21.540
59252W        W60117  23.956   6.920  19.051
59253W        W60118  23.264   6.175  21.689
59254W        W60119  23.390   6.413  19.066
59255W        W60120  22.611   5.153  18.325
59256W        W60121  21.950   7.239  25.225
59257W        W60122  22.326   6.132  24.748
59258W        W60123  25.031   5.862  22.518
59259W        W60124  25.161   6.947  24.545
59260W        W60125  23.079   6.938  22.071
59261W        W60126  23.162   5.090  23.054
59262W        W60127  22.677   4.938  23.218
59263W        W60128  23.668   5.753  22.652
59264W        W60129  23.343   6.845  25.007
59265W        W60130  21.992   4.406  24.970
59266W        W60131  22.754   3.686  24.772
59267W        W60132  24.448   4.074  23.659
59268W        W60133  24.097   4.945  22.229
59269W        W60134  24.667   4.379  25.320
59270W        W60135  22.033   4.171  24.445
59271W        W60136  22.132   6.790  25.466
59272W        W60137  23.654   6.180  22.198
59273W        W60138  22.086   4.963  23.891
59274W        W60139  22.979   4.854  25.128
59275W        W60140  25.438   4.713  23.627
59276W        W60141  25.202   5.756  24.486
59277W        W60142  23.510   5.089  23.513
59278W        W60143  24.056   6.428  23.882
59279W        W60144  22.556   5.862  24.114
59280W        W60145  21.915   5.390  23.685
59281W        W60146  22.951   5.362  24.877
59282W        W60147  25.222   5.145  25.131
59283W        W60148  22.838   6.589  23.576
59284W        W60149  23.959   6.278  24.710
59285W        W60150  23.179   4.918  23.935
59286W        W60151  23.471   5.702  23.578
59287W        W60152  24.468   6.475  25.426
59288W        W60153  23.547   5.795  25.436
59289W        W60154  23.528   5.511  24.914
59290W        W60155  21.937   4.902  25.436
59291W        W60156  24.769   6.437  25.035
59292W        W60157  22.350   4.019  23.033
59293W        W60158  22.877   6.277  24.032
59294W        W60159  25.340   6.060  23.322
59295W        W60160  24.753   4.460  23.889
59296W        W60161  25.038   4.413  21.984
59297W        W60162  25.503   5.214  24.290
59298W        W60163  23.470   6.921  24.043
59299W        W60164  25.244   6.387  22.481
59300W        W60165  22.373   7.173  22.235
59301W        W60166  22.766   7.219  22.911
59302W        W60167  22.563   3.973  24.337
59303W        W60168  25.186   4.991  24.612
59304W        W60169  24.591   5.413  23.071
59305W        W60170  24.557   5.101  22.098
59306W        W60171  23.765   6.245  24.238
59307W        W60172  23.571   4.575  23.437
59308W        W60173  24.171   6.662  24.431
59309W        W60174  25.042   5.453  22.853
59310W        W60175  23.944   4.111  22.869
59311W        W60176  22.601   6.805  22.552
59312W        W60177  21.972   4.304  23.151
59313W        W60178  24.758   4.911  23.625
59314W        W60179  22.216   6.528  23.540
59315W        W60180  23.557   6.878  22.410
59316W        W60181  24.949   4.904  21.874
59317W        W60182  21.972   6.662  24.038
59318W        W60183  22.763   6.234  24.518
59319W        W60184  23.136   5.594  23.137
59320W        W60185  23.158   3.999  24.230
59321W        W60186  25.387   3.761  23.527
59322W        W60187  22.606   5.633  21.995
59323W        W60188  22.261   4.666  22.174
59324W        W60189  22.323   6.622  22.968
59325W        W60190  23.454   6.105  23.216
59326W        W60191  24.786   6.964  24.930
59327W        W60192  23.712   4.606  22.614
59328W        W60193  25.095   7.004  23.386
59329W        W60194  24.772   4.857  24.984
59330W        W60195  25.485   6.513  23.118
59331W        W60196  24.112   5.805  24.602
59332W        W60197  21.878   5.356  22.808
59333W        W60198  22.989   5.771  24.381
59334W        W60199  24.193   5.035  22.759
59335W        W60200  24.070   5.525  22.863
59336W        W60201  22.413   4.945  24.337
59337W        W60202  22.398   4.821  25.259
59338W        W60203  22.288   3.738  23.418
59339W        W60204  24.056   4.085  23.979
59340W        W60205  23.704   4.270  25.142
59341W        W60206  24.059   4.419  22.320
59342W        W60207  25.242   6.812  25.074
59343W        W60208  24.209   3.893  25.113
59344W        W60209  25.228   6.194  25.235
59345W        W60210  24.658   4.361  24.831
59346W        W60211  24.458   4.299  23.101
59347W        W60212  24.851   5.433  25.505
59348W        W60213  22.591   7.009  23.491
59349W        W60214  23.249   4.726  22.477
59350W        W60215  22.818   4.010  25.141
59351W        W60216  24.870   4.494  22.822
59352W        W60217  25.237   4.976  22.767
59353W        W60218  22.980   7.193  25.238
59354W        W60219  22.906   3.729  22.473
59355W        W60220  25.227   4.263  23.508
59356W        W60221  25.377   6.512  21.953
59357W        W60222  22.284   5.715  23.655
59358W        W60223  24.201   4.302  21.885
59359W        W60224  25.335   6.634  23.605
59360W        W60225  25.374   3.828  24.355
59361W        W60226  23.819   5.040  24.909
59362W        W60227  23.912   6.379  22.612
59363W        W60228  24.312   5.673  25.352
59364W        W60229  23.986   3.650  23.661
59365W        W60230  22.598   4.553  23.724
59366W        W60231  22.152   5.753  24.498
59367W        W60232  24.011   6.946  23.204
59368W        W60233  25.205   4.543  24.076
59369W        W60234  23.842   6.890  24.843
59370W        W60235  25.185   5.949  22.048
59371W        W60236  23.620   5.432  23.109
59372W        W60237  25.472   3.943  24.850
59373W        W60238  23.621   5.778  24.444
59374W        W60239  23.838   4.664  23.889
59375W        W60240  24.690   4.962  22.727
59376W        W60241  24.977   4.695  22.369
59377W        W60242  24.786   6.735  22.758
59378W        W60243  24.620   6.338  23.554
59379W        W60244  24.516   5.417  22.532
59380W        W60245  23.949   5.627  23.518
59381W        W60246  24.830   5.415  23.585
59382W        W60247  22.205   4.430  24.009
59383W        W60248  24.983   5.482  24.836
59384W        W60249  25.334   7.100  23.982
59385W        W60250  23.264   6.544  23.384
59386W        W60251  24.271   7.077  24.708
59387W        W60252  24.265   4.407  24.472
59388W        W60253  23.472   7.115  24.533
59389W        W60254  25.169   4.069  22.999
59390W        W60255  24.960   5.388  24.300
59391W        W60256  21.943   4.709  24.338
59392W        W60257  24.803   4.504  23.356
59393W        W60258  25.214   4.655  25.133
59394W        W60259  24.099   6.354  23.351
59395W        W60260  23.355   6.945  22.964
59396W        W60261  22.470   4.125  22.222
59397W        W60262  23.574   3.779  24.032
59398W        W60263  22.602   6.899  21.880
59399W        W60264  22.976   5.365  22.631
59400W        W60265  23.630   5.994  24.944
59401W        W60266  23.460   4.352  22.934
59402W        W60267  24.816   3.949  23.362
59403W        W60268  24.536   7.231  23.690
59404W        W60269  23.948   6.879  24.030
59405W        W60270  23.344   5.916  23.991
59406W        W60271  25.114   6.639  24.117
59407W        W60272  22.808   4.142  22.886
59408W        W60273  23.330   6.439  23.846
59409W        W60274  22.813   4.370  21.911
59410W        W60275  23.614   4.979  24.305
59411W        W60276  24.462   3.845  24.175
59412W        W60277  21.882   5.688  24.060
59413W        W60278  23.586   5.506  22.218
59414W        W60279  22.854   3.821  21.988
59415W        W60280  23.592   4.902  23.039
59416W        W60281  24.562   3.878  24.738
59417W        W60282  23.150   5.890  24.847
59418W        W60283  23.954   5.672  25.064
59419W        W60284  24.571   5.702  24.957
59420W        W60285  23.855   3.842  25.462
59421W        W60286  23.077   4.458  23.855
59422W        W60287  22.503   4.414  23.253
59423W        W60288  22.289   7.126  22.929
59424W        W60289  23.621   6.456  25.054
59425W        W60290  22.656   5.941  22.413
59426W        W60291  24.336   5.326  23.634
59427W        W60292  24.616   5.125  24.033
59428W        W60293  23.821   5.799  23.967
59429W        W60294  24.291   6.173  22.099
59430W        W60295  23.963   4.194  23.427
59431W        W60296  25.442   4.472  22.695
59432W        W60297  21.936   7.061  24.726
59433W        W60298  22.353   6.287  24.258
59434W        W60299  21.920   7.133  22.490
59435W        W60300  23.819   4.403  24.296
59436W        W60301  23.182   6.426  22.145
59437W        W60302  25.087   6.808  22.331
59438W        W60303  24.062   5.461  22.345
59439W        W60304  22.905   4.652  22.862
59440W        W60305  23.737   4.562  21.914
59441W        W60306  24.321   6.127  25.092
59442W        W60307  24.674   4.033  22.709
59443W        W60308  22.004   3.881  22.157
59444W        W60309  23.290   6.200  24.447
59445W        W60310  23.089   6.116  23.539
59446W        W60311  22.831   6.068  21.937
59447W        W60312  22.072   6.309  22.705
59448W        W60313  22.576   5.379  25.147
59449W        W60314  23.280   3.939  25.333
59450W        W60315  23.989   4.081  24.689
59451W        W60316  23.184   3.849  22.970
59452W        W60317  24.243   3.926  22.475
59453W        W60318  22.188   3.858  24.052
59454W        W60319  22.236   4.821  23.422
59455W        W60320  24.925   3.929  23.828
59456W        W60321  22.347   4.427  22.642
59457W        W60322  24.918   4.115  24.258
59458W        W60323  25.314   5.318  21.943
59459W        W60324  22.606   4.076  23.762
59460W        W60325  23.720   4.648  24.702
59461W        W60326  21.868   4.338  22.180
59462W        W60327  22.654   5.727  24.741
59463W        W60328  24.012   5.125  23.920
59464W        W60329  23.879   7.204  22.216
59465W        W60330  22.025   5.711  21.913
59466W        W60331  22.760   6.122  25.039
59467W        W60332  22.281   5.289  24.670
59468W        W60333  23.272   5.394  24.464
59469W        W60334  25.040   3.753  24.726
59470W        W60335  25.438   5.363  24.717
59471W        W60336  25.426   5.563  22.403
59472W        W60337  24.289   5.895  22.502
59473W        W60338  24.763   7.195  22.197
59474W        W60339  23.940   5.185  25.339
59475W        W60340  22.270   6.152  25.379
59476W        W60341  25.476   4.074  25.331
59477W        W60342  25.194   5.002  23.952
59478W        W60343  23.502   7.132  25.429
59479W        W60344  23.357   3.761  22.156
59480W        W60345  24.896   6.360  22.099
59481W        W60346  22.665   4.453  24.985
59482W        W60347  23.099   6.447  24.847
59483W        W60348  25.225   4.438  24.645
59484W        W60349  24.436   7.097  22.613
59485W        W60350  24.675   5.716  23.980
59486W        W60351  22.925   4.132  24.647
59487W        W60352  23.394   5.201  25.404
59488W        W60353  22.897   6.380  22.598
59489W        W60354  24.652   5.878  22.862
59490W        W60355  22.420   4.504  24.586
59491W        W60356  23.749   6.566  23.050
59492W        W60357  25.499   5.126  23.231
59493W        W60358  23.721   3.759  24.950
59494W        W60359  24.501   6.464  24.029
59495W        W60360  24.804   6.808  23.737
59496W        W60361  24.023   6.610  22.165
59497W        W60362  22.033   6.502  25.007
59498W        W60363  22.776   4.494  24.245
59499W        W60364  22.746   3.842  23.355
59500W        W60365  24.367   4.684  24.047
59501W        W60366  23.165   5.855  22.247
59502W        W60367  25.163   5.797  23.746
59503W        W60368  22.490   6.555  25.169
59504W        W60369  24.877   7.237  22.966
59505W        W60370  22.976   4.257  23.411
59506W        W60371  22.745   5.750  23.501
59507W        W60372  23.058   7.161  24.251
59508W        W60373  25.125   7.257  25.283
59509W        W60374  24.284   5.445  24.216
59510W        W60375  22.133   5.243  22.131
59511W        W60376  25.267   6.901  22.828
59512W        W60377  25.104   4.225  22.447
59513W        W60378  23.243   3.744  24.850
59514W        W60379  24.949   6.546  23.308
59515W        W60380  24.978   5.102  23.213
59516W        W60381  23.095   4.775  23.429
59517W        W60382  23.340   5.037  24.753
59518W        W60383  23.101   4.644  24.728
59519W        W60384  23.080   7.110  23.344
59520W        W60385  22.397   7.069  24.978
59521W        W60386  22.509   6.430  22.108
59522W        W60387  25.026   6.188  22.918
59523W        W60388  22.630   4.980  24.804
59524W        W60389  25.403   4.910  22.285
59525W        W60390  23.148   5.967  22.756
59526W        W60391  24.247   5.349  24.837
59527W        W60392  24.138   4.977  24.381
59528W        W60393  22.698   5.349  24.410
59529W        W60394  24.908   7.237  24.239
59530W        W60395  24.699   3.871  25.233
59531W        W60396  22.363   4.021  24.820
59532W        W60397  22.702   5.044  23.873
59533W        W60398  23.071   4.858  21.995
59534W        W60399  21.874   6.617  24.540
59535W        W60400  23.459   5.326  23.983
59536W        W60401  23.282   4.351  22.088
59537W        W60402  22.417   5.167  22.869
59538W        W60403  22.188   7.019  24.306
59539W        W60404  24.983   5.245  22.414
59540W        W60405  25.078   4.161  25.100
59541W        W60406  24.514   6.370  23.063
59542W        W60407  22.112   5.294  25.240
59543W        W60408  25.078   3.758  22.536
59544W        W60409  24.598   6.233  22.547
59545W        W60410  23.500   5.291  22.632
59546W        W60411  24.687   4.095  22.155
59547W        W60412  24.752   4.702  24.341
59548W        W60413  22.461   5.295  23.548
59549W        W60414  22.755   6.234  23.197
59550W        W60415  24.518   4.854  23.162
59551W        W60416  23.541   4.233  23.858
59552W        W60417  25.503   6.144  24.369
59553W        W60418  25.421   4.131  23.930
59554W        W60419  21.960   6.961  23.306
59555W        W60420  22.469   6.148  22.842
59556W        W60421  22.384   3.765  25.395
59557W        W60422  23.503   6.618  25.497
59558W        W60423  25.258   5.586  23.287
59559W        W60424  24.612   5.763  22.167
59560W        W60425  23.907   7.284  24.379
59561W        W60426  24.764   6.006  25.416
59562W        W60427  23.579   3.716  22.696
59563W        W60428  24.292   4.585  23.555
59564W        W60429  21.978   6.172  23.887
59565W        W60430  23.231   4.134  22.528
59566W        W60431  23.035   5.618  25.377
59567W        W60432  24.029   4.599  23.091
59568W        W60433  24.234   6.009  24.213
59569W        W60434  22.388   6.614  24.648
59570W        W60435  22.979   6.597  25.371
59571W        W60436  22.830   4.394  22.385
59572W        W60437  24.347   4.536  22.710
59573W        W60438  24.305   6.644  24.947
59574W        W60439  22.990   5.236  23.546
59575W        W60440  22.645   6.934  24.411
59576W        W60441  25.390   7.051  22.012
59577W        W60442  22.253   5.723  25.008
59578W        W60443  24.248   5.985  23.696
59579W        W60444  22.684   5.634  22.938
59580W        W60445  23.055   6.641  24.333
59581W        W60446  23.433   4.060  23.374
59582W        W60447  22.044   6.044  22.304
59583W        W60448  23.563   4.995  22.174
59584W        W60449  22.209   5.544  23.193
59585W        W60450  23.499   4.186  24.657
59586W        W60451  25.171   3.895  22.084
59587W        W60452  25.264   5.641  25.183
59588W        W60453  23.918   6.898  25.335
59589W        W60454  25.476   5.992  24.857
59590W        W60455  24.884   6.790  25.468
59591W        W60456  22.623   7.246  23.946
59592W        W60457  25.482   5.868  22.820
59593W        W60458  24.012   5.135  23.333
59594W        W60459  23.779   3.747  23.223
59595W        W60460  22.838   6.731  23.060
59596W        W60461  23.337   4.472  24.285
59597W        W60462  23.037   3.841  23.754
59598W        W60463  22.100   6.663  22.302
59599W        W60464  23.916   6.027  23.020
59600W        W60465  22.791   6.822  24.899
59601W        W60466  22.268   5.645  22.595
59602W        W60467  22.153   4.188  23.594
59603W        W60468  23.701   6.153  23.651
59604W        W60469  21.953   4.007  22.671
59605W        W60470  24.617   5.213  24.598
59606W        W60471  24.494   4.599  22.170
59607W        W60472  25.011   6.271  23.818
59608W        W60473  23.672   6.755  23.649
59609W        W60474  23.084   6.859  22.560
59610W        W60475  24.366   3.762  21.990
59611W        W60476  22.166   7.022  23.731
59612W        W60477  24.363   4.780  25.366
59613W        W60478  22.346   4.310  25.365
59614W        W60479  22.077   4.910  22.698
59615W        W60480  22.768   4.899  22.423
59616W        W60481  24.531   5.226  25.240
59617W        W60482  22.874   5.507  23.949
59618W        W60483  24.348   3.793  23.069
59619W        W60484  23.479   7.224  23.572
59620W        W60485  24.693   6.686  24.509
59621W        W60486  24.277   6.835  23.620
59622W        W60487  24.296   5.815  23.214
59623W        W60488  23.758   4.040  22.285
59624W        W60489  25.439   3.668  23.007
59625W        W60490  23.127   5.303  22.170
59626W        W60491  25.293   4.640  23.160
59627W        W60492  23.985   5.810  22.037
59628W        W60493  24.575   6.711  22.252
59629W        W60494  23.190   4.386  25.158
59630W        W60495  23.010   4.970  24.399
59631W        W60496  25.102   6.465  24.676
59632W        W60497  24.202   4.415  25.053
59633W        W60498  22.046   4.886  24.830
59634W        W60499  23.806   5.363  24.556
59635W        W60500  22.163   6.121  23.213
59636W        W60501  22.310   5.418  24.103
59637W        W60502  24.627   5.704  24.453
59638W        W60503  24.399   7.084  25.264
59639W        W60504  24.295   4.823  24.817
59640W        W60505  24.572   6.877  23.222
59641W        W60506  23.574   6.597  24.545
59642W        W60507  23.059   6.952  23.814
59643W        W60508  24.864   6.123  24.233
59644W        W60509  23.914   6.195  25.370
59645W        W60510  22.519   6.148  23.709
59646W        W60511  24.865   5.907  23.354
59647W        W60512  24.506   6.973  24.105
59648W        W60513  22.484   6.702  23.975
59649W        W60514  23.505   4.754  25.185
59650W        W60515  23.956   6.920  22.696
59651W        W60516  23.264   6.175  25.334
59652W        W60517  23.390   6.413  22.711
59653W        W60518  22.611   5.153  21.970
59654W        W60519  21.950   7.239  28.869
59655W        W60520  22.326   6.132  28.392
59656W        W60521  25.031   5.862  26.162
59657W        W60522  25.161   6.947  28.189
59658W        W60523  23.079   6.938  25.715
59659W        W60524  23.162   5.090  26.698
59660W        W60525  22.677   4.938  26.862
59661W        W60526  23.668   5.753  26.296
59662W        W60527  23.343   6.845  28.651
59663W        W60528  21.992   4.406  28.614
59664W        W60529  22.754   3.686  28.416
59665W        W60530  24.448   4.074  27.303
59666W        W60531  24.097   4.945  25.873
59667W        W60532  24.667   4.379  28.964
59668W        W60533  22.033   4.171  28.089
59669W        W60534  22.132   6.790  29.110
59670W        W60535  23.654   6.180  25.842
59671W        W60536  22.086   4.963  27.535
59672W        W60537  22.979   4.854  28.772
59673W        W60538  25.438   4.713  27.271
59674W        W60539  25.202   5.756  28.130
59675W        W60540  23.510   5.089  27.157
59676W        W60541  24.056   6.428  27.526
59677W        W60542  22.556   5.862  27.758
59678W        W60543  21.915   5.390  27.329
59679W        W60544  22.951   5.362  28.521
59680W        W60545  25.222   5.145  28.775
59681W        W60546  22.838   6.589  27.220
59682W        W60547  23.959   6.278  28.354
59683W        W60548  23.179   4.918  27.579
59684W        W60549  23.471   5.702  27.222
59685W        W60550  24.468   6.475  29.070
59686W        W60551  23.547   5.795  29.080
59687W        W60552  23.528   5.511  28.558
59688W        W60553  21.937   4.902  29.080
59689W        W60554  24.769   6.437  28.679
59690W        W60555  22.350   4.019  26.677
59691W        W60556  22.877   6.277  27.676
59692W        W60557  25.340   6.060  26.966
59693W        W60558  24.753   4.460  27.533
59694W        W60559  25.038   4.413  25.628
59695W        W60560  25.503   5.214  27.934
59696W        W60561  23.470   6.921  27.687
59697W        W60562  25.244   6.387  26.125
59698W        W60563  22.373   7.173  25.879
59699W        W60564  22.766   7.219  26.555
59700W        W60565  22.563   3.973  27.981
59701W        W60566  25.186   4.991  28.256
59702W        W60567  24.591   5.413  26.715
59703W        W60568  24.557   5.101  25.742
59704W        W60569  23.765   6.245  27.882
59705W        W60570  23.571   4.575  27.081
59706W        W60571  24.171   6.662  28.075
59707W        W60572  25.042   5.453  26.497
59708W        W60573  23.944   4.111  26.513
59709W        W60574  22.601   6.805  26.196
59710W        W60575  21.972   4.304  26.795
59711W        W60576  24.758   4.911  27.269
59712W        W60577  22.216   6.528  27.184
59713W        W60578  23.557   6.878  26.054
59714W        W60579  24.949   4.904  25.518
59715W        W60580  21.972   6.662  27.682
59716W        W60581  22.763   6.234  28.162
59717W        W60582  23.136   5.594  26.781
59718W        W60583  23.158   3.999  27.874
59719W        W60584  25.387   3.761  27.171
59720W        W60585  22.606   5.633  25.639
59721W        W60586  22.261   4.666  25.818
59722W        W60587  22.323   6.622  26.612
59723W        W60588  23.454   6.105  26.860
59724W        W60589  24.786   6.964  28.574
59725W        W60590  23.712   4.606  26.258
59726W        W60591  25.095   7.004  27.030
59727W        W60592  24.772   4.857  28.628
59728W        W60593  25.485   6.513  26.762
59729W        W60594  24.112   5.805  28.246
59730W        W60595  21.878   5.356  26.452
59731W        W60596  22.989   5.771  28.025
59732W        W60597  24.193   5.035  26.403
59733W        W60598  24.070   5.525  26.507
59734W        W60599  22.413   4.945  27.981
59735W        W60600  22.398   4.821  28.903
59736W        W60601  22.288   3.738  27.062
59737W        W60602  24.056   4.085  27.623
59738W        W60603  23.704   4.270  28.786
59739W        W60604  24.059   4.419  25.964
59740W        W60605  25.242   6.812  28.718
59741W        W60606  24.209   3.893  28.757
59742W        W60607  25.228   6.194  28.879
59743W        W60608  24.658   4.361  28.475
59744W        W60609  24.458   4.299  26.745
59745W        W60610  24.851   5.433  29.149
59746W        W60611  22.591   7.009  27.135
59747W        W60612  23.249   4.726  26.121
59748W        W60613  22.818   4.010  28.785
59749W        W60614  24.870   4.494  26.466
59750W        W60615  25.237   4.976  26.411
59751W        W60616  22.980   7.193  28.882
59752W        W60617  22.906   3.729  26.117
59753W        W60618  25.227   4.263  27.152
59754W        W60619  25.377   6.512  25.597
59755W        W60620  22.284   5.715  27.299
59756W        W60621  24.201   4.302  25.529
59757W        W60622  25.335   6.634  27.249
59758W        W60623  25.374   3.828  27.999
59759W        W60624  23.819   5.040  28.553
59760W        W60625  23.912   6.379  26.256
59761W        W60626  24.312   5.673  28.996
59762W        W60627  23.986   3.650  27.305
59763W        W60628  22.598   4.553  27.368
59764W        W60629  22.152   5.753  28.142
59765W        W60630  24.011   6.946  26.848
59766W        W60631  25.205   4.543  27.720
59767W        W60632  23.842   6.890  28.487
59768W        W60633  25.185   5.949  25.692
59769W        W60634  23.620   5.432  26.753
59770W        W60635  25.472   3.943  28.494
59771W        W60636  23.621   5.778  28.088
59772W        W60637  23.838   4.664  27.533
59773W        W60638  24.690   4.962  26.371
59774W        W60639  24.977   4.695  26.013
59775W        W60640  24.786   6.735  26.402
59776W        W60641  24.620   6.338  27.198
59777W        W60642  24.516   5.417  26.176
59778W        W60643  23.949   5.627  27.162
59779W        W60644  24.830   5.415  27.229
59780W        W60645  22.205   4.430  27.653
59781W        W60646  24.983   5.482  28.480
59782W        W60647  25.334   7.100  27.626
59783W        W60648  23.264   6.544  27.028
59784W        W60649  24.271   7.077  28.352
59785W        W60650  24.265   4.407  28.116
59786W        W60651  23.472   7.115  28.177
59787W        W60652  25.169   4.069  26.643
59788W        W60653  24.960   5.388  27.944
59789W        W60654  21.943   4.709  27.982
59790W        W60655  24.803   4.504  27.000
59791W        W60656  25.214   4.655  28.777
59792W        W60657  24.099   6.354  26.995
59793W        W60658  23.355   6.945  26.608
59794W        W60659  22.470   4.125  25.866
59795W        W60660  23.574   3.779  27.676
59796W        W60661  22.602   6.899  25.524
59797W        W60662  22.976   5.365  26.275
59798W        W60663  23.630   5.994  28.588
59799W        W60664  23.460   4.352  26.578
59800W        W60665  24.816   3.949  27.006
59801W        W60666  24.536   7.231  27.334
59802W        W60667  23.948   6.879  27.674
59803W        W60668  23.344   5.916  27.635
59804W        W60669  25.114   6.639  27.761
59805W        W60670  22.808   4.142  26.530
59806W        W60671  23.330   6.439  27.490
59807W        W60672  22.813   4.370  25.555
59808W        W60673  23.614   4.979  27.949
59809W        W60674  24.462   3.845  27.819
59810W        W60675  21.882   5.688  27.704
59811W        W60676  23.586   5.506  25.862
59812W        W60677  22.854   3.821  25.632
59813W        W60678  23.592   4.902  26.683
59814W        W60679  24.562   3.878  28.382
59815W        W60680  23.150   5.890  28.491
59816W        W60681  23.954   5.672  28.708
59817W        W60682  24.571   5.702  28.601
59818W        W60683  23.855   3.842  29.106
59819W        W60684  23.077   4.458  27.499
59820W        W60685  22.503   4.414  26.897
59821W        W60686  22.289   7.126  26.573
59822W        W60687  23.621   6.456  28.698
59823W        W60688  22.656   5.941  26.057
59824W        W60689  24.336   5.326  27.278
59825W        W60690  24.616   5.125  27.677
59826W        W60691  23.821   5.799  27.611
59827W        W60692  24.291   6.173  25.743
59828W        W60693  23.963   4.194  27.071
59829W        W60694  25.442   4.472  26.339
59830W        W60695  21.936   7.061  28.370
59831W        W60696  22.353   6.287  27.902
59832W        W60697  21.920   7.133  26.134
59833W        W60698  23.819   4.403  27.940
59834W        W60699  23.182   6.426  25.789
59835W        W60700  25.087   6.808  25.975
59836W        W60701  24.062   5.461  25.989
59837W        W60702  22.905   4.652  26.506
59838W        W60703  23.737   4.562  25.558
59839W        W60704  24.321   6.127  28.736
59840W        W60705  24.674   4.033  26.353
59841W        W60706  22.004   3.881  25.801
59842W        W60707  23.290   6.200  28.091
59843W        W60708  23.089   6.116  27.183
59844W        W60709  22.831   6.068  25.581
59845W        W60710  22.072   6.309  26.349
59846W        W60711  22.576   5.379  28.791
59847W        W60712  23.280   3.939  28.977
59848W        W60713  23.989   4.081  28.333
59849W        W60714  23.184   3.849  26.614
59850W        W60715  24.243   3.926  26.119
59851W        W60716  22.188   3.858  27.696
59852W        W60717  22.236   4.821  27.066
59853W        W60718  24.925   3.929  27.472
59854W        W60719  22.347   4.427  26.286
59855W        W60720  24.918   4.115  27.902
59856W        W60721  25.314   5.318  25.587
59857W        W60722  22.606   4.076  27.406
59858W        W60723  23.720   4.648  28.346
59859W        W60724  21.868   4.338  25.824
59860W        W60725  22.654   5.727  28.385
59861W        W60726  24.012   5.125  27.564
59862W        W60727  23.879   7.204  25.860
59863W        W60728  22.025   5.711  25.557
59864W        W60729  22.760   6.122  28.683
59865W        W60730  22.281   5.289  28.314
59866W        W60731  23.272   5.394  28.108
59867W        W60732  25.040   3.753  28.370
59868W        W60733  25.438   5.363  28.361
59869W        W60734  25.426   5.563  26.047
59870W        W60735  24.289   5.895  26.146
59871W        W60736  24.763   7.195  25.841
59872W        W60737  23.940   5.185  28.983
59873W        W60738  22.270   6.152  29.023
59874W        W60739  25.476   4.074  28.975
59875W        W60740  25.194   5.002  27.596
59876W        W60741  23.502   7.132  29.073
59877W        W60742  23.357   3.761  25.800
59878W        W60743  24.896   6.360  25.743
59879W        W60744  22.665   4.453  28.629
59880W        W60745  23.099   6.447  28.491
59881W        W60746  25.225   4.438  28.289
59882W        W60747  24.436   7.097  26.257
59883W        W60748  24.675   5.716  27.624
59884W        W60749  22.925   4.132  28.291
59885W        W60750  23.394   5.201  29.048
59886W        W60751  22.897   6.380  26.242
59887W        W60752  24.652   5.878  26.506
59888W        W60753  22.420   4.504  28.230
59889W        W60754  23.749   6.566  26.694
59890W        W60755  25.499   5.126  26.875
59891W        W60756  23.721   3.759  28.594
59892W        W60757  24.501   6.464  27.673
59893W        W60758  24.804   6.808  27.381
59894W        W60759  24.023   6.610  25.809
59895W        W60760  22.033   6.502  28.651
59896W        W60761  22.776   4.494  27.889
59897W        W60762  22.746   3.842  26.999
59898W        W60763  24.367   4.684  27.691
59899W        W60764  23.165   5.855  25.891
59900W        W60765  25.163   5.797  27.390
59901W        W60766  22.490   6.555  28.813
59902W        W60767  24.877   7.237  26.610
59903W        W60768  22.976   4.257  27.055
59904W        W60769  22.745   5.750  27.145
59905W        W60770  23.058   7.161  27.895
59906W        W60771  25.125   7.257  28.927
59907W        W60772  24.284   5.445  27.860
59908W        W60773  22.133   5.243  25.775
59909W        W60774  25.267   6.901  26.472
59910W        W60775  25.104   4.225  26.091
59911W        W60776  23.243   3.744  28.494
59912W        W60777  24.949   6.546  26.952
59913W        W60778  24.978   5.102  26.857
59914W        W60779  23.095   4.775  27.073
59915W        W60780  23.340   5.037  28.397
59916W        W60781  24.451   6.190  28.260
59917W        W60782  23.101   4.644  28.372
59918W        W60783  23.080   7.110  26.988
59919W        W60784  22.397   7.069  28.622
59920W        W60785  22.509   6.430  25.752
59921W        W60786  25.026   6.188  26.562
59922W        W60787  22.630   4.980  28.448
59923W        W60788  25.403   4.910  25.929
59924W        W60789  23.148   5.967  26.400
59925W        W60790  24.247   5.349  28.481
59926W        W60791  24.138   4.977  28.025
59927W        W60792  22.698   5.349  28.054
59928W        W60793  24.908   7.237  27.883
59929W        W60794  24.699   3.871  28.877
59930W        W60795  22.363   4.021  28.464
59931W        W60796  22.702   5.044  27.517
59932W        W60797  23.071   4.858  25.639
59933W        W60798  21.874   6.617  28.184
59934W        W60799  23.459   5.326  27.627
59935W        W60800  23.282   4.351  25.732
59936W        W60801  22.417   5.167  26.513
59937W        W60802  22.188   7.019  27.950
59938W        W60803  24.983   5.245  26.058
59939W        W60804  25.078   4.161  28.744
59940W        W60805  24.514   6.370  26.707
59941W        W60806  22.112   5.294  28.884
59942W        W60807  25.078   3.758  26.180
59943W        W60808  24.598   6.233  26.191
59944W        W60809  23.500   5.291  26.276
59945W        W60810  24.687   4.095  25.799
59946W        W60811  24.752   4.702  27.985
59947W        W60812  22.461   5.295  27.192
59948W        W60813  22.755   6.234  26.841
59949W        W60814  24.518   4.854  26.806
59950W        W60815  23.541   4.233  27.502
59951W        W60816  25.503   6.144  28.013
59952W        W60817  25.421   4.131  27.574
59953W        W60818  21.960   6.961  26.950
59954W        W60819  22.469   6.148  26.486
59955W        W60820  22.384   3.765  29.039
59956W        W60821  23.503   6.618  29.141
59957W        W60822  25.258   5.586  26.931
59958W        W60823  24.612   5.763  25.811
59959W        W60824  23.907   7.284  28.023
59960W        W60825  24.764   6.006  29.060
59961W        W60826  23.579   3.716  26.340
59962W        W60827  24.292   4.585  27.199
59963W        W60828  21.978   6.172  27.531
59964W        W60829  23.231   4.134  26.172
59965W        W60830  23.035   5.618  29.021
59966W        W60831  24.029   4.599  26.735
59967W        W60832  24.234   6.009  27.857
59968W        W60833  22.388   6.614  28.292
59969W        W60834  22.979   6.597  29.015
59970W        W60835  22.830   4.394  26.029
59971W        W60836  24.347   4.536  26.354
59972W        W60837  24.305   6.644  28.591
59973W        W60838  22.990   5.236  27.190
59974W        W60839  22.645   6.934  28.055
59975W        W60840  25.390   7.051  25.656
59976W        W60841  22.253   5.723  28.652
59977W        W60842  24.248   5.985  27.340
59978W        W60843  22.684   5.634  26.582
59979W        W60844  23.055   6.641  27.977
59980W        W60845  23.433   4.060  27.018
59981W        W60846  22.044   6.044  25.948
59982W        W60847  23.563   4.995  25.818
59983W        W60848  22.209   5.544  26.837
59984W        W60849  23.499   4.186  28.301
59985W        W60850  25.171   3.895  25.728
59986W        W60851  25.264   5.641  28.827
59987W        W60852  23.918   6.898  28.979
59988W        W60853  25.476   5.992  28.501
59989W        W60854  24.884   6.790  29.112
59990W        W60855  22.623   7.246  27.590
59991W        W60856  25.482   5.868  26.464
59992W        W60857  24.012   5.135  26.977
59993W        W60858  23.779   3.747  26.867
59994W        W60859  22.838   6.731  26.704
59995W        W60860  23.337   4.472  27.929
59996W        W60861  23.037   3.841  27.398
59997W        W60862  22.100   6.663  25.946
59998W        W60863  23.916   6.027  26.664
59999W        W60864  22.791   6.822  28.543
60000W        W60865  22.268   5.645  26.239
60001W        W60866  22.153   4.188  27.238
60002W        W60867  23.701   6.153  27.295
60003W        W60868  21.953   4.007  26.315
60004W        W60869  24.617   5.213  28.242
60005W        W60870  24.494   4.599  25.814
60006W        W60871  25.011   6.271  27.462
60007W        W60872  23.672   6.755  27.293
60008W        W60873  23.084   6.859  26.204
60009W        W60874  24.366   3.762  25.634
60010W        W60875  22.166   7.022  27.375
60011W        W60876  24.363   4.780  29.010
60012W        W60877  22.346   4.310  29.009
60013W        W60878  22.077   4.910  26.342
60014W        W60879  22.768   4.899  26.067
60015W        W60880  24.531   5.226  28.884
60016W        W60881  22.874   5.507  27.593
60017W        W60882  24.348   3.793  26.713
60018W        W60883  23.479   7.224  27.216
60019W        W60884  24.693   6.686  28.153
60020W        W60885  24.277   6.835  27.264
60021W        W60886  24.296   5.815  26.858
60022W        W60887  23.758   4.040  25.929
60023W        W60888  25.439   3.668  26.651
60024W        W60889  23.127   5.303  25.814
60025W        W60890  25.293   4.640  26.804
60026W        W60891  23.985   5.810  25.681
60027W        W60892  24.921   6.010  28.429
60028W        W60893  24.575   6.711  25.896
60029W        W60894  23.190   4.386  28.802
60030W        W60895  23.010   4.970  28.043
60031W        W60896  25.102   6.465  28.320
60032W        W60897  24.202   4.415  28.697
60033W        W60898  22.046   4.886  28.474
60034W        W60899  23.806   5.363  28.200
60035W        W60900  22.163   6.121  26.857
60036W        W60901  22.310   5.418  27.747
60037W        W60902  24.627   5.704  28.097
60038W        W60903  24.399   7.084  28.908
60039W        W60904  24.295   4.823  28.461
60040W        W60905  24.572   6.877  26.866
60041W        W60906  23.574   6.597  28.189
60042W        W60907  23.059   6.952  27.458
60043W        W60908  24.864   6.123  27.877
60044W        W60909  23.914   6.195  29.014
60045W        W60910  22.519   6.148  27.353
60046W        W60911  24.865   5.907  26.998
60047W        W60912  24.506   6.973  27.749
60048W        W60913  22.484   6.702  27.619
60049W        W60914  23.505   4.754  28.829
60050W        W60915  23.956   6.920  26.340
60051W        W60916  23.264   6.175  28.978
60052W        W60917  23.390   6.413  26.355
60053W        W60918  22.611   5.153  25.614
60054W        W60919  21.950  10.884   3.359
60055W        W60920  22.326   9.777   2.882
60056W        W60921  25.031   9.507   0.652
60057W        W60922  25.161  10.592   2.679
60058W        W60923  23.079  10.583   0.205
60059W        W60924  23.162   8.735   1.188
60060W        W60925  22.677   8.583   1.352
60061W        W60926  23.668   9.398   0.786
60062W        W60927  23.343  10.490   3.141
60063W        W60928  21.992   8.051   3.104
60064W        W60929  22.754   7.331   2.906
60065W        W60930  24.448   7.719   1.793
60066W        W60931  24.097   8.590   0.363
60067W        W60932  24.667   8.024   3.454
60068W        W60933  22.033   7.816   2.579
60069W        W60934  22.132  10.435   3.600
60070W        W60935  23.654   9.825   0.332
60071W        W60936  22.086   8.608   2.025
60072W        W60937  22.979   8.499   3.262
60073W        W60938  25.438   8.358   1.761
60074W        W60939  25.202   9.401   2.620
60075W        W60940  23.510   8.734   1.647
60076W        W60941  24.056  10.073   2.016
60077W        W60942  22.556   9.507   2.248
60078W        W60943  21.915   9.035   1.819
60079W        W60944  22.951   9.007   3.011
60080W        W60945  25.222   8.790   3.265
60081W        W60946  22.838  10.234   1.710
60082W        W60947  23.959   9.923   2.844
60083W        W60948  23.179   8.563   2.069
60084W        W60949  23.471   9.347   1.712
60085W        W60950  24.468  10.120   3.560
60086W        W60951  23.547   9.440   3.570
60087W        W60952  23.528   9.156   3.048
60088W        W60953  21.937   8.547   3.570
60089W        W60954  24.769  10.082   3.169
60090W        W60955  22.350   7.664   1.167
60091W        W60956  22.877   9.922   2.166
60092W        W60957  25.340   9.705   1.456
60093W        W60958  24.753   8.105   2.023
60094W        W60959  25.038   8.058   0.118
60095W        W60960  25.503   8.859   2.424
60096W        W60961  23.470  10.566   2.177
60097W        W60962  25.244  10.032   0.615
60098W        W60963  22.373  10.818   0.369
60099W        W60964  22.766  10.864   1.045
60100W        W60965  22.563   7.618   2.471
60101W        W60966  25.186   8.636   2.746
60102W        W60967  24.591   9.058   1.205
60103W        W60968  24.557   8.746   0.232
60104W        W60969  23.765   9.890   2.372
60105W        W60970  23.571   8.220   1.571
60106W        W60971  24.171  10.307   2.565
60107W        W60972  25.042   9.098   0.987
60108W        W60973  23.944   7.756   1.003
60109W        W60974  22.601  10.450   0.686
60110W        W60975  21.972   7.949   1.285
60111W        W60976  24.758   8.556   1.759
60112W        W60977  22.216  10.173   1.674
60113W        W60978  23.557  10.523   0.544
60114W        W60979  24.949   8.549   0.008
60115W        W60980  21.972  10.307   2.172
60116W        W60981  22.763   9.879   2.652
60117W        W60982  23.136   9.239   1.271
60118W        W60983  23.158   7.644   2.364
60119W        W60984  25.387   7.406   1.661
60120W        W60985  22.606   9.278   0.129
60121W        W60986  22.261   8.311   0.308
60122W        W60987  22.323  10.267   1.102
60123W        W60988  23.454   9.750   1.350
60124W        W60989  24.786  10.609   3.064
60125W        W60990  23.712   8.251   0.748
60126W        W60991  25.095  10.649   1.520
60127W        W60992  24.772   8.502   3.118
60128W        W60993  25.485  10.158   1.252
60129W        W60994  24.112   9.450   2.736
60130W        W60995  21.878   9.001   0.942
60131W        W60996  22.989   9.416   2.515
60132W        W60997  24.193   8.680   0.893
60133W        W60998  24.070   9.170   0.997
60134W        W60999  22.413   8.590   2.471
60135W        W61000  22.398   8.466   3.393
60136W        W61001  22.288   7.383   1.552
60137W        W61002  24.056   7.730   2.113
60138W        W61003  23.704   7.915   3.276
60139W        W61004  24.059   8.064   0.454
60140W        W61005  25.242  10.457   3.208
60141W        W61006  24.209   7.538   3.247
60142W        W61007  25.228   9.839   3.369
60143W        W61008  24.658   8.006   2.965
60144W        W61009  24.458   7.944   1.235
60145W        W61010  24.851   9.078   3.639
60146W        W61011  22.591  10.654   1.625
60147W        W61012  23.249   8.371   0.611
60148W        W61013  22.818   7.655   3.275
60149W        W61014  24.870   8.139   0.956
60150W        W61015  25.237   8.621   0.901
60151W        W61016  22.980  10.838   3.372
60152W        W61017  22.906   7.374   0.607
60153W        W61018  25.227   7.908   1.642
60154W        W61019  25.377  10.157   0.087
60155W        W61020  22.284   9.360   1.789
60156W        W61021  24.201   7.947   0.019
60157W        W61022  25.335  10.279   1.739
60158W        W61023  25.374   7.473   2.489
60159W        W61024  23.819   8.685   3.043
60160W        W61025  23.912  10.024   0.746
60161W        W61026  24.312   9.318   3.486
60162W        W61027  23.986   7.295   1.795
60163W        W61028  22.598   8.198   1.858
60164W        W61029  22.152   9.398   2.632
60165W        W61030  24.011  10.591   1.338
60166W        W61031  25.205   8.188   2.210
60167W        W61032  23.842  10.535   2.977
60168W        W61033  25.185   9.594   0.182
60169W        W61034  23.620   9.077   1.243
60170W        W61035  25.472   7.588   2.984
60171W        W61036  23.621   9.423   2.578
60172W        W61037  23.838   8.309   2.023
60173W        W61038  24.690   8.607   0.861
60174W        W61039  24.977   8.340   0.503
60175W        W61040  24.786  10.380   0.892
60176W        W61041  24.620   9.983   1.688
60177W        W61042  24.516   9.062   0.666
60178W        W61043  23.949   9.272   1.652
60179W        W61044  24.830   9.060   1.719
60180W        W61045  22.205   8.075   2.143
60181W        W61046  24.983   9.127   2.970
60182W        W61047  25.334  10.745   2.116
60183W        W61048  23.264  10.189   1.518
60184W        W61049  24.271  10.722   2.842
60185W        W61050  24.265   8.052   2.606
60186W        W61051  23.472  10.760   2.667
60187W        W61052  25.169   7.714   1.133
60188W        W61053  24.960   9.033   2.434
60189W        W61054  21.943   8.354   2.472
60190W        W61055  24.803   8.149   1.490
60191W        W61056  25.214   8.300   3.267
60192W        W61057  24.099   9.999   1.485
60193W        W61058  23.355  10.590   1.098
60194W        W61059  22.470   7.770   0.356
60195W        W61060  23.574   7.424   2.166
60196W        W61061  22.602  10.544   0.014
60197W        W61062  22.976   9.010   0.765
60198W        W61063  23.630   9.639   3.078
60199W        W61064  23.460   7.997   1.068
60200W        W61065  24.816   7.594   1.496
60201W        W61066  24.536  10.876   1.824
60202W        W61067  23.948  10.524   2.164
60203W        W61068  23.344   9.561   2.125
60204W        W61069  25.114  10.284   2.251
60205W        W61070  22.808   7.787   1.020
60206W        W61071  22.813   8.015   0.045
60207W        W61072  23.614   8.624   2.439
60208W        W61073  24.462   7.490   2.309
60209W        W61074  21.882   9.333   2.194
60210W        W61075  23.586   9.151   0.352
60211W        W61076  22.854   7.466   0.122
60212W        W61077  23.592   8.547   1.173
60213W        W61078  24.562   7.523   2.872
60214W        W61079  23.150   9.535   2.981
60215W        W61080  23.954   9.317   3.198
60216W        W61081  24.571   9.347   3.091
60217W        W61082  23.855   7.487   3.596
60218W        W61083  23.077   8.103   1.989
60219W        W61084  22.503   8.059   1.387
60220W        W61085  22.289  10.771   1.063
60221W        W61086  23.621  10.101   3.188
60222W        W61087  22.656   9.586   0.547
60223W        W61088  24.336   8.971   1.768
60224W        W61089  24.616   8.770   2.167
60225W        W61090  23.821   9.444   2.101
60226W        W61091  24.291   9.818   0.233
60227W        W61092  23.963   7.839   1.561
60228W        W61093  25.442   8.117   0.829
60229W        W61094  21.936  10.706   2.860
60230W        W61095  22.353   9.932   2.392
60231W        W61096  21.920  10.778   0.624
60232W        W61097  23.819   8.048   2.430
60233W        W61098  23.182  10.071   0.279
60234W        W61099  25.087  10.453   0.465
60235W        W61100  24.062   9.106   0.479
60236W        W61101  22.905   8.297   0.996
60237W        W61102  23.737   8.207   0.048
60238W        W61103  24.321   9.772   3.226
60239W        W61104  24.674   7.678   0.843
60240W        W61105  22.004   7.526   0.291
60241W        W61106  23.290   9.845   2.581
60242W        W61107  23.089   9.761   1.673
60243W        W61108  22.831   9.713   0.071
60244W        W61109  22.072   9.954   0.839
60245W        W61110  22.576   9.024   3.281
60246W        W61111  23.280   7.584   3.467
60247W        W61112  23.989   7.726   2.823
60248W        W61113  23.184   7.494   1.104
60249W        W61114  24.243   7.571   0.609
60250W        W61115  22.188   7.503   2.186
60251W        W61116  22.236   8.466   1.556
60252W        W61117  24.925   7.574   1.962
60253W        W61118  22.347   8.072   0.776
60254W        W61119  24.918   7.760   2.392
60255W        W61120  25.314   8.963   0.077
60256W        W61121  22.606   7.721   1.896
60257W        W61122  23.720   8.293   2.836
60258W        W61123  21.868   7.983   0.314
60259W        W61124  22.654   9.372   2.875
60260W        W61125  24.012   8.770   2.054
60261W        W61126  23.879  10.849   0.350
60262W        W61127  22.025   9.356   0.047
60263W        W61128  22.760   9.767   3.173
60264W        W61129  22.281   8.934   2.804
60265W        W61130  23.272   9.039   2.598
60266W        W61131  25.040   7.398   2.860
60267W        W61132  25.438   9.008   2.851
60268W        W61133  25.426   9.208   0.537
60269W        W61134  24.289   9.540   0.636
60270W        W61135  24.763  10.840   0.331
60271W        W61136  23.940   8.830   3.473
60272W        W61137  22.270   9.797   3.513
60273W        W61138  25.476   7.719   3.465
60274W        W61139  25.194   8.647   2.086
60275W        W61140  23.502  10.777   3.563
60276W        W61141  23.357   7.406   0.290
60277W        W61142  24.896  10.005   0.233
60278W        W61143  22.665   8.098   3.119
60279W        W61144  23.099  10.092   2.981
60280W        W61145  25.225   8.083   2.779
60281W        W61146  24.436  10.742   0.747
60282W        W61147  24.675   9.361   2.114
60283W        W61148  22.925   7.777   2.781
60284W        W61149  23.394   8.846   3.538
60285W        W61150  22.897  10.025   0.732
60286W        W61151  24.652   9.523   0.996
60287W        W61152  22.420   8.149   2.720
60288W        W61153  23.749  10.211   1.184
60289W        W61154  25.499   8.771   1.365
60290W        W61155  23.721   7.404   3.084
60291W        W61156  24.501  10.109   2.163
60292W        W61157  24.804  10.453   1.871
60293W        W61158  24.023  10.255   0.299
60294W        W61159  22.033  10.147   3.141
60295W        W61160  22.776   8.139   2.379
60296W        W61161  22.746   7.487   1.489
60297W        W61162  24.367   8.329   2.181
60298W        W61163  23.165   9.500   0.381
60299W        W61164  25.163   9.442   1.880
60300W        W61165  22.490  10.200   3.303
60301W        W61166  24.877  10.882   1.100
60302W        W61167  22.976   7.902   1.545
60303W        W61168  22.745   9.395   1.635
60304W        W61169  23.058  10.806   2.385
60305W        W61170  25.125  10.902   3.417
60306W        W61171  24.284   9.090   2.350
60307W        W61172  22.133   8.888   0.265
60308W        W61173  25.267  10.546   0.962
60309W        W61174  25.104   7.870   0.581
60310W        W61175  23.243   7.389   2.984
60311W        W61176  24.949  10.191   1.442
60312W        W61177  24.978   8.747   1.347
60313W        W61178  23.095   8.420   1.563
60314W        W61179  23.340   8.682   2.887
60315W        W61180  24.451   9.835   2.750
60316W        W61181  23.101   8.289   2.862
60317W        W61182  23.080  10.755   1.478
60318W        W61183  22.397  10.714   3.112
60319W        W61184  22.509  10.075   0.242
60320W        W61185  25.026   9.833   1.052
60321W        W61186  22.630   8.625   2.938
60322W        W61187  25.403   8.555   0.419
60323W        W61188  23.148   9.612   0.890
60324W        W61189  24.247   8.994   2.971
60325W        W61190  24.138   8.622   2.515
60326W        W61191  22.698   8.994   2.544
60327W        W61192  24.908  10.882   2.373
60328W        W61193  24.699   7.516   3.367
60329W        W61194  22.363   7.666   2.954
60330W        W61195  22.702   8.689   2.007
60331W        W61196  23.071   8.503   0.129
60332W        W61197  21.874  10.262   2.674
60333W        W61198  23.459   8.971   2.117
60334W        W61199  23.282   7.996   0.222
60335W        W61200  22.417   8.812   1.003
60336W        W61201  22.188  10.664   2.440
60337W        W61202  24.983   8.890   0.548
60338W        W61203  25.078   7.806   3.234
60339W        W61204  24.514  10.015   1.197
60340W        W61205  22.112   8.939   3.374
60341W        W61206  25.078   7.403   0.670
60342W        W61207  24.598   9.878   0.681
60343W        W61208  23.500   8.936   0.766
60344W        W61209  24.687   7.740   0.289
60345W        W61210  24.752   8.347   2.475
60346W        W61211  22.461   8.940   1.682
60347W        W61212  22.755   9.879   1.331
60348W        W61213  24.518   8.499   1.296
60349W        W61214  23.541   7.878   1.992
60350W        W61215  25.503   9.789   2.503
60351W        W61216  25.421   7.776   2.064
60352W        W61217  21.960  10.606   1.440
60353W        W61218  22.469   9.793   0.976
60354W        W61219  22.384   7.410   3.529
60355W        W61220  23.503  10.263   3.631
60356W        W61221  25.258   9.231   1.421
60357W        W61222  24.612   9.408   0.301
60358W        W61223  23.907  10.929   2.513
60359W        W61224  24.764   9.651   3.550
60360W        W61225  23.579   7.361   0.830
60361W        W61226  24.292   8.230   1.689
60362W        W61227  21.978   9.817   2.021
60363W        W61228  23.231   7.779   0.662
60364W        W61229  23.035   9.263   3.511
60365W        W61230  24.029   8.244   1.225
60366W        W61231  24.234   9.654   2.347
60367W        W61232  22.388  10.259   2.782
60368W        W61233  22.979  10.242   3.505
60369W        W61234  22.830   8.039   0.519
60370W        W61235  24.347   8.181   0.844
60371W        W61236  24.305  10.289   3.081
60372W        W61237  22.990   8.881   1.680
60373W        W61238  22.645  10.579   2.545
60374W        W61239  25.390  10.696   0.146
60375W        W61240  22.253   9.368   3.142
60376W        W61241  24.248   9.630   1.830
60377W        W61242  22.684   9.279   1.072
60378W        W61243  23.055  10.286   2.467
60379W        W61244  23.433   7.705   1.508
60380W        W61245  22.044   9.689   0.438
60381W        W61246  23.563   8.640   0.308
60382W        W61247  22.209   9.189   1.327
60383W        W61248  23.499   7.831   2.791
60384W        W61249  25.171   7.540   0.218
60385W        W61250  25.264   9.286   3.317
60386W        W61251  23.918  10.543   3.469
60387W        W61252  25.476   9.637   2.991
60388W        W61253  24.884  10.435   3.602
60389W        W61254  22.623  10.891   2.080
60390W        W61255  25.482   9.513   0.954
60391W        W61256  24.012   8.780   1.467
60392W        W61257  23.779   7.392   1.357
60393W        W61258  22.838  10.376   1.194
60394W        W61259  23.337   8.117   2.419
60395W        W61260  23.037   7.486   1.888
60396W        W61261  22.100  10.308   0.436
60397W        W61262  23.916   9.672   1.154
60398W        W61263  22.791  10.467   3.033
60399W        W61264  22.268   9.290   0.729
60400W        W61265  22.153   7.833   1.728
60401W        W61266  23.701   9.798   1.785
60402W        W61267  21.953   7.652   0.805
60403W        W61268  24.617   8.858   2.732
60404W        W61269  24.494   8.244   0.304
60405W        W61270  25.011   9.916   1.952
60406W        W61271  23.672  10.400   1.783
60407W        W61272  23.084  10.504   0.694
60408W        W61273  24.366   7.407   0.124
60409W        W61274  22.166  10.667   1.865
60410W        W61275  24.363   8.425   3.500
60411W        W61276  22.346   7.955   3.499
60412W        W61277  22.077   8.555   0.832
60413W        W61278  22.768   8.544   0.557
60414W        W61279  24.531   8.871   3.374
60415W        W61280  22.874   9.152   2.083
60416W        W61281  24.348   7.438   1.203
60417W        W61282  23.479  10.869   1.706
60418W        W61283  24.693  10.331   2.643
60419W        W61284  24.277  10.480   1.754
60420W        W61285  24.296   9.460   1.348
60421W        W61286  23.758   7.685   0.419
60422W        W61287  25.439   7.313   1.141
60423W        W61288  23.127   8.948   0.304
60424W        W61289  25.293   8.285   1.294
60425W        W61290  23.985   9.455   0.171
60426W        W61291  24.921   9.655   2.919
60427W        W61292  24.575  10.356   0.386
60428W        W61293  23.190   8.031   3.292
60429W        W61294  23.010   8.615   2.533
60430W        W61295  25.102  10.110   2.810
60431W        W61296  24.202   8.060   3.187
60432W        W61297  22.046   8.531   2.964
60433W        W61298  23.806   9.008   2.690
60434W        W61299  22.163   9.766   1.347
60435W        W61300  22.310   9.063   2.237
60436W        W61301  24.627   9.349   2.587
60437W        W61302  24.399  10.729   3.398
60438W        W61303  24.295   8.468   2.951
60439W        W61304  24.572  10.522   1.356
60440W        W61305  23.574  10.242   2.679
60441W        W61306  23.059  10.597   1.948
60442W        W61307  24.864   9.768   2.367
60443W        W61308  23.914   9.840   3.504
60444W        W61309  22.519   9.793   1.843
60445W        W61310  24.865   9.552   1.488
60446W        W61311  24.506  10.618   2.239
60447W        W61312  22.484  10.347   2.109
60448W        W61313  23.505   8.399   3.319
60449W        W61314  23.956  10.565   0.830
60450W        W61315  23.264   9.820   3.468
60451W        W61316  23.390  10.058   0.845
60452W        W61317  22.611   8.798   0.104
60453W        W61318  21.950  10.884   7.003
60454W        W61319  22.326   9.777   6.526
60455W        W61320  25.031   9.507   4.296
60456W        W61321  25.161  10.592   6.323
60457W        W61322  23.079  10.583   3.849
60458W        W61323  23.162   8.735   4.832
60459W        W61324  22.677   8.583   4.996
60460W        W61325  23.668   9.398   4.430
60461W        W61326  23.343  10.490   6.785
60462W        W61327  21.992   8.051   6.748
60463W        W61328  22.754   7.331   6.550
60464W        W61329  24.448   7.719   5.437
60465W        W61330  24.097   8.590   4.007
60466W        W61331  24.667   8.024   7.098
60467W        W61332  22.033   7.816   6.223
60468W        W61333  22.132  10.435   7.244
60469W        W61334  23.654   9.825   3.976
60470W        W61335  22.086   8.608   5.669
60471W        W61336  22.979   8.499   6.906
60472W        W61337  25.438   8.358   5.405
60473W        W61338  25.202   9.401   6.264
60474W        W61339  23.510   8.734   5.291
60475W        W61340  24.056  10.073   5.660
60476W        W61341  22.556   9.507   5.892
60477W        W61342  21.915   9.035   5.463
60478W        W61343  22.951   9.007   6.655
60479W        W61344  25.222   8.790   6.909
60480W        W61345  22.838  10.234   5.354
60481W        W61346  23.959   9.923   6.488
60482W        W61347  23.179   8.563   5.713
60483W        W61348  23.471   9.347   5.356
60484W        W61349  24.468  10.120   7.204
60485W        W61350  23.547   9.440   7.214
60486W        W61351  23.528   9.156   6.692
60487W        W61352  21.937   8.547   7.214
60488W        W61353  24.769  10.082   6.813
60489W        W61354  22.350   7.664   4.811
60490W        W61355  22.877   9.922   5.810
60491W        W61356  25.340   9.705   5.100
60492W        W61357  24.753   8.105   5.667
60493W        W61358  25.038   8.058   3.762
60494W        W61359  25.503   8.859   6.068
60495W        W61360  23.470  10.566   5.821
60496W        W61361  25.244  10.032   4.259
60497W        W61362  22.373  10.818   4.013
60498W        W61363  22.766  10.864   4.689
60499W        W61364  22.563   7.618   6.115
60500W        W61365  25.186   8.636   6.390
60501W        W61366  24.591   9.058   4.849
60502W        W61367  24.557   8.746   3.876
60503W        W61368  23.765   9.890   6.016
60504W        W61369  23.571   8.220   5.215
60505W        W61370  24.171  10.307   6.209
60506W        W61371  25.042   9.098   4.631
60507W        W61372  23.944   7.756   4.647
60508W        W61373  22.601  10.450   4.330
60509W        W61374  21.972   7.949   4.929
60510W        W61375  24.758   8.556   5.403
60511W        W61376  22.216  10.173   5.318
60512W        W61377  23.557  10.523   4.188
60513W        W61378  24.949   8.549   3.652
60514W        W61379  21.972  10.307   5.816
60515W        W61380  22.763   9.879   6.296
60516W        W61381  23.136   9.239   4.915
60517W        W61382  23.158   7.644   6.008
60518W        W61383  25.387   7.406   5.305
60519W        W61384  22.606   9.278   3.773
60520W        W61385  22.261   8.311   3.952
60521W        W61386  22.323  10.267   4.746
60522W        W61387  23.454   9.750   4.994
60523W        W61388  24.786  10.609   6.708
60524W        W61389  23.712   8.251   4.392
60525W        W61390  25.095  10.649   5.164
60526W        W61391  24.772   8.502   6.762
60527W        W61392  25.485  10.158   4.896
60528W        W61393  24.112   9.450   6.380
60529W        W61394  21.878   9.001   4.586
60530W        W61395  22.989   9.416   6.159
60531W        W61396  24.193   8.680   4.537
60532W        W61397  24.070   9.170   4.641
60533W        W61398  22.413   8.590   6.115
60534W        W61399  22.398   8.466   7.037
60535W        W61400  22.288   7.383   5.196
60536W        W61401  24.056   7.730   5.757
60537W        W61402  23.704   7.915   6.920
60538W        W61403  24.059   8.064   4.098
60539W        W61404  25.242  10.457   6.852
60540W        W61405  24.209   7.538   6.891
60541W        W61406  25.228   9.839   7.013
60542W        W61407  24.658   8.006   6.609
60543W        W61408  24.458   7.944   4.879
60544W        W61409  24.851   9.078   7.283
60545W        W61410  22.591  10.654   5.269
60546W        W61411  23.249   8.371   4.255
60547W        W61412  22.818   7.655   6.919
60548W        W61413  24.870   8.139   4.600
60549W        W61414  25.237   8.621   4.545
60550W        W61415  22.980  10.838   7.016
60551W        W61416  22.906   7.374   4.251
60552W        W61417  25.227   7.908   5.286
60553W        W61418  25.377  10.157   3.731
60554W        W61419  22.284   9.360   5.433
60555W        W61420  24.201   7.947   3.663
60556W        W61421  25.335  10.279   5.383
60557W        W61422  25.374   7.473   6.133
60558W        W61423  23.819   8.685   6.687
60559W        W61424  23.912  10.024   4.390
60560W        W61425  24.312   9.318   7.130
60561W        W61426  23.986   7.295   5.439
60562W        W61427  22.598   8.198   5.502
60563W        W61428  22.152   9.398   6.276
60564W        W61429  24.011  10.591   4.982
60565W        W61430  25.205   8.188   5.854
60566W        W61431  23.842  10.535   6.621
60567W        W61432  25.185   9.594   3.826
60568W        W61433  23.620   9.077   4.887
60569W        W61434  25.472   7.588   6.628
60570W        W61435  23.621   9.423   6.222
60571W        W61436  23.838   8.309   5.667
60572W        W61437  24.690   8.607   4.505
60573W        W61438  24.977   8.340   4.147
60574W        W61439  24.786  10.380   4.536
60575W        W61440  24.620   9.983   5.332
60576W        W61441  24.516   9.062   4.310
60577W        W61442  23.949   9.272   5.296
60578W        W61443  24.830   9.060   5.363
60579W        W61444  22.205   8.075   5.787
60580W        W61445  24.983   9.127   6.614
60581W        W61446  25.334  10.745   5.760
60582W        W61447  23.264  10.189   5.162
60583W        W61448  24.271  10.722   6.486
60584W        W61449  24.265   8.052   6.250
60585W        W61450  23.472  10.760   6.311
60586W        W61451  25.169   7.714   4.777
60587W        W61452  24.960   9.033   6.078
60588W        W61453  21.943   8.354   6.116
60589W        W61454  24.803   8.149   5.134
60590W        W61455  25.214   8.300   6.911
60591W        W61456  24.099   9.999   5.129
60592W        W61457  23.355  10.590   4.742
60593W        W61458  22.470   7.770   4.000
60594W        W61459  23.574   7.424   5.810
60595W        W61460  22.602  10.544   3.658
60596W        W61461  22.976   9.010   4.409
60597W        W61462  23.630   9.639   6.722
60598W        W61463  23.460   7.997   4.712
60599W        W61464  24.816   7.594   5.140
60600W        W61465  24.536  10.876   5.468
60601W        W61466  23.948  10.524   5.808
60602W        W61467  23.344   9.561   5.769
60603W        W61468  25.114  10.284   5.895
60604W        W61469  22.808   7.787   4.664
60605W        W61470  23.330  10.084   5.624
60606W        W61471  22.813   8.015   3.689
60607W        W61472  23.614   8.624   6.083
60608W        W61473  24.462   7.490   5.953
60609W        W61474  21.882   9.333   5.838
60610W        W61475  23.586   9.151   3.996
60611W        W61476  22.854   7.466   3.766
60612W        W61477  23.592   8.547   4.817
60613W        W61478  24.562   7.523   6.516
60614W        W61479  23.150   9.535   6.625
60615W        W61480  23.954   9.317   6.842
60616W        W61481  24.571   9.347   6.735
60617W        W61482  23.855   7.487   7.240
60618W        W61483  23.077   8.103   5.633
60619W        W61484  22.503   8.059   5.031
60620W        W61485  22.289  10.771   4.707
60621W        W61486  23.621  10.101   6.832
60622W        W61487  22.656   9.586   4.191
60623W        W61488  24.336   8.971   5.412
60624W        W61489  24.616   8.770   5.811
60625W        W61490  23.821   9.444   5.745
60626W        W61491  24.291   9.818   3.877
60627W        W61492  23.963   7.839   5.205
60628W        W61493  25.442   8.117   4.473
60629W        W61494  21.936  10.706   6.504
60630W        W61495  22.353   9.932   6.036
60631W        W61496  21.920  10.778   4.268
60632W        W61497  23.819   8.048   6.074
60633W        W61498  23.182  10.071   3.923
60634W        W61499  25.087  10.453   4.109
60635W        W61500  24.062   9.106   4.123
60636W        W61501  22.905   8.297   4.640
60637W        W61502  23.737   8.207   3.692
60638W        W61503  24.321   9.772   6.870
60639W        W61504  24.674   7.678   4.487
60640W        W61505  22.004   7.526   3.935
60641W        W61506  23.290   9.845   6.225
60642W        W61507  23.089   9.761   5.317
60643W        W61508  22.831   9.713   3.715
60644W        W61509  22.072   9.954   4.483
60645W        W61510  22.576   9.024   6.925
60646W        W61511  23.280   7.584   7.111
60647W        W61512  23.989   7.726   6.467
60648W        W61513  23.184   7.494   4.748
60649W        W61514  24.243   7.571   4.253
60650W        W61515  22.188   7.503   5.830
60651W        W61516  22.236   8.466   5.200
60652W        W61517  24.925   7.574   5.606
60653W        W61518  22.347   8.072   4.420
60654W        W61519  24.918   7.760   6.036
60655W        W61520  25.314   8.963   3.721
60656W        W61521  22.606   7.721   5.540
60657W        W61522  23.720   8.293   6.480
60658W        W61523  21.868   7.983   3.958
60659W        W61524  22.654   9.372   6.519
60660W        W61525  24.012   8.770   5.698
60661W        W61526  23.879  10.849   3.994
60662W        W61527  22.025   9.356   3.691
60663W        W61528  22.760   9.767   6.817
60664W        W61529  22.281   8.934   6.448
60665W        W61530  23.272   9.039   6.242
60666W        W61531  25.040   7.398   6.504
60667W        W61532  25.438   9.008   6.495
60668W        W61533  25.426   9.208   4.181
60669W        W61534  24.289   9.540   4.280
60670W        W61535  24.763  10.840   3.975
60671W        W61536  23.940   8.830   7.117
60672W        W61537  22.270   9.797   7.157
60673W        W61538  25.476   7.719   7.109
60674W        W61539  25.194   8.647   5.730
60675W        W61540  23.502  10.777   7.207
60676W        W61541  23.357   7.406   3.934
60677W        W61542  24.896  10.005   3.877
60678W        W61543  22.665   8.098   6.763
60679W        W61544  23.099  10.092   6.625
60680W        W61545  25.225   8.083   6.423
60681W        W61546  24.436  10.742   4.391
60682W        W61547  24.675   9.361   5.758
60683W        W61548  22.925   7.777   6.425
60684W        W61549  23.394   8.846   7.182
60685W        W61550  22.897  10.025   4.376
60686W        W61551  24.652   9.523   4.640
60687W        W61552  22.420   8.149   6.364
60688W        W61553  23.749  10.211   4.828
60689W        W61554  25.499   8.771   5.009
60690W        W61555  23.721   7.404   6.728
60691W        W61556  24.501  10.109   5.807
60692W        W61557  24.804  10.453   5.515
60693W        W61558  24.023  10.255   3.943
60694W        W61559  22.033  10.147   6.785
60695W        W61560  22.776   8.139   6.023
60696W        W61561  22.746   7.487   5.133
60697W        W61562  24.367   8.329   5.825
60698W        W61563  23.165   9.500   4.025
60699W        W61564  25.163   9.442   5.524
60700W        W61565  22.490  10.200   6.947
60701W        W61566  24.877  10.882   4.744
60702W        W61567  22.976   7.902   5.189
60703W        W61568  22.745   9.395   5.279
60704W        W61569  23.058  10.806   6.029
60705W        W61570  25.125  10.902   7.061
60706W        W61571  24.284   9.090   5.994
60707W        W61572  22.133   8.888   3.909
60708W        W61573  25.267  10.546   4.606
60709W        W61574  25.104   7.870   4.225
60710W        W61575  23.243   7.389   6.628
60711W        W61576  24.949  10.191   5.086
60712W        W61577  24.978   8.747   4.991
60713W        W61578  23.095   8.420   5.207
60714W        W61579  23.340   8.682   6.531
60715W        W61580  24.451   9.835   6.394
60716W        W61581  23.101   8.289   6.506
60717W        W61582  23.080  10.755   5.122
60718W        W61583  22.397  10.714   6.756
60719W        W61584  22.509  10.075   3.886
60720W        W61585  25.026   9.833   4.696
60721W        W61586  22.630   8.625   6.582
60722W        W61587  25.403   8.555   4.063
60723W        W61588  23.148   9.612   4.534
60724W        W61589  24.247   8.994   6.615
60725W        W61590  24.138   8.622   6.159
60726W        W61591  22.698   8.994   6.188
60727W        W61592  24.908  10.882   6.017
60728W        W61593  24.699   7.516   7.011
60729W        W61594  22.363   7.666   6.598
60730W        W61595  22.702   8.689   5.651
60731W        W61596  23.071   8.503   3.773
60732W        W61597  21.874  10.262   6.318
60733W        W61598  23.459   8.971   5.761
60734W        W61599  23.282   7.996   3.866
60735W        W61600  22.417   8.812   4.647
60736W        W61601  22.188  10.664   6.084
60737W        W61602  24.983   8.890   4.192
60738W        W61603  25.078   7.806   6.878
60739W        W61604  24.514  10.015   4.841
60740W        W61605  22.112   8.939   7.018
60741W        W61606  25.078   7.403   4.314
60742W        W61607  24.598   9.878   4.325
60743W        W61608  23.500   8.936   4.410
60744W        W61609  24.687   7.740   3.933
60745W        W61610  24.752   8.347   6.119
60746W        W61611  22.461   8.940   5.326
60747W        W61612  22.755   9.879   4.975
60748W        W61613  24.518   8.499   4.940
60749W        W61614  23.541   7.878   5.636
60750W        W61615  25.503   9.789   6.147
60751W        W61616  25.421   7.776   5.708
60752W        W61617  21.960  10.606   5.084
60753W        W61618  22.469   9.793   4.620
60754W        W61619  22.384   7.410   7.173
60755W        W61620  23.503  10.263   7.275
60756W        W61621  25.258   9.231   5.065
60757W        W61622  24.612   9.408   3.945
60758W        W61623  23.907  10.929   6.157
60759W        W61624  24.764   9.651   7.194
60760W        W61625  23.579   7.361   4.474
60761W        W61626  24.292   8.230   5.333
60762W        W61627  21.978   9.817   5.665
60763W        W61628  23.231   7.779   4.306
60764W        W61629  23.035   9.263   7.155
60765W        W61630  24.029   8.244   4.869
60766W        W61631  24.234   9.654   5.991
60767W        W61632  22.388  10.259   6.426
60768W        W61633  22.979  10.242   7.149
60769W        W61634  22.830   8.039   4.163
60770W        W61635  24.347   8.181   4.488
60771W        W61636  24.305  10.289   6.725
60772W        W61637  22.990   8.881   5.324
60773W        W61638  22.645  10.579   6.189
60774W        W61639  25.390  10.696   3.790
60775W        W61640  22.253   9.368   6.786
60776W        W61641  24.248   9.630   5.474
60777W        W61642  22.684   9.279   4.716
60778W        W61643  23.055  10.286   6.111
60779W        W61644  23.433   7.705   5.152
60780W        W61645  22.044   9.689   4.082
60781W        W61646  23.563   8.640   3.952
60782W        W61647  22.209   9.189   4.971
60783W        W61648  23.499   7.831   6.435
60784W        W61649  25.171   7.540   3.862
60785W        W61650  25.264   9.286   6.961
60786W        W61651  23.918  10.543   7.113
60787W        W61652  25.476   9.637   6.635
60788W        W61653  24.884  10.435   7.246
60789W        W61654  22.623  10.891   5.724
60790W        W61655  25.482   9.513   4.598
60791W        W61656  24.012   8.780   5.111
60792W        W61657  23.779   7.392   5.001
60793W        W61658  22.838  10.376   4.838
60794W        W61659  23.337   8.117   6.063
60795W        W61660  23.037   7.486   5.532
60796W        W61661  22.100  10.308   4.080
60797W        W61662  23.916   9.672   4.798
60798W        W61663  22.791  10.467   6.677
60799W        W61664  22.268   9.290   4.373
60800W        W61665  22.153   7.833   5.372
60801W        W61666  23.701   9.798   5.429
60802W        W61667  21.953   7.652   4.449
60803W        W61668  24.617   8.858   6.376
60804W        W61669  24.494   8.244   3.948
60805W        W61670  25.011   9.916   5.596
60806W        W61671  23.672  10.400   5.427
60807W        W61672  23.084  10.504   4.338
60808W        W61673  24.366   7.407   3.768
60809W        W61674  22.166  10.667   5.509
60810W        W61675  24.363   8.425   7.144
60811W        W61676  22.346   7.955   7.143
60812W        W61677  22.077   8.555   4.476
60813W        W61678  22.768   8.544   4.201
60814W        W61679  24.531   8.871   7.018
60815W        W61680  22.874   9.152   5.727
60816W        W61681  24.348   7.438   4.847
60817W        W61682  23.479  10.869   5.350
60818W        W61683  24.693  10.331   6.287
60819W        W61684  24.277  10.480   5.398
60820W        W61685  24.296   9.460   4.992
60821W        W61686  23.758   7.685   4.063
60822W        W61687  25.439   7.313   4.785
60823W        W61688  23.127   8.948   3.948
60824W        W61689  25.293   8.285   4.938
60825W        W61690  23.985   9.455   3.815
60826W        W61691  24.921   9.655   6.563
60827W        W61692  24.575  10.356   4.030
60828W        W61693  23.190   8.031   6.936
60829W        W61694  23.010   8.615   6.177
60830W        W61695  25.102  10.110   6.454
60831W        W61696  24.202   8.060   6.831
60832W        W61697  22.046   8.531   6.608
60833W        W61698  23.806   9.008   6.334
60834W        W61699  22.163   9.766   4.991
60835W        W61700  22.310   9.063   5.881
60836W        W61701  24.627   9.349   6.231
60837W        W61702  24.399  10.729   7.042
60838W        W61703  24.295   8.468   6.595
60839W        W61704  24.572  10.522   5.000
60840W        W61705  23.574  10.242   6.323
60841W        W61706  23.059  10.597   5.592
60842W        W61707  24.864   9.768   6.011
60843W        W61708  23.914   9.840   7.148
60844W        W61709  22.519   9.793   5.487
60845W        W61710  24.865   9.552   5.132
60846W        W61711  24.506  10.618   5.883
60847W        W61712  22.484  10.347   5.753
60848W        W61713  23.505   8.399   6.963
60849W        W61714  23.956  10.565   4.474
60850W        W61715  23.264   9.820   7.112
60851W        W61716  23.390  10.058   4.489
60852W        W61717  22.611   8.798   3.748
60853W        W61718  21.950  10.884  10.648
60854W        W61719  22.326   9.777  10.171
60855W        W61720  25.031   9.507   7.941
60856W        W61721  25.161  10.592   9.968
60857W        W61722  23.079  10.583   7.494
60858W        W61723  23.162   8.735   8.477
60859W        W61724  22.677   8.583   8.641
60860W        W61725  23.668   9.398   8.075
60861W        W61726  23.343  10.490  10.430
60862W        W61727  22.754   7.331  10.195
60863W        W61728  24.448   7.719   9.082
60864W        W61729  24.097   8.590   7.652
60865W        W61730  24.667   8.024  10.743
60866W        W61731  22.033   7.816   9.868
60867W        W61732  22.132  10.435  10.889
60868W        W61733  23.654   9.825   7.621
60869W        W61734  22.086   8.608   9.314
60870W        W61735  22.979   8.499  10.551
60871W        W61736  25.438   8.358   9.050
60872W        W61737  25.202   9.401   9.909
60873W        W61738  23.510   8.734   8.936
60874W        W61739  24.056  10.073   9.305
60875W        W61740  22.556   9.507   9.537
60876W        W61741  21.915   9.035   9.108
60877W        W61742  22.951   9.007  10.300
60878W        W61743  25.222   8.790  10.554
60879W        W61744  22.838  10.234   8.999
60880W        W61745  23.959   9.923  10.133
60881W        W61746  23.179   8.563   9.358
60882W        W61747  23.471   9.347   9.001
60883W        W61748  24.468  10.120  10.849
60884W        W61749  23.547   9.440  10.859
60885W        W61750  23.528   9.156  10.337
60886W        W61751  21.937   8.547  10.859
60887W        W61752  24.769  10.082  10.458
60888W        W61753  22.350   7.664   8.456
60889W        W61754  22.877   9.922   9.455
60890W        W61755  25.340   9.705   8.745
60891W        W61756  24.753   8.105   9.312
60892W        W61757  25.038   8.058   7.407
60893W        W61758  25.503   8.859   9.713
60894W        W61759  23.470  10.566   9.466
60895W        W61760  25.244  10.032   7.904
60896W        W61761  22.373  10.818   7.658
60897W        W61762  22.766  10.864   8.334
60898W        W61763  22.563   7.618   9.760
60899W        W61764  25.186   8.636  10.035
60900W        W61765  24.591   9.058   8.494
60901W        W61766  24.557   8.746   7.521
60902W        W61767  23.765   9.890   9.661
60903W        W61768  23.571   8.220   8.860
60904W        W61769  24.171  10.307   9.854
60905W        W61770  25.042   9.098   8.276
60906W        W61771  23.944   7.756   8.292
60907W        W61772  22.601  10.450   7.975
60908W        W61773  21.972   7.949   8.574
60909W        W61774  24.758   8.556   9.048
60910W        W61775  22.216  10.173   8.963
60911W        W61776  23.557  10.523   7.833
60912W        W61777  24.949   8.549   7.297
60913W        W61778  21.972  10.307   9.461
60914W        W61779  22.763   9.879   9.941
60915W        W61780  23.136   9.239   8.560
60916W        W61781  23.158   7.644   9.653
60917W        W61782  25.387   7.406   8.950
60918W        W61783  22.606   9.278   7.418
60919W        W61784  22.261   8.311   7.597
60920W        W61785  22.323  10.267   8.391
60921W        W61786  23.454   9.750   8.639
60922W        W61787  24.786  10.609  10.353
60923W        W61788  23.712   8.251   8.037
60924W        W61789  25.095  10.649   8.809
60925W        W61790  24.772   8.502  10.407
60926W        W61791  25.485  10.158   8.541
60927W        W61792  24.112   9.450  10.025
60928W        W61793  21.878   9.001   8.231
60929W        W61794  22.989   9.416   9.804
60930W        W61795  24.193   8.680   8.182
60931W        W61796  24.070   9.170   8.286
60932W        W61797  22.413   8.590   9.760
60933W        W61798  22.398   8.466  10.682
60934W        W61799  22.288   7.383   8.841
60935W        W61800  24.056   7.730   9.402
60936W        W61801  23.704   7.915  10.565
60937W        W61802  24.059   8.064   7.743
60938W        W61803  25.242  10.457  10.497
60939W        W61804  24.209   7.538  10.536
60940W        W61805  25.228   9.839  10.658
60941W        W61806  24.658   8.006  10.254
60942W        W61807  24.458   7.944   8.524
60943W        W61808  24.851   9.078  10.928
60944W        W61809  22.591  10.654   8.914
60945W        W61810  23.249   8.371   7.900
60946W        W61811  22.818   7.655  10.564
60947W        W61812  24.870   8.139   8.245
60948W        W61813  25.237   8.621   8.190
60949W        W61814  22.980  10.838  10.661
60950W        W61815  22.906   7.374   7.896
60951W        W61816  25.227   7.908   8.931
60952W        W61817  25.377  10.157   7.376
60953W        W61818  22.284   9.360   9.078
60954W        W61819  24.201   7.947   7.308
60955W        W61820  25.335  10.279   9.028
60956W        W61821  25.374   7.473   9.778
60957W        W61822  23.819   8.685  10.332
60958W        W61823  23.912  10.024   8.035
60959W        W61824  24.312   9.318  10.775
60960W        W61825  23.986   7.295   9.084
60961W        W61826  22.598   8.198   9.147
60962W        W61827  22.152   9.398   9.921
60963W        W61828  24.011  10.591   8.627
60964W        W61829  25.205   8.188   9.499
60965W        W61830  23.842  10.535  10.266
60966W        W61831  25.185   9.594   7.471
60967W        W61832  23.620   9.077   8.532
60968W        W61833  25.472   7.588  10.273
60969W        W61834  23.621   9.423   9.867
60970W        W61835  23.838   8.309   9.312
60971W        W61836  24.690   8.607   8.150
60972W        W61837  24.977   8.340   7.792
60973W        W61838  24.786  10.380   8.181
60974W        W61839  24.620   9.983   8.977
60975W        W61840  24.516   9.062   7.955
60976W        W61841  23.949   9.272   8.941
60977W        W61842  24.830   9.060   9.008
60978W        W61843  22.205   8.075   9.432
60979W        W61844  24.983   9.127  10.259
60980W        W61845  25.334  10.745   9.405
60981W        W61846  23.264  10.189   8.807
60982W        W61847  24.271  10.722  10.131
60983W        W61848  24.265   8.052   9.895
60984W        W61849  23.472  10.760   9.956
60985W        W61850  25.169   7.714   8.422
60986W        W61851  24.960   9.033   9.723
60987W        W61852  21.943   8.354   9.761
60988W        W61853  24.803   8.149   8.779
60989W        W61854  25.214   8.300  10.556
60990W        W61855  24.099   9.999   8.774
60991W        W61856  23.355  10.590   8.387
60992W        W61857  22.470   7.770   7.645
60993W        W61858  23.574   7.424   9.455
60994W        W61859  22.602  10.544   7.303
60995W        W61860  22.976   9.010   8.054
60996W        W61861  23.630   9.639  10.367
60997W        W61862  23.460   7.997   8.357
60998W        W61863  24.816   7.594   8.785
60999W        W61864  24.536  10.876   9.113
61000W        W61865  23.948  10.524   9.453
61001W        W61866  23.344   9.561   9.414
61002W        W61867  25.114  10.284   9.540
61003W        W61868  22.808   7.787   8.309
61004W        W61869  23.330  10.084   9.269
61005W        W61870  22.813   8.015   7.334
61006W        W61871  23.614   8.624   9.728
61007W        W61872  24.462   7.490   9.598
61008W        W61873  21.882   9.333   9.483
61009W        W61874  23.586   9.151   7.641
61010W        W61875  22.854   7.466   7.411
61011W        W61876  23.592   8.547   8.462
61012W        W61877  24.562   7.523  10.161
61013W        W61878  23.150   9.535  10.270
61014W        W61879  23.954   9.317  10.487
61015W        W61880  24.571   9.347  10.380
61016W        W61881  23.855   7.487  10.885
61017W        W61882  23.077   8.103   9.278
61018W        W61883  22.503   8.059   8.676
61019W        W61884  22.289  10.771   8.352
61020W        W61885  23.621  10.101  10.477
61021W        W61886  22.656   9.586   7.836
61022W        W61887  24.336   8.971   9.057
61023W        W61888  24.616   8.770   9.456
61024W        W61889  23.821   9.444   9.390
61025W        W61890  24.291   9.818   7.522
61026W        W61891  23.963   7.839   8.850
61027W        W61892  25.442   8.117   8.118
61028W        W61893  21.936  10.706  10.149
61029W        W61894  22.353   9.932   9.681
61030W        W61895  21.920  10.778   7.913
61031W        W61896  23.819   8.048   9.719
61032W        W61897  23.182  10.071   7.568
61033W        W61898  25.087  10.453   7.754
61034W        W61899  24.062   9.106   7.768
61035W        W61900  22.905   8.297   8.285
61036W        W61901  23.737   8.207   7.337
61037W        W61902  24.321   9.772  10.515
61038W        W61903  24.674   7.678   8.132
61039W        W61904  22.004   7.526   7.580
61040W        W61905  23.290   9.845   9.870
61041W        W61906  23.089   9.761   8.962
61042W        W61907  22.831   9.713   7.360
61043W        W61908  22.072   9.954   8.128
61044W        W61909  22.576   9.024  10.570
61045W        W61910  23.280   7.584  10.756
61046W        W61911  23.989   7.726  10.112
61047W        W61912  23.184   7.494   8.393
61048W        W61913  24.243   7.571   7.898
61049W        W61914  22.188   7.503   9.475
61050W        W61915  22.236   8.466   8.845
61051W        W61916  24.925   7.574   9.251
61052W        W61917  22.347   8.072   8.065
61053W        W61918  24.918   7.760   9.681
61054W        W61919  25.314   8.963   7.366
61055W        W61920  22.606   7.721   9.185
61056W        W61921  23.720   8.293  10.125
61057W        W61922  21.868   7.983   7.603
61058W        W61923  22.654   9.372  10.164
61059W        W61924  24.012   8.770   9.343
61060W        W61925  23.879  10.849   7.639
61061W        W61926  22.025   9.356   7.336
61062W        W61927  22.760   9.767  10.462
61063W        W61928  22.281   8.934  10.093
61064W        W61929  23.272   9.039   9.887
61065W        W61930  25.040   7.398  10.149
61066W        W61931  25.438   9.008  10.140
61067W        W61932  25.426   9.208   7.826
61068W        W61933  24.289   9.540   7.925
61069W        W61934  24.763  10.840   7.620
61070W        W61935  23.940   8.830  10.762
61071W        W61936  22.270   9.797  10.802
61072W        W61937  25.476   7.719  10.754
61073W        W61938  25.194   8.647   9.375
61074W        W61939  23.502  10.777  10.852
61075W        W61940  23.357   7.406   7.579
61076W        W61941  24.896  10.005   7.522
61077W        W61942  22.665   8.098  10.408
61078W        W61943  23.099  10.092  10.270
61079W        W61944  25.225   8.083  10.068
61080W        W61945  24.436  10.742   8.036
61081W        W61946  24.675   9.361   9.403
61082W        W61947  22.925   7.777  10.070
61083W        W61948  23.394   8.846  10.827
61084W        W61949  22.897  10.025   8.021
61085W        W61950  24.652   9.523   8.285
61086W        W61951  22.420   8.149  10.009
61087W        W61952  23.749  10.211   8.473
61088W        W61953  25.499   8.771   8.654
61089W        W61954  23.721   7.404  10.373
61090W        W61955  24.501  10.109   9.452
61091W        W61956  24.804  10.453   9.160
61092W        W61957  24.023  10.255   7.588
61093W        W61958  22.033  10.147  10.430
61094W        W61959  22.776   8.139   9.668
61095W        W61960  22.746   7.487   8.778
61096W        W61961  24.367   8.329   9.470
61097W        W61962  23.165   9.500   7.670
61098W        W61963  25.163   9.442   9.169
61099W        W61964  22.490  10.200  10.592
61100W        W61965  24.877  10.882   8.389
61101W        W61966  22.976   7.902   8.834
61102W        W61967  22.745   9.395   8.924
61103W        W61968  23.058  10.806   9.674
61104W        W61969  25.125  10.902  10.706
61105W        W61970  24.284   9.090   9.639
61106W        W61971  22.133   8.888   7.554
61107W        W61972  25.267  10.546   8.251
61108W        W61973  25.104   7.870   7.870
61109W        W61974  23.243   7.389  10.273
61110W        W61975  24.949  10.191   8.731
61111W        W61976  24.978   8.747   8.636
61112W        W61977  23.095   8.420   8.852
61113W        W61978  23.340   8.682  10.176
61114W        W61979  24.451   9.835  10.039
61115W        W61980  23.101   8.289  10.151
61116W        W61981  23.080  10.755   8.767
61117W        W61982  22.397  10.714  10.401
61118W        W61983  22.509  10.075   7.531
61119W        W61984  25.026   9.833   8.341
61120W        W61985  22.630   8.625  10.227
61121W        W61986  25.403   8.555   7.708
61122W        W61987  23.148   9.612   8.179
61123W        W61988  24.247   8.994  10.260
61124W        W61989  24.138   8.622   9.804
61125W        W61990  22.698   8.994   9.833
61126W        W61991  24.908  10.882   9.662
61127W        W61992  24.699   7.516  10.656
61128W        W61993  22.363   7.666  10.243
61129W        W61994  22.702   8.689   9.296
61130W        W61995  23.071   8.503   7.418
61131W        W61996  21.874  10.262   9.963
61132W        W61997  23.459   8.971   9.406
61133W        W61998  23.282   7.996   7.511
61134W        W61999  22.417   8.812   8.292
61135W        W62000  22.188  10.664   9.729
61136W        W62001  24.983   8.890   7.837
61137W        W62002  25.078   7.806  10.523
61138W        W62003  24.514  10.015   8.486
61139W        W62004  22.112   8.939  10.663
61140W        W62005  25.078   7.403   7.959
61141W        W62006  24.598   9.878   7.970
61142W        W62007  23.500   8.936   8.055
61143W        W62008  24.687   7.740   7.578
61144W        W62009  24.752   8.347   9.764
61145W        W62010  22.461   8.940   8.971
61146W        W62011  22.755   9.879   8.620
61147W        W62012  24.518   8.499   8.585
61148W        W62013  23.541   7.878   9.281
61149W        W62014  25.503   9.789   9.792
61150W        W62015  25.421   7.776   9.353
61151W        W62016  21.960  10.606   8.729
61152W        W62017  22.469   9.793   8.265
61153W        W62018  22.384   7.410  10.818
61154W        W62019  23.503  10.263  10.920
61155W        W62020  25.258   9.231   8.710
61156W        W62021  24.612   9.408   7.590
61157W        W62022  23.907  10.929   9.802
61158W        W62023  24.764   9.651  10.839
61159W        W62024  23.579   7.361   8.119
61160W        W62025  24.292   8.230   8.978
61161W        W62026  21.978   9.817   9.310
61162W        W62027  23.231   7.779   7.951
61163W        W62028  23.035   9.263  10.800
61164W        W62029  24.029   8.244   8.514
61165W        W62030  24.234   9.654   9.636
61166W        W62031  22.388  10.259  10.071
61167W        W62032  22.979  10.242  10.794
61168W        W62033  22.830   8.039   7.808
61169W        W62034  24.347   8.181   8.133
61170W        W62035  24.305  10.289  10.370
61171W        W62036  22.990   8.881   8.969
61172W        W62037  22.645  10.579   9.834
61173W        W62038  25.390  10.696   7.435
61174W        W62039  22.253   9.368  10.431
61175W        W62040  24.248   9.630   9.119
61176W        W62041  22.684   9.279   8.361
61177W        W62042  23.055  10.286   9.756
61178W        W62043  23.433   7.705   8.797
61179W        W62044  22.044   9.689   7.727
61180W        W62045  23.563   8.640   7.597
61181W        W62046  22.209   9.189   8.616
61182W        W62047  23.499   7.831  10.080
61183W        W62048  25.171   7.540   7.507
61184W        W62049  25.264   9.286  10.606
61185W        W62050  23.918  10.543  10.758
61186W        W62051  25.476   9.637  10.280
61187W        W62052  24.884  10.435  10.891
61188W        W62053  22.623  10.891   9.369
61189W        W62054  25.482   9.513   8.243
61190W        W62055  24.012   8.780   8.756
61191W        W62056  23.779   7.392   8.646
61192W        W62057  22.838  10.376   8.483
61193W        W62058  23.337   8.117   9.708
61194W        W62059  23.037   7.486   9.177
61195W        W62060  22.100  10.308   7.725
61196W        W62061  23.916   9.672   8.443
61197W        W62062  22.791  10.467  10.322
61198W        W62063  22.268   9.290   8.018
61199W        W62064  22.153   7.833   9.017
61200W        W62065  23.701   9.798   9.074
61201W        W62066  21.953   7.652   8.094
61202W        W62067  24.617   8.858  10.021
61203W        W62068  24.494   8.244   7.593
61204W        W62069  25.011   9.916   9.241
61205W        W62070  23.672  10.400   9.072
61206W        W62071  23.084  10.504   7.983
61207W        W62072  24.366   7.407   7.413
61208W        W62073  22.166  10.667   9.154
61209W        W62074  24.363   8.425  10.789
61210W        W62075  22.346   7.955  10.788
61211W        W62076  22.077   8.555   8.121
61212W        W62077  22.768   8.544   7.846
61213W        W62078  24.531   8.871  10.663
61214W        W62079  22.874   9.152   9.372
61215W        W62080  24.348   7.438   8.492
61216W        W62081  23.479  10.869   8.995
61217W        W62082  24.693  10.331   9.932
61218W        W62083  24.277  10.480   9.043
61219W        W62084  24.296   9.460   8.637
61220W        W62085  23.758   7.685   7.708
61221W        W62086  25.439   7.313   8.430
61222W        W62087  23.127   8.948   7.593
61223W        W62088  25.293   8.285   8.583
61224W        W62089  23.985   9.455   7.460
61225W        W62090  24.921   9.655  10.208
61226W        W62091  24.575  10.356   7.675
61227W        W62092  23.190   8.031  10.581
61228W        W62093  23.010   8.615   9.822
61229W        W62094  25.102  10.110  10.099
61230W        W62095  24.202   8.060  10.476
61231W        W62096  22.046   8.531  10.253
61232W        W62097  23.806   9.008   9.979
61233W        W62098  22.163   9.766   8.636
61234W        W62099  22.310   9.063   9.526
61235W        W62100  24.627   9.349   9.876
61236W        W62101  24.399  10.729  10.687
61237W        W62102  24.295   8.468  10.240
61238W        W62103  24.572  10.522   8.645
61239W        W62104  23.574  10.242   9.968
61240W        W62105  23.059  10.597   9.237
61241W        W62106  24.864   9.768   9.656
61242W        W62107  23.914   9.840  10.793
61243W        W62108  22.519   9.793   9.132
61244W        W62109  24.865   9.552   8.777
61245W        W62110  24.506  10.618   9.528
61246W        W62111  22.484  10.347   9.398
61247W        W62112  23.505   8.399  10.608
61248W        W62113  23.956  10.565   8.119
61249W        W62114  23.264   9.820  10.757
61250W        W62115  23.390  10.058   8.134
61251W        W62116  22.611   8.798   7.393
61252W        W62117  21.950  10.884  14.292
61253W        W62118  22.326   9.777  13.815
61254W        W62119  25.031   9.507  11.585
61255W        W62120  25.161  10.592  13.612
61256W        W62121  23.079  10.583  11.138
61257W        W62122  23.162   8.735  12.121
61258W        W62123  22.677   8.583  12.285
61259W        W62124  23.668   9.398  11.719
61260W        W62125  23.343  10.490  14.074
61261W        W62126  21.992   8.051  14.037
61262W        W62127  22.754   7.331  13.839
61263W        W62128  24.448   7.719  12.726
61264W        W62129  24.097   8.590  11.296
61265W        W62130  24.667   8.024  14.387
61266W        W62131  22.033   7.816  13.512
61267W        W62132  22.132  10.435  14.533
61268W        W62133  23.654   9.825  11.265
61269W        W62134  22.086   8.608  12.958
61270W        W62135  22.979   8.499  14.195
61271W        W62136  25.438   8.358  12.694
61272W        W62137  25.202   9.401  13.553
61273W        W62138  23.510   8.734  12.580
61274W        W62139  24.056  10.073  12.949
61275W        W62140  22.556   9.507  13.181
61276W        W62141  21.915   9.035  12.752
61277W        W62142  22.951   9.007  13.944
61278W        W62143  25.222   8.790  14.198
61279W        W62144  22.838  10.234  12.643
61280W        W62145  23.959   9.923  13.777
61281W        W62146  23.179   8.563  13.002
61282W        W62147  23.471   9.347  12.645
61283W        W62148  24.468  10.120  14.493
61284W        W62149  23.547   9.440  14.503
61285W        W62150  23.528   9.156  13.981
61286W        W62151  21.937   8.547  14.503
61287W        W62152  24.769  10.082  14.102
61288W        W62153  22.350   7.664  12.100
61289W        W62154  22.877   9.922  13.099
61290W        W62155  25.340   9.705  12.389
61291W        W62156  24.753   8.105  12.956
61292W        W62157  25.038   8.058  11.051
61293W        W62158  25.503   8.859  13.357
61294W        W62159  23.470  10.566  13.110
61295W        W62160  25.244  10.032  11.548
61296W        W62161  22.373  10.818  11.302
61297W        W62162  22.766  10.864  11.978
61298W        W62163  22.563   7.618  13.404
61299W        W62164  25.186   8.636  13.679
61300W        W62165  24.591   9.058  12.138
61301W        W62166  24.557   8.746  11.165
61302W        W62167  23.765   9.890  13.305
61303W        W62168  23.571   8.220  12.504
61304W        W62169  24.171  10.307  13.498
61305W        W62170  25.042   9.098  11.920
61306W        W62171  23.944   7.756  11.936
61307W        W62172  22.601  10.450  11.619
61308W        W62173  21.972   7.949  12.218
61309W        W62174  24.758   8.556  12.692
61310W        W62175  22.216  10.173  12.607
61311W        W62176  23.557  10.523  11.477
61312W        W62177  24.949   8.549  10.941
61313W        W62178  21.972  10.307  13.105
61314W        W62179  22.763   9.879  13.585
61315W        W62180  23.136   9.239  12.204
61316W        W62181  23.158   7.644  13.297
61317W        W62182  25.387   7.406  12.594
61318W        W62183  22.606   9.278  11.062
61319W        W62184  22.261   8.311  11.241
61320W        W62185  22.323  10.267  12.035
61321W        W62186  23.454   9.750  12.283
61322W        W62187  24.786  10.609  13.997
61323W        W62188  23.712   8.251  11.681
61324W        W62189  25.095  10.649  12.453
61325W        W62190  24.772   8.502  14.051
61326W        W62191  25.485  10.158  12.185
61327W        W62192  24.112   9.450  13.669
61328W        W62193  21.878   9.001  11.875
61329W        W62194  22.989   9.416  13.448
61330W        W62195  24.193   8.680  11.826
61331W        W62196  24.070   9.170  11.930
61332W        W62197  22.413   8.590  13.404
61333W        W62198  22.398   8.466  14.326
61334W        W62199  22.288   7.383  12.485
61335W        W62200  24.056   7.730  13.046
61336W        W62201  23.704   7.915  14.209
61337W        W62202  24.059   8.064  11.387
61338W        W62203  25.242  10.457  14.141
61339W        W62204  24.209   7.538  14.180
61340W        W62205  25.228   9.839  14.302
61341W        W62206  24.658   8.006  13.898
61342W        W62207  24.458   7.944  12.168
61343W        W62208  24.851   9.078  14.572
61344W        W62209  22.591  10.654  12.558
61345W        W62210  23.249   8.371  11.544
61346W        W62211  22.818   7.655  14.208
61347W        W62212  24.870   8.139  11.889
61348W        W62213  25.237   8.621  11.834
61349W        W62214  22.980  10.838  14.305
61350W        W62215  22.906   7.374  11.540
61351W        W62216  25.227   7.908  12.575
61352W        W62217  25.377  10.157  11.020
61353W        W62218  22.284   9.360  12.722
61354W        W62219  24.201   7.947  10.952
61355W        W62220  25.335  10.279  12.672
61356W        W62221  25.374   7.473  13.422
61357W        W62222  23.819   8.685  13.976
61358W        W62223  23.912  10.024  11.679
61359W        W62224  24.312   9.318  14.419
61360W        W62225  23.986   7.295  12.728
61361W        W62226  22.598   8.198  12.791
61362W        W62227  22.152   9.398  13.565
61363W        W62228  24.011  10.591  12.271
61364W        W62229  25.205   8.188  13.143
61365W        W62230  23.842  10.535  13.910
61366W        W62231  25.185   9.594  11.115
61367W        W62232  23.620   9.077  12.176
61368W        W62233  25.472   7.588  13.917
61369W        W62234  23.621   9.423  13.511
61370W        W62235  23.838   8.309  12.956
61371W        W62236  24.690   8.607  11.794
61372W        W62237  24.977   8.340  11.436
61373W        W62238  24.786  10.380  11.825
61374W        W62239  24.620   9.983  12.621
61375W        W62240  24.516   9.062  11.599
61376W        W62241  23.949   9.272  12.585
61377W        W62242  24.830   9.060  12.652
61378W        W62243  22.205   8.075  13.076
61379W        W62244  24.983   9.127  13.903
61380W        W62245  25.334  10.745  13.049
61381W        W62246  23.264  10.189  12.451
61382W        W62247  24.271  10.722  13.775
61383W        W62248  24.265   8.052  13.539
61384W        W62249  23.472  10.760  13.600
61385W        W62250  25.169   7.714  12.066
61386W        W62251  24.960   9.033  13.367
61387W        W62252  21.943   8.354  13.405
61388W        W62253  24.803   8.149  12.423
61389W        W62254  25.214   8.300  14.200
61390W        W62255  24.099   9.999  12.418
61391W        W62256  23.355  10.590  12.031
61392W        W62257  22.470   7.770  11.289
61393W        W62258  23.574   7.424  13.099
61394W        W62259  22.602  10.544  10.947
61395W        W62260  22.976   9.010  11.698
61396W        W62261  23.630   9.639  14.011
61397W        W62262  23.460   7.997  12.001
61398W        W62263  24.816   7.594  12.429
61399W        W62264  24.536  10.876  12.757
61400W        W62265  23.948  10.524  13.097
61401W        W62266  23.344   9.561  13.058
61402W        W62267  25.114  10.284  13.184
61403W        W62268  22.808   7.787  11.953
61404W        W62269  23.330  10.084  12.913
61405W        W62270  22.813   8.015  10.978
61406W        W62271  23.614   8.624  13.372
61407W        W62272  24.462   7.490  13.242
61408W        W62273  21.882   9.333  13.127
61409W        W62274  23.586   9.151  11.285
61410W        W62275  22.854   7.466  11.055
61411W        W62276  23.592   8.547  12.106
61412W        W62277  24.562   7.523  13.805
61413W        W62278  23.150   9.535  13.914
61414W        W62279  23.954   9.317  14.131
61415W        W62280  24.571   9.347  14.024
61416W        W62281  23.855   7.487  14.529
61417W        W62282  23.077   8.103  12.922
61418W        W62283  22.503   8.059  12.320
61419W        W62284  22.289  10.771  11.996
61420W        W62285  23.621  10.101  14.121
61421W        W62286  22.656   9.586  11.480
61422W        W62287  24.336   8.971  12.701
61423W        W62288  24.616   8.770  13.100
61424W        W62289  23.821   9.444  13.034
61425W        W62290  24.291   9.818  11.166
61426W        W62291  23.963   7.839  12.494
61427W        W62292  25.442   8.117  11.762
61428W        W62293  21.936  10.706  13.793
61429W        W62294  22.353   9.932  13.325
61430W        W62295  21.920  10.778  11.557
61431W        W62296  23.819   8.048  13.363
61432W        W62297  23.182  10.071  11.212
61433W        W62298  25.087  10.453  11.398
61434W        W62299  24.062   9.106  11.412
61435W        W62300  22.905   8.297  11.929
61436W        W62301  23.737   8.207  10.981
61437W        W62302  24.321   9.772  14.159
61438W        W62303  24.674   7.678  11.776
61439W        W62304  22.004   7.526  11.224
61440W        W62305  23.290   9.845  13.514
61441W        W62306  23.089   9.761  12.606
61442W        W62307  22.831   9.713  11.004
61443W        W62308  22.072   9.954  11.772
61444W        W62309  22.576   9.024  14.214
61445W        W62310  23.280   7.584  14.400
61446W        W62311  23.989   7.726  13.756
61447W        W62312  23.184   7.494  12.037
61448W        W62313  24.243   7.571  11.542
61449W        W62314  22.188   7.503  13.119
61450W        W62315  22.236   8.466  12.489
61451W        W62316  24.925   7.574  12.895
61452W        W62317  22.347   8.072  11.709
61453W        W62318  24.918   7.760  13.325
61454W        W62319  25.314   8.963  11.010
61455W        W62320  22.606   7.721  12.829
61456W        W62321  23.720   8.293  13.769
61457W        W62322  21.868   7.983  11.247
61458W        W62323  22.654   9.372  13.808
61459W        W62324  24.012   8.770  12.987
61460W        W62325  23.879  10.849  11.283
61461W        W62326  22.025   9.356  10.980
61462W        W62327  22.760   9.767  14.106
61463W        W62328  22.281   8.934  13.737
61464W        W62329  23.272   9.039  13.531
61465W        W62330  25.040   7.398  13.793
61466W        W62331  25.438   9.008  13.784
61467W        W62332  25.426   9.208  11.470
61468W        W62333  24.289   9.540  11.569
61469W        W62334  24.763  10.840  11.264
61470W        W62335  23.940   8.830  14.406
61471W        W62336  22.270   9.797  14.446
61472W        W62337  25.476   7.719  14.398
61473W        W62338  25.194   8.647  13.019
61474W        W62339  23.502  10.777  14.496
61475W        W62340  23.357   7.406  11.223
61476W        W62341  24.896  10.005  11.166
61477W        W62342  22.665   8.098  14.052
61478W        W62343  23.099  10.092  13.914
61479W        W62344  25.225   8.083  13.712
61480W        W62345  24.436  10.742  11.680
61481W        W62346  24.675   9.361  13.047
61482W        W62347  22.925   7.777  13.714
61483W        W62348  23.394   8.846  14.471
61484W        W62349  22.897  10.025  11.665
61485W        W62350  24.652   9.523  11.929
61486W        W62351  22.420   8.149  13.653
61487W        W62352  23.749  10.211  12.117
61488W        W62353  25.499   8.771  12.298
61489W        W62354  23.721   7.404  14.017
61490W        W62355  24.501  10.109  13.096
61491W        W62356  24.804  10.453  12.804
61492W        W62357  24.023  10.255  11.232
61493W        W62358  22.033  10.147  14.074
61494W        W62359  22.776   8.139  13.312
61495W        W62360  22.746   7.487  12.422
61496W        W62361  24.367   8.329  13.114
61497W        W62362  23.165   9.500  11.314
61498W        W62363  25.163   9.442  12.813
61499W        W62364  22.490  10.200  14.236
61500W        W62365  24.877  10.882  12.033
61501W        W62366  22.976   7.902  12.478
61502W        W62367  22.745   9.395  12.568
61503W        W62368  23.058  10.806  13.318
61504W        W62369  25.125  10.902  14.350
61505W        W62370  24.284   9.090  13.283
61506W        W62371  22.133   8.888  11.198
61507W        W62372  25.267  10.546  11.895
61508W        W62373  25.104   7.870  11.514
61509W        W62374  23.243   7.389  13.917
61510W        W62375  24.949  10.191  12.375
61511W        W62376  24.978   8.747  12.280
61512W        W62377  23.095   8.420  12.496
61513W        W62378  23.340   8.682  13.820
61514W        W62379  24.451   9.835  13.683
61515W        W62380  23.101   8.289  13.795
61516W        W62381  23.080  10.755  12.411
61517W        W62382  22.397  10.714  14.045
61518W        W62383  22.509  10.075  11.175
61519W        W62384  25.026   9.833  11.985
61520W        W62385  22.630   8.625  13.871
61521W        W62386  25.403   8.555  11.352
61522W        W62387  23.148   9.612  11.823
61523W        W62388  24.247   8.994  13.904
61524W        W62389  24.138   8.622  13.448
61525W        W62390  22.698   8.994  13.477
61526W        W62391  24.908  10.882  13.306
61527W        W62392  24.699   7.516  14.300
61528W        W62393  22.363   7.666  13.887
61529W        W62394  22.702   8.689  12.940
61530W        W62395  23.071   8.503  11.062
61531W        W62396  21.874  10.262  13.607
61532W        W62397  23.459   8.971  13.050
61533W        W62398  23.282   7.996  11.155
61534W        W62399  22.417   8.812  11.936
61535W        W62400  22.188  10.664  13.373
61536W        W62401  24.983   8.890  11.481
61537W        W62402  25.078   7.806  14.167
61538W        W62403  24.514  10.015  12.130
61539W        W62404  22.112   8.939  14.307
61540W        W62405  25.078   7.403  11.603
61541W        W62406  24.598   9.878  11.614
61542W        W62407  23.500   8.936  11.699
61543W        W62408  24.687   7.740  11.222
61544W        W62409  24.752   8.347  13.408
61545W        W62410  22.461   8.940  12.615
61546W        W62411  22.755   9.879  12.264
61547W        W62412  24.518   8.499  12.229
61548W        W62413  23.541   7.878  12.925
61549W        W62414  25.503   9.789  13.436
61550W        W62415  25.421   7.776  12.997
61551W        W62416  21.960  10.606  12.373
61552W        W62417  22.469   9.793  11.909
61553W        W62418  22.384   7.410  14.462
61554W        W62419  23.503  10.263  14.564
61555W        W62420  25.258   9.231  12.354
61556W        W62421  24.612   9.408  11.234
61557W        W62422  23.907  10.929  13.446
61558W        W62423  24.764   9.651  14.483
61559W        W62424  23.579   7.361  11.763
61560W        W62425  24.292   8.230  12.622
61561W        W62426  21.978   9.817  12.954
61562W        W62427  23.231   7.779  11.595
61563W        W62428  23.035   9.263  14.444
61564W        W62429  24.029   8.244  12.158
61565W        W62430  24.234   9.654  13.280
61566W        W62431  22.388  10.259  13.715
61567W        W62432  22.979  10.242  14.438
61568W        W62433  22.830   8.039  11.452
61569W        W62434  24.347   8.181  11.777
61570W        W62435  24.305  10.289  14.014
61571W        W62436  22.990   8.881  12.613
61572W        W62437  22.645  10.579  13.478
61573W        W62438  25.390  10.696  11.079
61574W        W62439  22.253   9.368  14.075
61575W        W62440  24.248   9.630  12.763
61576W        W62441  22.684   9.279  12.005
61577W        W62442  23.055  10.286  13.400
61578W        W62443  23.433   7.705  12.441
61579W        W62444  22.044   9.689  11.371
61580W        W62445  23.563   8.640  11.241
61581W        W62446  22.209   9.189  12.260
61582W        W62447  23.499   7.831  13.724
61583W        W62448  25.171   7.540  11.151
61584W        W62449  25.264   9.286  14.250
61585W        W62450  23.918  10.543  14.402
61586W        W62451  25.476   9.637  13.924
61587W        W62452  24.884  10.435  14.535
61588W        W62453  22.623  10.891  13.013
61589W        W62454  25.482   9.513  11.887
61590W        W62455  24.012   8.780  12.400
61591W        W62456  23.779   7.392  12.290
61592W        W62457  22.838  10.376  12.127
61593W        W62458  23.337   8.117  13.352
61594W        W62459  23.037   7.486  12.821
61595W        W62460  22.100  10.308  11.369
61596W        W62461  23.916   9.672  12.087
61597W        W62462  22.791  10.467  13.966
61598W        W62463  22.268   9.290  11.662
61599W        W62464  22.153   7.833  12.661
61600W        W62465  23.701   9.798  12.718
61601W        W62466  21.953   7.652  11.738
61602W        W62467  24.617   8.858  13.665
61603W        W62468  24.494   8.244  11.237
61604W        W62469  25.011   9.916  12.885
61605W        W62470  23.672  10.400  12.716
61606W        W62471  23.084  10.504  11.627
61607W        W62472  24.366   7.407  11.057
61608W        W62473  22.166  10.667  12.798
61609W        W62474  24.363   8.425  14.433
61610W        W62475  22.346   7.955  14.432
61611W        W62476  22.077   8.555  11.765
61612W        W62477  22.768   8.544  11.490
61613W        W62478  24.531   8.871  14.307
61614W        W62479  22.874   9.152  13.016
61615W        W62480  24.348   7.438  12.136
61616W        W62481  23.479  10.869  12.639
61617W        W62482  24.693  10.331  13.576
61618W        W62483  24.277  10.480  12.687
61619W        W62484  24.296   9.460  12.281
61620W        W62485  23.758   7.685  11.352
61621W        W62486  25.439   7.313  12.074
61622W        W62487  23.127   8.948  11.237
61623W        W62488  25.293   8.285  12.227
61624W        W62489  23.985   9.455  11.104
61625W        W62490  24.921   9.655  13.852
61626W        W62491  24.575  10.356  11.319
61627W        W62492  23.190   8.031  14.225
61628W        W62493  23.010   8.615  13.466
61629W        W62494  25.102  10.110  13.743
61630W        W62495  24.202   8.060  14.120
61631W        W62496  22.046   8.531  13.897
61632W        W62497  23.806   9.008  13.623
61633W        W62498  22.163   9.766  12.280
61634W        W62499  22.310   9.063  13.170
61635W        W62500  24.627   9.349  13.520
61636W        W62501  24.399  10.729  14.331
61637W        W62502  24.295   8.468  13.884
61638W        W62503  24.572  10.522  12.289
61639W        W62504  23.574  10.242  13.612
61640W        W62505  23.059  10.597  12.881
61641W        W62506  24.864   9.768  13.300
61642W        W62507  23.914   9.840  14.437
61643W        W62508  22.519   9.793  12.776
61644W        W62509  24.865   9.552  12.421
61645W        W62510  24.506  10.618  13.172
61646W        W62511  22.484  10.347  13.042
61647W        W62512  23.505   8.399  14.252
61648W        W62513  23.956  10.565  11.763
61649W        W62514  23.264   9.820  14.401
61650W        W62515  23.390  10.058  11.778
61651W        W62516  22.611   8.798  11.037
61652W        W62517  21.950  10.884  17.936
61653W        W62518  22.326   9.777  17.459
61654W        W62519  25.031   9.507  15.229
61655W        W62520  25.161  10.592  17.256
61656W        W62521  23.079  10.583  14.782
61657W        W62522  23.162   8.735  15.765
61658W        W62523  22.677   8.583  15.929
61659W        W62524  23.668   9.398  15.363
61660W        W62525  23.343  10.490  17.718
61661W        W62526  21.992   8.051  17.681
61662W        W62527  22.754   7.331  17.483
61663W        W62528  24.448   7.719  16.370
61664W        W62529  24.097   8.590  14.940
61665W        W62530  24.667   8.024  18.031
61666W        W62531  22.033   7.816  17.156
61667W        W62532  22.132  10.435  18.177
61668W        W62533  23.654   9.825  14.909
61669W        W62534  22.086   8.608  16.602
61670W        W62535  22.979   8.499  17.839
61671W        W62536  25.438   8.358  16.338
61672W        W62537  25.202   9.401  17.197
61673W        W62538  23.510   8.734  16.224
61674W        W62539  24.056  10.073  16.593
61675W        W62540  22.556   9.507  16.825
61676W        W62541  21.915   9.035  16.396
61677W        W62542  22.951   9.007  17.588
61678W        W62543  25.222   8.790  17.842
61679W        W62544  22.838  10.234  16.287
61680W        W62545  23.959   9.923  17.421
61681W        W62546  23.179   8.563  16.646
61682W        W62547  23.471   9.347  16.289
61683W        W62548  24.468  10.120  18.137
61684W        W62549  23.547   9.440  18.147
61685W        W62550  23.528   9.156  17.625
61686W        W62551  21.937   8.547  18.147
61687W        W62552  24.769  10.082  17.746
61688W        W62553  22.350   7.664  15.744
61689W        W62554  22.877   9.922  16.743
61690W        W62555  25.340   9.705  16.033
61691W        W62556  24.753   8.105  16.600
61692W        W62557  25.038   8.058  14.695
61693W        W62558  25.503   8.859  17.001
61694W        W62559  23.470  10.566  16.754
61695W        W62560  22.373  10.818  14.946
61696W        W62561  22.766  10.864  15.622
61697W        W62562  22.563   7.618  17.048
61698W        W62563  25.186   8.636  17.323
61699W        W62564  24.591   9.058  15.782
61700W        W62565  24.557   8.746  14.809
61701W        W62566  23.765   9.890  16.949
61702W        W62567  23.571   8.220  16.148
61703W        W62568  24.171  10.307  17.142
61704W        W62569  25.042   9.098  15.564
61705W        W62570  23.944   7.756  15.580
61706W        W62571  22.601  10.450  15.263
61707W        W62572  21.972   7.949  15.862
61708W        W62573  24.758   8.556  16.336
61709W        W62574  22.216  10.173  16.251
61710W        W62575  23.557  10.523  15.121
61711W        W62576  24.949   8.549  14.585
61712W        W62577  21.972  10.307  16.749
61713W        W62578  22.763   9.879  17.229
61714W        W62579  23.136   9.239  15.848
61715W        W62580  23.158   7.644  16.941
61716W        W62581  25.387   7.406  16.238
61717W        W62582  22.606   9.278  14.706
61718W        W62583  22.261   8.311  14.885
61719W        W62584  22.323  10.267  15.679
61720W        W62585  23.454   9.750  15.927
61721W        W62586  24.786  10.609  17.641
61722W        W62587  23.712   8.251  15.325
61723W        W62588  25.095  10.649  16.097
61724W        W62589  24.772   8.502  17.695
61725W        W62590  25.485  10.158  15.829
61726W        W62591  24.112   9.450  17.313
61727W        W62592  21.878   9.001  15.519
61728W        W62593  22.989   9.416  17.092
61729W        W62594  24.193   8.680  15.470
61730W        W62595  24.070   9.170  15.574
61731W        W62596  22.413   8.590  17.048
61732W        W62597  22.398   8.466  17.970
61733W        W62598  22.288   7.383  16.129
61734W        W62599  24.056   7.730  16.690
61735W        W62600  23.704   7.915  17.853
61736W        W62601  24.059   8.064  15.031
61737W        W62602  25.242  10.457  17.785
61738W        W62603  24.209   7.538  17.824
61739W        W62604  25.228   9.839  17.946
61740W        W62605  24.658   8.006  17.542
61741W        W62606  24.458   7.944  15.812
61742W        W62607  24.851   9.078  18.216
61743W        W62608  22.591  10.654  16.202
61744W        W62609  23.249   8.371  15.188
61745W        W62610  22.818   7.655  17.852
61746W        W62611  24.870   8.139  15.533
61747W        W62612  25.237   8.621  15.478
61748W        W62613  22.980  10.838  17.949
61749W        W62614  22.906   7.374  15.184
61750W        W62615  25.227   7.908  16.219
61751W        W62616  25.377  10.157  14.664
61752W        W62617  22.284   9.360  16.366
61753W        W62618  24.201   7.947  14.596
61754W        W62619  25.335  10.279  16.316
61755W        W62620  25.374   7.473  17.066
61756W        W62621  23.819   8.685  17.620
61757W        W62622  23.912  10.024  15.323
61758W        W62623  24.312   9.318  18.063
61759W        W62624  23.986   7.295  16.372
61760W        W62625  22.598   8.198  16.435
61761W        W62626  22.152   9.398  17.209
61762W        W62627  24.011  10.591  15.915
61763W        W62628  25.205   8.188  16.787
61764W        W62629  23.842  10.535  17.554
61765W        W62630  25.185   9.594  14.759
61766W        W62631  23.620   9.077  15.820
61767W        W62632  25.472   7.588  17.561
61768W        W62633  23.621   9.423  17.155
61769W        W62634  23.838   8.309  16.600
61770W        W62635  24.690   8.607  15.438
61771W        W62636  24.977   8.340  15.080
61772W        W62637  24.786  10.380  15.469
61773W        W62638  24.620   9.983  16.265
61774W        W62639  24.516   9.062  15.243
61775W        W62640  23.949   9.272  16.229
61776W        W62641  24.830   9.060  16.296
61777W        W62642  22.205   8.075  16.720
61778W        W62643  24.983   9.127  17.547
61779W        W62644  25.334  10.745  16.693
61780W        W62645  23.264  10.189  16.095
61781W        W62646  24.271  10.722  17.419
61782W        W62647  24.265   8.052  17.183
61783W        W62648  23.472  10.760  17.244
61784W        W62649  25.169   7.714  15.710
61785W        W62650  24.960   9.033  17.011
61786W        W62651  21.943   8.354  17.049
61787W        W62652  24.803   8.149  16.067
61788W        W62653  25.214   8.300  17.844
61789W        W62654  24.099   9.999  16.062
61790W        W62655  23.355  10.590  15.675
61791W        W62656  22.470   7.770  14.933
61792W        W62657  23.574   7.424  16.743
61793W        W62658  22.602  10.544  14.591
61794W        W62659  22.976   9.010  15.342
61795W        W62660  23.630   9.639  17.655
61796W        W62661  23.460   7.997  15.645
61797W        W62662  24.816   7.594  16.073
61798W        W62663  24.536  10.876  16.401
61799W        W62664  23.948  10.524  16.741
61800W        W62665  23.344   9.561  16.702
61801W        W62666  25.114  10.284  16.828
61802W        W62667  22.808   7.787  15.597
61803W        W62668  23.330  10.084  16.557
61804W        W62669  22.813   8.015  14.622
61805W        W62670  23.614   8.624  17.016
61806W        W62671  24.462   7.490  16.886
61807W        W62672  21.882   9.333  16.771
61808W        W62673  23.586   9.151  14.929
61809W        W62674  22.854   7.466  14.699
61810W        W62675  23.592   8.547  15.750
61811W        W62676  24.562   7.523  17.449
61812W        W62677  23.150   9.535  17.558
61813W        W62678  23.954   9.317  17.775
61814W        W62679  24.571   9.347  17.668
61815W        W62680  23.855   7.487  18.173
61816W        W62681  23.077   8.103  16.566
61817W        W62682  22.503   8.059  15.964
61818W        W62683  22.289  10.771  15.640
61819W        W62684  23.621  10.101  17.765
61820W        W62685  22.656   9.586  15.124
61821W        W62686  24.336   8.971  16.345
61822W        W62687  24.616   8.770  16.744
61823W        W62688  23.821   9.444  16.678
61824W        W62689  24.291   9.818  14.810
61825W        W62690  23.963   7.839  16.138
61826W        W62691  25.442   8.117  15.406
61827W        W62692  21.936  10.706  17.437
61828W        W62693  22.353   9.932  16.969
61829W        W62694  21.920  10.778  15.201
61830W        W62695  23.819   8.048  17.007
61831W        W62696  23.182  10.071  14.856
61832W        W62697  25.087  10.453  15.042
61833W        W62698  24.062   9.106  15.056
61834W        W62699  22.905   8.297  15.573
61835W        W62700  23.737   8.207  14.625
61836W        W62701  24.321   9.772  17.803
61837W        W62702  24.674   7.678  15.420
61838W        W62703  22.004   7.526  14.868
61839W        W62704  23.290   9.845  17.158
61840W        W62705  23.089   9.761  16.250
61841W        W62706  22.831   9.713  14.648
61842W        W62707  22.072   9.954  15.416
61843W        W62708  22.576   9.024  17.858
61844W        W62709  23.280   7.584  18.044
61845W        W62710  23.989   7.726  17.400
61846W        W62711  23.184   7.494  15.681
61847W        W62712  24.243   7.571  15.186
61848W        W62713  22.188   7.503  16.763
61849W        W62714  22.236   8.466  16.133
61850W        W62715  24.925   7.574  16.539
61851W        W62716  22.347   8.072  15.353
61852W        W62717  24.918   7.760  16.969
61853W        W62718  25.314   8.963  14.654
61854W        W62719  22.606   7.721  16.473
61855W        W62720  23.720   8.293  17.413
61856W        W62721  21.868   7.983  14.891
61857W        W62722  22.654   9.372  17.452
61858W        W62723  24.012   8.770  16.631
61859W        W62724  23.879  10.849  14.927
61860W        W62725  22.025   9.356  14.624
61861W        W62726  22.760   9.767  17.750
61862W        W62727  22.281   8.934  17.381
61863W        W62728  23.272   9.039  17.175
61864W        W62729  25.040   7.398  17.437
61865W        W62730  25.438   9.008  17.428
61866W        W62731  25.426   9.208  15.114
61867W        W62732  24.289   9.540  15.213
61868W        W62733  24.763  10.840  14.908
61869W        W62734  23.940   8.830  18.050
61870W        W62735  22.270   9.797  18.090
61871W        W62736  25.476   7.719  18.042
61872W        W62737  25.194   8.647  16.663
61873W        W62738  23.502  10.777  18.140
61874W        W62739  23.357   7.406  14.867
61875W        W62740  24.896  10.005  14.810
61876W        W62741  22.665   8.098  17.696
61877W        W62742  23.099  10.092  17.558
61878W        W62743  25.225   8.083  17.356
61879W        W62744  24.436  10.742  15.324
61880W        W62745  24.675   9.361  16.691
61881W        W62746  22.925   7.777  17.358
61882W        W62747  23.394   8.846  18.115
61883W        W62748  22.897  10.025  15.309
61884W        W62749  24.652   9.523  15.573
61885W        W62750  22.420   8.149  17.297
61886W        W62751  23.749  10.211  15.761
61887W        W62752  25.499   8.771  15.942
61888W        W62753  23.721   7.404  17.661
61889W        W62754  24.501  10.109  16.740
61890W        W62755  24.804  10.453  16.448
61891W        W62756  24.023  10.255  14.876
61892W        W62757  22.033  10.147  17.718
61893W        W62758  22.776   8.139  16.956
61894W        W62759  22.746   7.487  16.066
61895W        W62760  24.367   8.329  16.758
61896W        W62761  23.165   9.500  14.958
61897W        W62762  25.163   9.442  16.457
61898W        W62763  22.490  10.200  17.880
61899W        W62764  24.877  10.882  15.677
61900W        W62765  22.976   7.902  16.122
61901W        W62766  22.745   9.395  16.212
61902W        W62767  23.058  10.806  16.962
61903W        W62768  25.125  10.902  17.994
61904W        W62769  24.284   9.090  16.927
61905W        W62770  22.133   8.888  14.842
61906W        W62771  25.267  10.546  15.539
61907W        W62772  25.104   7.870  15.158
61908W        W62773  23.243   7.389  17.561
61909W        W62774  24.949  10.191  16.019
61910W        W62775  24.978   8.747  15.924
61911W        W62776  23.095   8.420  16.140
61912W        W62777  23.340   8.682  17.464
61913W        W62778  24.451   9.835  17.327
61914W        W62779  23.101   8.289  17.439
61915W        W62780  23.080  10.755  16.055
61916W        W62781  22.397  10.714  17.689
61917W        W62782  22.509  10.075  14.819
61918W        W62783  25.026   9.833  15.629
61919W        W62784  22.630   8.625  17.515
61920W        W62785  25.403   8.555  14.996
61921W        W62786  23.148   9.612  15.467
61922W        W62787  24.247   8.994  17.548
61923W        W62788  24.138   8.622  17.092
61924W        W62789  22.698   8.994  17.121
61925W        W62790  24.908  10.882  16.950
61926W        W62791  24.699   7.516  17.944
61927W        W62792  22.363   7.666  17.531
61928W        W62793  22.702   8.689  16.584
61929W        W62794  23.071   8.503  14.706
61930W        W62795  21.874  10.262  17.251
61931W        W62796  23.459   8.971  16.694
61932W        W62797  23.282   7.996  14.799
61933W        W62798  22.417   8.812  15.580
61934W        W62799  22.188  10.664  17.017
61935W        W62800  24.983   8.890  15.125
61936W        W62801  25.078   7.806  17.811
61937W        W62802  24.514  10.015  15.774
61938W        W62803  22.112   8.939  17.951
61939W        W62804  25.078   7.403  15.247
61940W        W62805  24.598   9.878  15.258
61941W        W62806  23.500   8.936  15.343
61942W        W62807  24.687   7.740  14.866
61943W        W62808  24.752   8.347  17.052
61944W        W62809  22.461   8.940  16.259
61945W        W62810  22.755   9.879  15.908
61946W        W62811  24.518   8.499  15.873
61947W        W62812  23.541   7.878  16.569
61948W        W62813  25.503   9.789  17.080
61949W        W62814  25.421   7.776  16.641
61950W        W62815  21.960  10.606  16.017
61951W        W62816  22.469   9.793  15.553
61952W        W62817  22.384   7.410  18.106
61953W        W62818  23.503  10.263  18.208
61954W        W62819  25.258   9.231  15.998
61955W        W62820  24.612   9.408  14.878
61956W        W62821  23.907  10.929  17.090
61957W        W62822  24.764   9.651  18.127
61958W        W62823  23.579   7.361  15.407
61959W        W62824  24.292   8.230  16.266
61960W        W62825  21.978   9.817  16.598
61961W        W62826  23.231   7.779  15.239
61962W        W62827  23.035   9.263  18.088
61963W        W62828  24.029   8.244  15.802
61964W        W62829  24.234   9.654  16.924
61965W        W62830  22.388  10.259  17.359
61966W        W62831  22.979  10.242  18.082
61967W        W62832  22.830   8.039  15.096
61968W        W62833  24.347   8.181  15.421
61969W        W62834  24.305  10.289  17.658
61970W        W62835  22.990   8.881  16.257
61971W        W62836  22.645  10.579  17.122
61972W        W62837  25.390  10.696  14.723
61973W        W62838  22.253   9.368  17.719
61974W        W62839  24.248   9.630  16.407
61975W        W62840  22.684   9.279  15.649
61976W        W62841  23.055  10.286  17.044
61977W        W62842  23.433   7.705  16.085
61978W        W62843  22.044   9.689  15.015
61979W        W62844  23.563   8.640  14.885
61980W        W62845  22.209   9.189  15.904
61981W        W62846  23.499   7.831  17.368
61982W        W62847  25.171   7.540  14.795
61983W        W62848  25.264   9.286  17.894
61984W        W62849  23.918  10.543  18.046
61985W        W62850  25.476   9.637  17.568
61986W        W62851  24.884  10.435  18.179
61987W        W62852  22.623  10.891  16.657
61988W        W62853  25.482   9.513  15.531
61989W        W62854  24.012   8.780  16.044
61990W        W62855  23.779   7.392  15.934
61991W        W62856  22.838  10.376  15.771
61992W        W62857  23.337   8.117  16.996
61993W        W62858  23.037   7.486  16.465
61994W        W62859  22.100  10.308  15.013
61995W        W62860  23.916   9.672  15.731
61996W        W62861  22.791  10.467  17.610
61997W        W62862  22.268   9.290  15.306
61998W        W62863  22.153   7.833  16.305
61999W        W62864  23.701   9.798  16.362
62000W        W62865  21.953   7.652  15.382
62001W        W62866  24.617   8.858  17.309
62002W        W62867  24.494   8.244  14.881
62003W        W62868  25.011   9.916  16.529
62004W        W62869  23.672  10.400  16.360
62005W        W62870  23.084  10.504  15.271
62006W        W62871  24.366   7.407  14.701
62007W        W62872  22.166  10.667  16.442
62008W        W62873  24.363   8.425  18.077
62009W        W62874  22.346   7.955  18.076
62010W        W62875  22.077   8.555  15.409
62011W        W62876  22.768   8.544  15.134
62012W        W62877  24.531   8.871  17.951
62013W        W62878  22.874   9.152  16.660
62014W        W62879  24.348   7.438  15.780
62015W        W62880  23.479  10.869  16.283
62016W        W62881  24.693  10.331  17.220
62017W        W62882  24.277  10.480  16.331
62018W        W62883  24.296   9.460  15.925
62019W        W62884  23.758   7.685  14.996
62020W        W62885  25.439   7.313  15.718
62021W        W62886  23.127   8.948  14.881
62022W        W62887  25.293   8.285  15.871
62023W        W62888  23.985   9.455  14.748
62024W        W62889  24.921   9.655  17.496
62025W        W62890  24.575  10.356  14.963
62026W        W62891  23.190   8.031  17.869
62027W        W62892  23.010   8.615  17.110
62028W        W62893  25.102  10.110  17.387
62029W        W62894  24.202   8.060  17.764
62030W        W62895  22.046   8.531  17.541
62031W        W62896  23.806   9.008  17.267
62032W        W62897  22.163   9.766  15.924
62033W        W62898  22.310   9.063  16.814
62034W        W62899  24.627   9.349  17.164
62035W        W62900  24.399  10.729  17.975
62036W        W62901  24.295   8.468  17.528
62037W        W62902  24.572  10.522  15.933
62038W        W62903  23.574  10.242  17.256
62039W        W62904  23.059  10.597  16.525
62040W        W62905  24.864   9.768  16.944
62041W        W62906  23.914   9.840  18.081
62042W        W62907  22.519   9.793  16.420
62043W        W62908  24.865   9.552  16.065
62044W        W62909  24.506  10.618  16.816
62045W        W62910  22.484  10.347  16.686
62046W        W62911  23.505   8.399  17.896
62047W        W62912  23.956  10.565  15.407
62048W        W62913  23.264   9.820  18.045
62049W        W62914  23.390  10.058  15.422
62050W        W62915  22.611   8.798  14.681
62051W        W62916  21.950  10.884  21.580
62052W        W62917  22.326   9.777  21.103
62053W        W62918  25.031   9.507  18.873
62054W        W62919  25.161  10.592  20.900
62055W        W62920  23.079  10.583  18.426
62056W        W62921  23.162   8.735  19.409
62057W        W62922  22.677   8.583  19.573
62058W        W62923  23.668   9.398  19.007
62059W        W62924  23.343  10.490  21.362
62060W        W62925  21.992   8.051  21.325
62061W        W62926  22.754   7.331  21.127
62062W        W62927  24.448   7.719  20.014
62063W        W62928  24.097   8.590  18.584
62064W        W62929  24.667   8.024  21.675
62065W        W62930  22.033   7.816  20.800
62066W        W62931  22.132  10.435  21.821
62067W        W62932  23.654   9.825  18.553
62068W        W62933  22.086   8.608  20.246
62069W        W62934  22.979   8.499  21.483
62070W        W62935  25.438   8.358  19.982
62071W        W62936  25.202   9.401  20.841
62072W        W62937  23.510   8.734  19.868
62073W        W62938  24.056  10.073  20.237
62074W        W62939  22.556   9.507  20.469
62075W        W62940  21.915   9.035  20.040
62076W        W62941  22.951   9.007  21.232
62077W        W62942  25.222   8.790  21.486
62078W        W62943  22.838  10.234  19.931
62079W        W62944  23.959   9.923  21.065
62080W        W62945  23.179   8.563  20.290
62081W        W62946  23.471   9.347  19.933
62082W        W62947  24.468  10.120  21.781
62083W        W62948  23.547   9.440  21.791
62084W        W62949  23.528   9.156  21.269
62085W        W62950  21.937   8.547  21.791
62086W        W62951  24.769  10.082  21.390
62087W        W62952  22.350   7.664  19.388
62088W        W62953  22.877   9.922  20.387
62089W        W62954  25.340   9.705  19.677
62090W        W62955  24.753   8.105  20.244
62091W        W62956  25.038   8.058  18.339
62092W        W62957  25.503   8.859  20.645
62093W        W62958  23.470  10.566  20.398
62094W        W62959  25.244  10.032  18.836
62095W        W62960  22.373  10.818  18.590
62096W        W62961  22.766  10.864  19.266
62097W        W62962  22.563   7.618  20.692
62098W        W62963  25.186   8.636  20.967
62099W        W62964  24.591   9.058  19.426
62100W        W62965  24.557   8.746  18.453
62101W        W62966  23.765   9.890  20.593
62102W        W62967  23.571   8.220  19.792
62103W        W62968  24.171  10.307  20.786
62104W        W62969  25.042   9.098  19.208
62105W        W62970  23.944   7.756  19.224
62106W        W62971  22.601  10.450  18.907
62107W        W62972  21.972   7.949  19.506
62108W        W62973  24.758   8.556  19.980
62109W        W62974  22.216  10.173  19.895
62110W        W62975  23.557  10.523  18.765
62111W        W62976  24.949   8.549  18.229
62112W        W62977  21.972  10.307  20.393
62113W        W62978  22.763   9.879  20.873
62114W        W62979  23.136   9.239  19.492
62115W        W62980  23.158   7.644  20.585
62116W        W62981  25.387   7.406  19.882
62117W        W62982  22.606   9.278  18.350
62118W        W62983  22.261   8.311  18.529
62119W        W62984  22.323  10.267  19.323
62120W        W62985  23.454   9.750  19.571
62121W        W62986  24.786  10.609  21.285
62122W        W62987  23.712   8.251  18.969
62123W        W62988  25.095  10.649  19.741
62124W        W62989  24.772   8.502  21.339
62125W        W62990  25.485  10.158  19.473
62126W        W62991  24.112   9.450  20.957
62127W        W62992  21.878   9.001  19.163
62128W        W62993  22.989   9.416  20.736
62129W        W62994  24.193   8.680  19.114
62130W        W62995  24.070   9.170  19.218
62131W        W62996  22.413   8.590  20.692
62132W        W62997  22.398   8.466  21.614
62133W        W62998  22.288   7.383  19.773
62134W        W62999  24.056   7.730  20.334
62135W        W63000  23.704   7.915  21.497
62136W        W63001  24.059   8.064  18.675
62137W        W63002  25.242  10.457  21.429
62138W        W63003  24.209   7.538  21.468
62139W        W63004  25.228   9.839  21.590
62140W        W63005  24.658   8.006  21.186
62141W        W63006  24.458   7.944  19.456
62142W        W63007  24.851   9.078  21.860
62143W        W63008  22.591  10.654  19.846
62144W        W63009  23.249   8.371  18.832
62145W        W63010  22.818   7.655  21.496
62146W        W63011  24.870   8.139  19.177
62147W        W63012  25.237   8.621  19.122
62148W        W63013  22.980  10.838  21.593
62149W        W63014  22.906   7.374  18.828
62150W        W63015  25.227   7.908  19.863
62151W        W63016  25.377  10.157  18.308
62152W        W63017  22.284   9.360  20.010
62153W        W63018  24.201   7.947  18.240
62154W        W63019  25.335  10.279  19.960
62155W        W63020  25.374   7.473  20.710
62156W        W63021  23.819   8.685  21.264
62157W        W63022  23.912  10.024  18.967
62158W        W63023  24.312   9.318  21.707
62159W        W63024  23.986   7.295  20.016
62160W        W63025  22.598   8.198  20.079
62161W        W63026  22.152   9.398  20.853
62162W        W63027  24.011  10.591  19.559
62163W        W63028  25.205   8.188  20.431
62164W        W63029  23.842  10.535  21.198
62165W        W63030  25.185   9.594  18.403
62166W        W63031  23.620   9.077  19.464
62167W        W63032  25.472   7.588  21.205
62168W        W63033  23.621   9.423  20.799
62169W        W63034  23.838   8.309  20.244
62170W        W63035  24.690   8.607  19.082
62171W        W63036  24.977   8.340  18.724
62172W        W63037  24.786  10.380  19.113
62173W        W63038  24.620   9.983  19.909
62174W        W63039  24.516   9.062  18.887
62175W        W63040  23.949   9.272  19.873
62176W        W63041  24.830   9.060  19.940
62177W        W63042  22.205   8.075  20.364
62178W        W63043  24.983   9.127  21.191
62179W        W63044  25.334  10.745  20.337
62180W        W63045  23.264  10.189  19.739
62181W        W63046  24.271  10.722  21.063
62182W        W63047  24.265   8.052  20.827
62183W        W63048  23.472  10.760  20.888
62184W        W63049  25.169   7.714  19.354
62185W        W63050  24.960   9.033  20.655
62186W        W63051  21.943   8.354  20.693
62187W        W63052  24.803   8.149  19.711
62188W        W63053  25.214   8.300  21.488
62189W        W63054  24.099   9.999  19.706
62190W        W63055  23.355  10.590  19.319
62191W        W63056  22.470   7.770  18.577
62192W        W63057  23.574   7.424  20.387
62193W        W63058  22.602  10.544  18.235
62194W        W63059  22.976   9.010  18.986
62195W        W63060  23.630   9.639  21.299
62196W        W63061  23.460   7.997  19.289
62197W        W63062  24.816   7.594  19.717
62198W        W63063  24.536  10.876  20.045
62199W        W63064  23.948  10.524  20.385
62200W        W63065  23.344   9.561  20.346
62201W        W63066  25.114  10.284  20.472
62202W        W63067  22.808   7.787  19.241
62203W        W63068  23.330  10.084  20.201
62204W        W63069  22.813   8.015  18.266
62205W        W63070  23.614   8.624  20.660
62206W        W63071  24.462   7.490  20.530
62207W        W63072  21.882   9.333  20.415
62208W        W63073  23.586   9.151  18.573
62209W        W63074  22.854   7.466  18.343
62210W        W63075  23.592   8.547  19.394
62211W        W63076  24.562   7.523  21.093
62212W        W63077  23.150   9.535  21.202
62213W        W63078  23.954   9.317  21.419
62214W        W63079  24.571   9.347  21.312
62215W        W63080  23.855   7.487  21.817
62216W        W63081  23.077   8.103  20.210
62217W        W63082  22.503   8.059  19.608
62218W        W63083  22.289  10.771  19.284
62219W        W63084  23.621  10.101  21.409
62220W        W63085  22.656   9.586  18.768
62221W        W63086  24.336   8.971  19.989
62222W        W63087  24.616   8.770  20.388
62223W        W63088  23.821   9.444  20.322
62224W        W63089  24.291   9.818  18.454
62225W        W63090  23.963   7.839  19.782
62226W        W63091  25.442   8.117  19.050
62227W        W63092  21.936  10.706  21.081
62228W        W63093  22.353   9.932  20.613
62229W        W63094  21.920  10.778  18.845
62230W        W63095  23.819   8.048  20.651
62231W        W63096  23.182  10.071  18.500
62232W        W63097  25.087  10.453  18.686
62233W        W63098  24.062   9.106  18.700
62234W        W63099  22.905   8.297  19.217
62235W        W63100  23.737   8.207  18.269
62236W        W63101  24.321   9.772  21.447
62237W        W63102  24.674   7.678  19.064
62238W        W63103  22.004   7.526  18.512
62239W        W63104  23.290   9.845  20.802
62240W        W63105  23.089   9.761  19.894
62241W        W63106  22.831   9.713  18.292
62242W        W63107  22.072   9.954  19.060
62243W        W63108  22.576   9.024  21.502
62244W        W63109  23.280   7.584  21.688
62245W        W63110  23.989   7.726  21.044
62246W        W63111  23.184   7.494  19.325
62247W        W63112  24.243   7.571  18.830
62248W        W63113  22.188   7.503  20.407
62249W        W63114  22.236   8.466  19.777
62250W        W63115  24.925   7.574  20.183
62251W        W63116  22.347   8.072  18.997
62252W        W63117  24.918   7.760  20.613
62253W        W63118  25.314   8.963  18.298
62254W        W63119  22.606   7.721  20.117
62255W        W63120  23.720   8.293  21.057
62256W        W63121  21.868   7.983  18.535
62257W        W63122  22.654   9.372  21.096
62258W        W63123  24.012   8.770  20.275
62259W        W63124  23.879  10.849  18.571
62260W        W63125  22.025   9.356  18.268
62261W        W63126  22.760   9.767  21.394
62262W        W63127  22.281   8.934  21.025
62263W        W63128  23.272   9.039  20.819
62264W        W63129  25.040   7.398  21.081
62265W        W63130  25.438   9.008  21.072
62266W        W63131  25.426   9.208  18.758
62267W        W63132  24.289   9.540  18.857
62268W        W63133  24.763  10.840  18.552
62269W        W63134  23.940   8.830  21.694
62270W        W63135  22.270   9.797  21.734
62271W        W63136  25.476   7.719  21.686
62272W        W63137  25.194   8.647  20.307
62273W        W63138  23.502  10.777  21.784
62274W        W63139  23.357   7.406  18.511
62275W        W63140  24.896  10.005  18.454
62276W        W63141  22.665   8.098  21.340
62277W        W63142  23.099  10.092  21.202
62278W        W63143  25.225   8.083  21.000
62279W        W63144  24.436  10.742  18.968
62280W        W63145  24.675   9.361  20.335
62281W        W63146  22.925   7.777  21.002
62282W        W63147  23.394   8.846  21.759
62283W        W63148  22.897  10.025  18.953
62284W        W63149  24.652   9.523  19.217
62285W        W63150  22.420   8.149  20.941
62286W        W63151  23.749  10.211  19.405
62287W        W63152  25.499   8.771  19.586
62288W        W63153  23.721   7.404  21.305
62289W        W63154  24.501  10.109  20.384
62290W        W63155  24.804  10.453  20.092
62291W        W63156  24.023  10.255  18.520
62292W        W63157  22.033  10.147  21.362
62293W        W63158  22.776   8.139  20.600
62294W        W63159  22.746   7.487  19.710
62295W        W63160  24.367   8.329  20.402
62296W        W63161  23.165   9.500  18.602
62297W        W63162  25.163   9.442  20.101
62298W        W63163  22.490  10.200  21.524
62299W        W63164  24.877  10.882  19.321
62300W        W63165  22.976   7.902  19.766
62301W        W63166  22.745   9.395  19.856
62302W        W63167  23.058  10.806  20.606
62303W        W63168  25.125  10.902  21.638
62304W        W63169  24.284   9.090  20.571
62305W        W63170  22.133   8.888  18.486
62306W        W63171  25.267  10.546  19.183
62307W        W63172  25.104   7.870  18.802
62308W        W63173  23.243   7.389  21.205
62309W        W63174  24.949  10.191  19.663
62310W        W63175  24.978   8.747  19.568
62311W        W63176  23.095   8.420  19.784
62312W        W63177  23.340   8.682  21.108
62313W        W63178  24.451   9.835  20.971
62314W        W63179  23.101   8.289  21.083
62315W        W63180  23.080  10.755  19.699
62316W        W63181  22.397  10.714  21.333
62317W        W63182  22.509  10.075  18.463
62318W        W63183  25.026   9.833  19.273
62319W        W63184  22.630   8.625  21.159
62320W        W63185  25.403   8.555  18.640
62321W        W63186  23.148   9.612  19.111
62322W        W63187  24.247   8.994  21.192
62323W        W63188  24.138   8.622  20.736
62324W        W63189  22.698   8.994  20.765
62325W        W63190  24.908  10.882  20.594
62326W        W63191  24.699   7.516  21.588
62327W        W63192  22.363   7.666  21.175
62328W        W63193  22.702   8.689  20.228
62329W        W63194  23.071   8.503  18.350
62330W        W63195  21.874  10.262  20.895
62331W        W63196  23.459   8.971  20.338
62332W        W63197  23.282   7.996  18.443
62333W        W63198  22.417   8.812  19.224
62334W        W63199  22.188  10.664  20.661
62335W        W63200  24.983   8.890  18.769
62336W        W63201  25.078   7.806  21.455
62337W        W63202  24.514  10.015  19.418
62338W        W63203  22.112   8.939  21.595
62339W        W63204  25.078   7.403  18.891
62340W        W63205  24.598   9.878  18.902
62341W        W63206  23.500   8.936  18.987
62342W        W63207  24.687   7.740  18.510
62343W        W63208  24.752   8.347  20.696
62344W        W63209  22.461   8.940  19.903
62345W        W63210  22.755   9.879  19.552
62346W        W63211  24.518   8.499  19.517
62347W        W63212  23.541   7.878  20.213
62348W        W63213  25.503   9.789  20.724
62349W        W63214  25.421   7.776  20.285
62350W        W63215  21.960  10.606  19.661
62351W        W63216  22.469   9.793  19.197
62352W        W63217  22.384   7.410  21.750
62353W        W63218  23.503  10.263  21.852
62354W        W63219  25.258   9.231  19.642
62355W        W63220  24.612   9.408  18.522
62356W        W63221  23.907  10.929  20.734
62357W        W63222  24.764   9.651  21.771
62358W        W63223  23.579   7.361  19.051
62359W        W63224  24.292   8.230  19.910
62360W        W63225  21.978   9.817  20.242
62361W        W63226  23.231   7.779  18.883
62362W        W63227  23.035   9.263  21.732
62363W        W63228  24.029   8.244  19.446
62364W        W63229  24.234   9.654  20.568
62365W        W63230  22.388  10.259  21.003
62366W        W63231  22.979  10.242  21.726
62367W        W63232  22.830   8.039  18.740
62368W        W63233  24.347   8.181  19.065
62369W        W63234  24.305  10.289  21.302
62370W        W63235  22.990   8.881  19.901
62371W        W63236  22.645  10.579  20.766
62372W        W63237  25.390  10.696  18.367
62373W        W63238  22.253   9.368  21.363
62374W        W63239  24.248   9.630  20.051
62375W        W63240  22.684   9.279  19.293
62376W        W63241  23.055  10.286  20.688
62377W        W63242  23.433   7.705  19.729
62378W        W63243  22.044   9.689  18.659
62379W        W63244  23.563   8.640  18.529
62380W        W63245  22.209   9.189  19.548
62381W        W63246  23.499   7.831  21.012
62382W        W63247  25.171   7.540  18.439
62383W        W63248  25.264   9.286  21.538
62384W        W63249  23.918  10.543  21.690
62385W        W63250  25.476   9.637  21.212
62386W        W63251  24.884  10.435  21.823
62387W        W63252  22.623  10.891  20.301
62388W        W63253  25.482   9.513  19.175
62389W        W63254  24.012   8.780  19.688
62390W        W63255  23.779   7.392  19.578
62391W        W63256  22.838  10.376  19.415
62392W        W63257  23.337   8.117  20.640
62393W        W63258  23.037   7.486  20.109
62394W        W63259  22.100  10.308  18.657
62395W        W63260  23.916   9.672  19.375
62396W        W63261  22.791  10.467  21.254
62397W        W63262  22.268   9.290  18.950
62398W        W63263  22.153   7.833  19.949
62399W        W63264  23.701   9.798  20.006
62400W        W63265  21.953   7.652  19.026
62401W        W63266  24.617   8.858  20.953
62402W        W63267  24.494   8.244  18.525
62403W        W63268  25.011   9.916  20.173
62404W        W63269  23.672  10.400  20.004
62405W        W63270  23.084  10.504  18.915
62406W        W63271  24.366   7.407  18.345
62407W        W63272  22.166  10.667  20.086
62408W        W63273  24.363   8.425  21.721
62409W        W63274  22.346   7.955  21.720
62410W        W63275  22.077   8.555  19.053
62411W        W63276  22.768   8.544  18.778
62412W        W63277  24.531   8.871  21.595
62413W        W63278  22.874   9.152  20.304
62414W        W63279  24.348   7.438  19.424
62415W        W63280  23.479  10.869  19.927
62416W        W63281  24.693  10.331  20.864
62417W        W63282  24.277  10.480  19.975
62418W        W63283  24.296   9.460  19.569
62419W        W63284  23.758   7.685  18.640
62420W        W63285  25.439   7.313  19.362
62421W        W63286  23.127   8.948  18.525
62422W        W63287  25.293   8.285  19.515
62423W        W63288  23.985   9.455  18.392
62424W        W63289  24.921   9.655  21.140
62425W        W63290  24.575  10.356  18.607
62426W        W63291  23.190   8.031  21.513
62427W        W63292  23.010   8.615  20.754
62428W        W63293  25.102  10.110  21.031
62429W        W63294  24.202   8.060  21.408
62430W        W63295  22.046   8.531  21.185
62431W        W63296  23.806   9.008  20.911
62432W        W63297  22.163   9.766  19.568
62433W        W63298  22.310   9.063  20.458
62434W        W63299  24.627   9.349  20.808
62435W        W63300  24.399  10.729  21.619
62436W        W63301  24.295   8.468  21.172
62437W        W63302  24.572  10.522  19.577
62438W        W63303  23.574  10.242  20.900
62439W        W63304  23.059  10.597  20.169
62440W        W63305  24.864   9.768  20.588
62441W        W63306  23.914   9.840  21.725
62442W        W63307  22.519   9.793  20.064
62443W        W63308  24.865   9.552  19.709
62444W        W63309  24.506  10.618  20.460
62445W        W63310  22.484  10.347  20.330
62446W        W63311  23.505   8.399  21.540
62447W        W63312  23.956  10.565  19.051
62448W        W63313  23.264   9.820  21.689
62449W        W63314  23.390  10.058  19.066
62450W        W63315  22.611   8.798  18.325
62451W        W63316  21.950  10.884  25.225
62452W        W63317  22.326   9.777  24.748
62453W        W63318  25.031   9.507  22.518
62454W        W63319  25.161  10.592  24.545
62455W        W63320  23.079  10.583  22.071
62456W        W63321  23.162   8.735  23.054
62457W        W63322  22.677   8.583  23.218
62458W        W63323  23.668   9.398  22.652
62459W        W63324  23.343  10.490  25.007
62460W        W63325  21.992   8.051  24.970
62461W        W63326  22.754   7.331  24.772
62462W        W63327  24.448   7.719  23.659
62463W        W63328  24.097   8.590  22.229
62464W        W63329  24.667   8.024  25.320
62465W        W63330  22.033   7.816  24.445
62466W        W63331  22.132  10.435  25.466
62467W        W63332  23.654   9.825  22.198
62468W        W63333  22.086   8.608  23.891
62469W        W63334  22.979   8.499  25.128
62470W        W63335  25.438   8.358  23.627
62471W        W63336  25.202   9.401  24.486
62472W        W63337  23.510   8.734  23.513
62473W        W63338  24.056  10.073  23.882
62474W        W63339  22.556   9.507  24.114
62475W        W63340  21.915   9.035  23.685
62476W        W63341  22.951   9.007  24.877
62477W        W63342  25.222   8.790  25.131
62478W        W63343  22.838  10.234  23.576
62479W        W63344  23.959   9.923  24.710
62480W        W63345  23.179   8.563  23.935
62481W        W63346  23.471   9.347  23.578
62482W        W63347  24.468  10.120  25.426
62483W        W63348  23.547   9.440  25.436
62484W        W63349  23.528   9.156  24.914
62485W        W63350  21.937   8.547  25.436
62486W        W63351  24.769  10.082  25.035
62487W        W63352  22.350   7.664  23.033
62488W        W63353  22.877   9.922  24.032
62489W        W63354  25.340   9.705  23.322
62490W        W63355  24.753   8.105  23.889
62491W        W63356  25.038   8.058  21.984
62492W        W63357  25.503   8.859  24.290
62493W        W63358  23.470  10.566  24.043
62494W        W63359  25.244  10.032  22.481
62495W        W63360  22.373  10.818  22.235
62496W        W63361  22.766  10.864  22.911
62497W        W63362  22.563   7.618  24.337
62498W        W63363  25.186   8.636  24.612
62499W        W63364  24.591   9.058  23.071
62500W        W63365  24.557   8.746  22.098
62501W        W63366  23.765   9.890  24.238
62502W        W63367  23.571   8.220  23.437
62503W        W63368  24.171  10.307  24.431
62504W        W63369  25.042   9.098  22.853
62505W        W63370  23.944   7.756  22.869
62506W        W63371  22.601  10.450  22.552
62507W        W63372  21.972   7.949  23.151
62508W        W63373  24.758   8.556  23.625
62509W        W63374  22.216  10.173  23.540
62510W        W63375  23.557  10.523  22.410
62511W        W63376  24.949   8.549  21.874
62512W        W63377  21.972  10.307  24.038
62513W        W63378  22.763   9.879  24.518
62514W        W63379  23.136   9.239  23.137
62515W        W63380  23.158   7.644  24.230
62516W        W63381  25.387   7.406  23.527
62517W        W63382  22.606   9.278  21.995
62518W        W63383  22.261   8.311  22.174
62519W        W63384  22.323  10.267  22.968
62520W        W63385  23.454   9.750  23.216
62521W        W63386  24.786  10.609  24.930
62522W        W63387  23.712   8.251  22.614
62523W        W63388  25.095  10.649  23.386
62524W        W63389  24.772   8.502  24.984
62525W        W63390  25.485  10.158  23.118
62526W        W63391  24.112   9.450  24.602
62527W        W63392  21.878   9.001  22.808
62528W        W63393  22.989   9.416  24.381
62529W        W63394  24.193   8.680  22.759
62530W        W63395  24.070   9.170  22.863
62531W        W63396  22.413   8.590  24.337
62532W        W63397  22.398   8.466  25.259
62533W        W63398  22.288   7.383  23.418
62534W        W63399  24.056   7.730  23.979
62535W        W63400  23.704   7.915  25.142
62536W        W63401  24.059   8.064  22.320
62537W        W63402  25.242  10.457  25.074
62538W        W63403  24.209   7.538  25.113
62539W        W63404  25.228   9.839  25.235
62540W        W63405  24.658   8.006  24.831
62541W        W63406  24.458   7.944  23.101
62542W        W63407  24.851   9.078  25.505
62543W        W63408  22.591  10.654  23.491
62544W        W63409  23.249   8.371  22.477
62545W        W63410  22.818   7.655  25.141
62546W        W63411  24.870   8.139  22.822
62547W        W63412  25.237   8.621  22.767
62548W        W63413  22.980  10.838  25.238
62549W        W63414  22.906   7.374  22.473
62550W        W63415  25.227   7.908  23.508
62551W        W63416  25.377  10.157  21.953
62552W        W63417  22.284   9.360  23.655
62553W        W63418  24.201   7.947  21.885
62554W        W63419  25.335  10.279  23.605
62555W        W63420  25.374   7.473  24.355
62556W        W63421  23.819   8.685  24.909
62557W        W63422  23.912  10.024  22.612
62558W        W63423  24.312   9.318  25.352
62559W        W63424  23.986   7.295  23.661
62560W        W63425  22.598   8.198  23.724
62561W        W63426  22.152   9.398  24.498
62562W        W63427  24.011  10.591  23.204
62563W        W63428  25.205   8.188  24.076
62564W        W63429  23.842  10.535  24.843
62565W        W63430  25.185   9.594  22.048
62566W        W63431  23.620   9.077  23.109
62567W        W63432  25.472   7.588  24.850
62568W        W63433  23.621   9.423  24.444
62569W        W63434  23.838   8.309  23.889
62570W        W63435  24.690   8.607  22.727
62571W        W63436  24.977   8.340  22.369
62572W        W63437  24.786  10.380  22.758
62573W        W63438  24.620   9.983  23.554
62574W        W63439  24.516   9.062  22.532
62575W        W63440  23.949   9.272  23.518
62576W        W63441  24.830   9.060  23.585
62577W        W63442  22.205   8.075  24.009
62578W        W63443  24.983   9.127  24.836
62579W        W63444  25.334  10.745  23.982
62580W        W63445  23.264  10.189  23.384
62581W        W63446  24.271  10.722  24.708
62582W        W63447  24.265   8.052  24.472
62583W        W63448  23.472  10.760  24.533
62584W        W63449  25.169   7.714  22.999
62585W        W63450  24.960   9.033  24.300
62586W        W63451  21.943   8.354  24.338
62587W        W63452  24.803   8.149  23.356
62588W        W63453  25.214   8.300  25.133
62589W        W63454  24.099   9.999  23.351
62590W        W63455  23.355  10.590  22.964
62591W        W63456  22.470   7.770  22.222
62592W        W63457  23.574   7.424  24.032
62593W        W63458  22.602  10.544  21.880
62594W        W63459  22.976   9.010  22.631
62595W        W63460  23.630   9.639  24.944
62596W        W63461  23.460   7.997  22.934
62597W        W63462  24.816   7.594  23.362
62598W        W63463  24.536  10.876  23.690
62599W        W63464  23.948  10.524  24.030
62600W        W63465  23.344   9.561  23.991
62601W        W63466  25.114  10.284  24.117
62602W        W63467  22.808   7.787  22.886
62603W        W63468  23.330  10.084  23.846
62604W        W63469  22.813   8.015  21.911
62605W        W63470  23.614   8.624  24.305
62606W        W63471  24.462   7.490  24.175
62607W        W63472  21.882   9.333  24.060
62608W        W63473  23.586   9.151  22.218
62609W        W63474  22.854   7.466  21.988
62610W        W63475  23.592   8.547  23.039
62611W        W63476  24.562   7.523  24.738
62612W        W63477  23.150   9.535  24.847
62613W        W63478  23.954   9.317  25.064
62614W        W63479  24.571   9.347  24.957
62615W        W63480  23.855   7.487  25.462
62616W        W63481  23.077   8.103  23.855
62617W        W63482  22.503   8.059  23.253
62618W        W63483  22.289  10.771  22.929
62619W        W63484  23.621  10.101  25.054
62620W        W63485  22.656   9.586  22.413
62621W        W63486  24.336   8.971  23.634
62622W        W63487  24.616   8.770  24.033
62623W        W63488  23.821   9.444  23.967
62624W        W63489  24.291   9.818  22.099
62625W        W63490  23.963   7.839  23.427
62626W        W63491  25.442   8.117  22.695
62627W        W63492  21.936  10.706  24.726
62628W        W63493  22.353   9.932  24.258
62629W        W63494  21.920  10.778  22.490
62630W        W63495  23.819   8.048  24.296
62631W        W63496  23.182  10.071  22.145
62632W        W63497  25.087  10.453  22.331
62633W        W63498  24.062   9.106  22.345
62634W        W63499  22.905   8.297  22.862
62635W        W63500  23.737   8.207  21.914
62636W        W63501  24.321   9.772  25.092
62637W        W63502  24.674   7.678  22.709
62638W        W63503  22.004   7.526  22.157
62639W        W63504  23.290   9.845  24.447
62640W        W63505  23.089   9.761  23.539
62641W        W63506  22.831   9.713  21.937
62642W        W63507  22.072   9.954  22.705
62643W        W63508  22.576   9.024  25.147
62644W        W63509  23.280   7.584  25.333
62645W        W63510  23.989   7.726  24.689
62646W        W63511  23.184   7.494  22.970
62647W        W63512  24.243   7.571  22.475
62648W        W63513  22.188   7.503  24.052
62649W        W63514  22.236   8.466  23.422
62650W        W63515  24.925   7.574  23.828
62651W        W63516  22.347   8.072  22.642
62652W        W63517  24.918   7.760  24.258
62653W        W63518  25.314   8.963  21.943
62654W        W63519  22.606   7.721  23.762
62655W        W63520  23.720   8.293  24.702
62656W        W63521  21.868   7.983  22.180
62657W        W63522  22.654   9.372  24.741
62658W        W63523  24.012   8.770  23.920
62659W        W63524  23.879  10.849  22.216
62660W        W63525  22.025   9.356  21.913
62661W        W63526  22.760   9.767  25.039
62662W        W63527  22.281   8.934  24.670
62663W        W63528  23.272   9.039  24.464
62664W        W63529  25.040   7.398  24.726
62665W        W63530  25.438   9.008  24.717
62666W        W63531  25.426   9.208  22.403
62667W        W63532  24.289   9.540  22.502
62668W        W63533  24.763  10.840  22.197
62669W        W63534  23.940   8.830  25.339
62670W        W63535  22.270   9.797  25.379
62671W        W63536  25.476   7.719  25.331
62672W        W63537  25.194   8.647  23.952
62673W        W63538  23.502  10.777  25.429
62674W        W63539  23.357   7.406  22.156
62675W        W63540  24.896  10.005  22.099
62676W        W63541  22.665   8.098  24.985
62677W        W63542  23.099  10.092  24.847
62678W        W63543  25.225   8.083  24.645
62679W        W63544  24.436  10.742  22.613
62680W        W63545  24.675   9.361  23.980
62681W        W63546  22.925   7.777  24.647
62682W        W63547  23.394   8.846  25.404
62683W        W63548  22.897  10.025  22.598
62684W        W63549  24.652   9.523  22.862
62685W        W63550  22.420   8.149  24.586
62686W        W63551  23.749  10.211  23.050
62687W        W63552  25.499   8.771  23.231
62688W        W63553  23.721   7.404  24.950
62689W        W63554  24.501  10.109  24.029
62690W        W63555  24.804  10.453  23.737
62691W        W63556  24.023  10.255  22.165
62692W        W63557  22.033  10.147  25.007
62693W        W63558  22.776   8.139  24.245
62694W        W63559  22.746   7.487  23.355
62695W        W63560  24.367   8.329  24.047
62696W        W63561  23.165   9.500  22.247
62697W        W63562  25.163   9.442  23.746
62698W        W63563  22.490  10.200  25.169
62699W        W63564  24.877  10.882  22.966
62700W        W63565  22.976   7.902  23.411
62701W        W63566  22.745   9.395  23.501
62702W        W63567  23.058  10.806  24.251
62703W        W63568  25.125  10.902  25.283
62704W        W63569  24.284   9.090  24.216
62705W        W63570  22.133   8.888  22.131
62706W        W63571  25.267  10.546  22.828
62707W        W63572  25.104   7.870  22.447
62708W        W63573  23.243   7.389  24.850
62709W        W63574  24.949  10.191  23.308
62710W        W63575  24.978   8.747  23.213
62711W        W63576  23.095   8.420  23.429
62712W        W63577  23.340   8.682  24.753
62713W        W63578  24.451   9.835  24.616
62714W        W63579  23.101   8.289  24.728
62715W        W63580  23.080  10.755  23.344
62716W        W63581  22.397  10.714  24.978
62717W        W63582  22.509  10.075  22.108
62718W        W63583  25.026   9.833  22.918
62719W        W63584  22.630   8.625  24.804
62720W        W63585  25.403   8.555  22.285
62721W        W63586  23.148   9.612  22.756
62722W        W63587  24.247   8.994  24.837
62723W        W63588  24.138   8.622  24.381
62724W        W63589  22.698   8.994  24.410
62725W        W63590  24.908  10.882  24.239
62726W        W63591  24.699   7.516  25.233
62727W        W63592  22.363   7.666  24.820
62728W        W63593  22.702   8.689  23.873
62729W        W63594  23.071   8.503  21.995
62730W        W63595  21.874  10.262  24.540
62731W        W63596  23.459   8.971  23.983
62732W        W63597  23.282   7.996  22.088
62733W        W63598  22.417   8.812  22.869
62734W        W63599  22.188  10.664  24.306
62735W        W63600  24.983   8.890  22.414
62736W        W63601  25.078   7.806  25.100
62737W        W63602  24.514  10.015  23.063
62738W        W63603  22.112   8.939  25.240
62739W        W63604  25.078   7.403  22.536
62740W        W63605  24.598   9.878  22.547
62741W        W63606  23.500   8.936  22.632
62742W        W63607  24.687   7.740  22.155
62743W        W63608  24.752   8.347  24.341
62744W        W63609  22.461   8.940  23.548
62745W        W63610  22.755   9.879  23.197
62746W        W63611  24.518   8.499  23.162
62747W        W63612  23.541   7.878  23.858
62748W        W63613  25.503   9.789  24.369
62749W        W63614  25.421   7.776  23.930
62750W        W63615  21.960  10.606  23.306
62751W        W63616  22.469   9.793  22.842
62752W        W63617  22.384   7.410  25.395
62753W        W63618  23.503  10.263  25.497
62754W        W63619  25.258   9.231  23.287
62755W        W63620  24.612   9.408  22.167
62756W        W63621  23.907  10.929  24.379
62757W        W63622  24.764   9.651  25.416
62758W        W63623  23.579   7.361  22.696
62759W        W63624  24.292   8.230  23.555
62760W        W63625  21.978   9.817  23.887
62761W        W63626  23.231   7.779  22.528
62762W        W63627  23.035   9.263  25.377
62763W        W63628  24.029   8.244  23.091
62764W        W63629  24.234   9.654  24.213
62765W        W63630  22.388  10.259  24.648
62766W        W63631  22.979  10.242  25.371
62767W        W63632  22.830   8.039  22.385
62768W        W63633  24.347   8.181  22.710
62769W        W63634  24.305  10.289  24.947
62770W        W63635  22.990   8.881  23.546
62771W        W63636  22.645  10.579  24.411
62772W        W63637  25.390  10.696  22.012
62773W        W63638  22.253   9.368  25.008
62774W        W63639  24.248   9.630  23.696
62775W        W63640  22.684   9.279  22.938
62776W        W63641  23.055  10.286  24.333
62777W        W63642  23.433   7.705  23.374
62778W        W63643  22.044   9.689  22.304
62779W        W63644  23.563   8.640  22.174
62780W        W63645  22.209   9.189  23.193
62781W        W63646  23.499   7.831  24.657
62782W        W63647  25.171   7.540  22.084
62783W        W63648  25.264   9.286  25.183
62784W        W63649  23.918  10.543  25.335
62785W        W63650  25.476   9.637  24.857
62786W        W63651  24.884  10.435  25.468
62787W        W63652  22.623  10.891  23.946
62788W        W63653  25.482   9.513  22.820
62789W        W63654  24.012   8.780  23.333
62790W        W63655  23.779   7.392  23.223
62791W        W63656  22.838  10.376  23.060
62792W        W63657  23.337   8.117  24.285
62793W        W63658  23.037   7.486  23.754
62794W        W63659  22.100  10.308  22.302
62795W        W63660  23.916   9.672  23.020
62796W        W63661  22.791  10.467  24.899
62797W        W63662  22.268   9.290  22.595
62798W        W63663  22.153   7.833  23.594
62799W        W63664  23.701   9.798  23.651
62800W        W63665  21.953   7.652  22.671
62801W        W63666  24.617   8.858  24.598
62802W        W63667  24.494   8.244  22.170
62803W        W63668  25.011   9.916  23.818
62804W        W63669  23.672  10.400  23.649
62805W        W63670  23.084  10.504  22.560
62806W        W63671  24.366   7.407  21.990
62807W        W63672  22.166  10.667  23.731
62808W        W63673  24.363   8.425  25.366
62809W        W63674  22.346   7.955  25.365
62810W        W63675  22.077   8.555  22.698
62811W        W63676  22.768   8.544  22.423
62812W        W63677  24.531   8.871  25.240
62813W        W63678  22.874   9.152  23.949
62814W        W63679  24.348   7.438  23.069
62815W        W63680  23.479  10.869  23.572
62816W        W63681  24.693  10.331  24.509
62817W        W63682  24.277  10.480  23.620
62818W        W63683  24.296   9.460  23.214
62819W        W63684  23.758   7.685  22.285
62820W        W63685  25.439   7.313  23.007
62821W        W63686  23.127   8.948  22.170
62822W        W63687  25.293   8.285  23.160
62823W        W63688  23.985   9.455  22.037
62824W        W63689  24.921   9.655  24.785
62825W        W63690  24.575  10.356  22.252
62826W        W63691  23.190   8.031  25.158
62827W        W63692  23.010   8.615  24.399
62828W        W63693  25.102  10.110  24.676
62829W        W63694  24.202   8.060  25.053
62830W        W63695  22.046   8.531  24.830
62831W        W63696  23.806   9.008  24.556
62832W        W63697  22.163   9.766  23.213
62833W        W63698  22.310   9.063  24.103
62834W        W63699  24.627   9.349  24.453
62835W        W63700  24.399  10.729  25.264
62836W        W63701  24.295   8.468  24.817
62837W        W63702  24.572  10.522  23.222
62838W        W63703  23.574  10.242  24.545
62839W        W63704  23.059  10.597  23.814
62840W        W63705  24.864   9.768  24.233
62841W        W63706  23.914   9.840  25.370
62842W        W63707  22.519   9.793  23.709
62843W        W63708  24.865   9.552  23.354
62844W        W63709  24.506  10.618  24.105
62845W        W63710  22.484  10.347  23.975
62846W        W63711  23.505   8.399  25.185
62847W        W63712  23.956  10.565  22.696
62848W        W63713  23.264   9.820  25.334
62849W        W63714  23.390  10.058  22.711
62850W        W63715  22.611   8.798  21.970
62851W        W63716  21.950  10.884  28.869
62852W        W63717  22.326   9.777  28.392
62853W        W63718  25.031   9.507  26.162
62854W        W63719  25.161  10.592  28.189
62855W        W63720  23.079  10.583  25.715
62856W        W63721  23.162   8.735  26.698
62857W        W63722  22.677   8.583  26.862
62858W        W63723  23.668   9.398  26.296
62859W        W63724  23.343  10.490  28.651
62860W        W63725  21.992   8.051  28.614
62861W        W63726  22.754   7.331  28.416
62862W        W63727  24.448   7.719  27.303
62863W        W63728  24.097   8.590  25.873
62864W        W63729  24.667   8.024  28.964
62865W        W63730  22.033   7.816  28.089
62866W        W63731  22.132  10.435  29.110
62867W        W63732  23.654   9.825  25.842
62868W        W63733  22.086   8.608  27.535
62869W        W63734  22.979   8.499  28.772
62870W        W63735  25.438   8.358  27.271
62871W        W63736  25.202   9.401  28.130
62872W        W63737  23.510   8.734  27.157
62873W        W63738  24.056  10.073  27.526
62874W        W63739  22.556   9.507  27.758
62875W        W63740  21.915   9.035  27.329
62876W        W63741  22.951   9.007  28.521
62877W        W63742  25.222   8.790  28.775
62878W        W63743  22.838  10.234  27.220
62879W        W63744  23.959   9.923  28.354
62880W        W63745  23.179   8.563  27.579
62881W        W63746  23.471   9.347  27.222
62882W        W63747  24.468  10.120  29.070
62883W        W63748  23.547   9.440  29.080
62884W        W63749  23.528   9.156  28.558
62885W        W63750  21.937   8.547  29.080
62886W        W63751  24.769  10.082  28.679
62887W        W63752  22.350   7.664  26.677
62888W        W63753  22.877   9.922  27.676
62889W        W63754  25.340   9.705  26.966
62890W        W63755  24.753   8.105  27.533
62891W        W63756  25.038   8.058  25.628
62892W        W63757  25.503   8.859  27.934
62893W        W63758  23.470  10.566  27.687
62894W        W63759  25.244  10.032  26.125
62895W        W63760  22.373  10.818  25.879
62896W        W63761  22.766  10.864  26.555
62897W        W63762  22.563   7.618  27.981
62898W        W63763  25.186   8.636  28.256
62899W        W63764  24.591   9.058  26.715
62900W        W63765  24.557   8.746  25.742
62901W        W63766  23.765   9.890  27.882
62902W        W63767  23.571   8.220  27.081
62903W        W63768  24.171  10.307  28.075
62904W        W63769  25.042   9.098  26.497
62905W        W63770  23.944   7.756  26.513
62906W        W63771  22.601  10.450  26.196
62907W        W63772  21.972   7.949  26.795
62908W        W63773  24.758   8.556  27.269
62909W        W63774  22.216  10.173  27.184
62910W        W63775  23.557  10.523  26.054
62911W        W63776  24.949   8.549  25.518
62912W        W63777  21.972  10.307  27.682
62913W        W63778  22.763   9.879  28.162
62914W        W63779  23.136   9.239  26.781
62915W        W63780  23.158   7.644  27.874
62916W        W63781  25.387   7.406  27.171
62917W        W63782  22.606   9.278  25.639
62918W        W63783  22.261   8.311  25.818
62919W        W63784  22.323  10.267  26.612
62920W        W63785  23.454   9.750  26.860
62921W        W63786  24.786  10.609  28.574
62922W        W63787  23.712   8.251  26.258
62923W        W63788  25.095  10.649  27.030
62924W        W63789  24.772   8.502  28.628
62925W        W63790  25.485  10.158  26.762
62926W        W63791  24.112   9.450  28.246
62927W        W63792  21.878   9.001  26.452
62928W        W63793  22.989   9.416  28.025
62929W        W63794  24.193   8.680  26.403
62930W        W63795  24.070   9.170  26.507
62931W        W63796  22.413   8.590  27.981
62932W        W63797  22.398   8.466  28.903
62933W        W63798  22.288   7.383  27.062
62934W        W63799  24.056   7.730  27.623
62935W        W63800  23.704   7.915  28.786
62936W        W63801  24.059   8.064  25.964
62937W        W63802  25.242  10.457  28.718
62938W        W63803  24.209   7.538  28.757
62939W        W63804  25.228   9.839  28.879
62940W        W63805  24.658   8.006  28.475
62941W        W63806  24.458   7.944  26.745
62942W        W63807  24.851   9.078  29.149
62943W        W63808  22.591  10.654  27.135
62944W        W63809  23.249   8.371  26.121
62945W        W63810  22.818   7.655  28.785
62946W        W63811  24.870   8.139  26.466
62947W        W63812  25.237   8.621  26.411
62948W        W63813  22.980  10.838  28.882
62949W        W63814  22.906   7.374  26.117
62950W        W63815  25.227   7.908  27.152
62951W        W63816  25.377  10.157  25.597
62952W        W63817  22.284   9.360  27.299
62953W        W63818  24.201   7.947  25.529
62954W        W63819  25.335  10.279  27.249
62955W        W63820  25.374   7.473  27.999
62956W        W63821  23.819   8.685  28.553
62957W        W63822  23.912  10.024  26.256
62958W        W63823  24.312   9.318  28.996
62959W        W63824  23.986   7.295  27.305
62960W        W63825  22.598   8.198  27.368
62961W        W63826  22.152   9.398  28.142
62962W        W63827  24.011  10.591  26.848
62963W        W63828  25.205   8.188  27.720
62964W        W63829  23.842  10.535  28.487
62965W        W63830  25.185   9.594  25.692
62966W        W63831  23.620   9.077  26.753
62967W        W63832  25.472   7.588  28.494
62968W        W63833  23.621   9.423  28.088
62969W        W63834  23.838   8.309  27.533
62970W        W63835  24.690   8.607  26.371
62971W        W63836  24.977   8.340  26.013
62972W        W63837  24.786  10.380  26.402
62973W        W63838  24.620   9.983  27.198
62974W        W63839  24.516   9.062  26.176
62975W        W63840  23.949   9.272  27.162
62976W        W63841  24.830   9.060  27.229
62977W        W63842  22.205   8.075  27.653
62978W        W63843  24.983   9.127  28.480
62979W        W63844  25.334  10.745  27.626
62980W        W63845  23.264  10.189  27.028
62981W        W63846  24.271  10.722  28.352
62982W        W63847  24.265   8.052  28.116
62983W        W63848  23.472  10.760  28.177
62984W        W63849  25.169   7.714  26.643
62985W        W63850  24.960   9.033  27.944
62986W        W63851  21.943   8.354  27.982
62987W        W63852  24.803   8.149  27.000
62988W        W63853  25.214   8.300  28.777
62989W        W63854  24.099   9.999  26.995
62990W        W63855  23.355  10.590  26.608
62991W        W63856  22.470   7.770  25.866
62992W        W63857  23.574   7.424  27.676
62993W        W63858  22.602  10.544  25.524
62994W        W63859  22.976   9.010  26.275
62995W        W63860  23.630   9.639  28.588
62996W        W63861  23.460   7.997  26.578
62997W        W63862  24.816   7.594  27.006
62998W        W63863  24.536  10.876  27.334
62999W        W63864  23.948  10.524  27.674
63000W        W63865  23.344   9.561  27.635
63001W        W63866  25.114  10.284  27.761
63002W        W63867  22.808   7.787  26.530
63003W        W63868  23.330  10.084  27.490
63004W        W63869  22.813   8.015  25.555
63005W        W63870  23.614   8.624  27.949
63006W        W63871  24.462   7.490  27.819
63007W        W63872  21.882   9.333  27.704
63008W        W63873  23.586   9.151  25.862
63009W        W63874  22.854   7.466  25.632
63010W        W63875  23.592   8.547  26.683
63011W        W63876  24.562   7.523  28.382
63012W        W63877  23.150   9.535  28.491
63013W        W63878  23.954   9.317  28.708
63014W        W63879  24.571   9.347  28.601
63015W        W63880  23.855   7.487  29.106
63016W        W63881  23.077   8.103  27.499
63017W        W63882  22.503   8.059  26.897
63018W        W63883  22.289  10.771  26.573
63019W        W63884  23.621  10.101  28.698
63020W        W63885  22.656   9.586  26.057
63021W        W63886  24.336   8.971  27.278
63022W        W63887  24.616   8.770  27.677
63023W        W63888  23.821   9.444  27.611
63024W        W63889  24.291   9.818  25.743
63025W        W63890  23.963   7.839  27.071
63026W        W63891  25.442   8.117  26.339
63027W        W63892  21.936  10.706  28.370
63028W        W63893  22.353   9.932  27.902
63029W        W63894  21.920  10.778  26.134
63030W        W63895  23.819   8.048  27.940
63031W        W63896  23.182  10.071  25.789
63032W        W63897  25.087  10.453  25.975
63033W        W63898  24.062   9.106  25.989
63034W        W63899  22.905   8.297  26.506
63035W        W63900  23.737   8.207  25.558
63036W        W63901  24.321   9.772  28.736
63037W        W63902  24.674   7.678  26.353
63038W        W63903  22.004   7.526  25.801
63039W        W63904  23.290   9.845  28.091
63040W        W63905  23.089   9.761  27.183
63041W        W63906  22.831   9.713  25.581
63042W        W63907  22.072   9.954  26.349
63043W        W63908  22.576   9.024  28.791
63044W        W63909  23.280   7.584  28.977
63045W        W63910  23.989   7.726  28.333
63046W        W63911  23.184   7.494  26.614
63047W        W63912  24.243   7.571  26.119
63048W        W63913  22.188   7.503  27.696
63049W        W63914  22.236   8.466  27.066
63050W        W63915  24.925   7.574  27.472
63051W        W63916  22.347   8.072  26.286
63052W        W63917  24.918   7.760  27.902
63053W        W63918  25.314   8.963  25.587
63054W        W63919  22.606   7.721  27.406
63055W        W63920  23.720   8.293  28.346
63056W        W63921  21.868   7.983  25.824
63057W        W63922  22.654   9.372  28.385
63058W        W63923  24.012   8.770  27.564
63059W        W63924  23.879  10.849  25.860
63060W        W63925  22.025   9.356  25.557
63061W        W63926  22.760   9.767  28.683
63062W        W63927  22.281   8.934  28.314
63063W        W63928  23.272   9.039  28.108
63064W        W63929  25.040   7.398  28.370
63065W        W63930  25.438   9.008  28.361
63066W        W63931  25.426   9.208  26.047
63067W        W63932  24.289   9.540  26.146
63068W        W63933  24.763  10.840  25.841
63069W        W63934  23.940   8.830  28.983
63070W        W63935  22.270   9.797  29.023
63071W        W63936  25.476   7.719  28.975
63072W        W63937  25.194   8.647  27.596
63073W        W63938  23.502  10.777  29.073
63074W        W63939  23.357   7.406  25.800
63075W        W63940  24.896  10.005  25.743
63076W        W63941  22.665   8.098  28.629
63077W        W63942  23.099  10.092  28.491
63078W        W63943  25.225   8.083  28.289
63079W        W63944  24.436  10.742  26.257
63080W        W63945  24.675   9.361  27.624
63081W        W63946  22.925   7.777  28.291
63082W        W63947  23.394   8.846  29.048
63083W        W63948  22.897  10.025  26.242
63084W        W63949  24.652   9.523  26.506
63085W        W63950  22.420   8.149  28.230
63086W        W63951  23.749  10.211  26.694
63087W        W63952  25.499   8.771  26.875
63088W        W63953  23.721   7.404  28.594
63089W        W63954  24.501  10.109  27.673
63090W        W63955  24.804  10.453  27.381
63091W        W63956  24.023  10.255  25.809
63092W        W63957  22.033  10.147  28.651
63093W        W63958  22.776   8.139  27.889
63094W        W63959  22.746   7.487  26.999
63095W        W63960  24.367   8.329  27.691
63096W        W63961  23.165   9.500  25.891
63097W        W63962  25.163   9.442  27.390
63098W        W63963  22.490  10.200  28.813
63099W        W63964  24.877  10.882  26.610
63100W        W63965  22.976   7.902  27.055
63101W        W63966  22.745   9.395  27.145
63102W        W63967  23.058  10.806  27.895
63103W        W63968  25.125  10.902  28.927
63104W        W63969  24.284   9.090  27.860
63105W        W63970  22.133   8.888  25.775
63106W        W63971  25.267  10.546  26.472
63107W        W63972  25.104   7.870  26.091
63108W        W63973  23.243   7.389  28.494
63109W        W63974  24.949  10.191  26.952
63110W        W63975  24.978   8.747  26.857
63111W        W63976  23.095   8.420  27.073
63112W        W63977  23.340   8.682  28.397
63113W        W63978  24.451   9.835  28.260
63114W        W63979  23.101   8.289  28.372
63115W        W63980  23.080  10.755  26.988
63116W        W63981  22.397  10.714  28.622
63117W        W63982  22.509  10.075  25.752
63118W        W63983  25.026   9.833  26.562
63119W        W63984  22.630   8.625  28.448
63120W        W63985  25.403   8.555  25.929
63121W        W63986  23.148   9.612  26.400
63122W        W63987  24.247   8.994  28.481
63123W        W63988  24.138   8.622  28.025
63124W        W63989  22.698   8.994  28.054
63125W        W63990  24.908  10.882  27.883
63126W        W63991  24.699   7.516  28.877
63127W        W63992  22.363   7.666  28.464
63128W        W63993  22.702   8.689  27.517
63129W        W63994  23.071   8.503  25.639
63130W        W63995  21.874  10.262  28.184
63131W        W63996  23.459   8.971  27.627
63132W        W63997  23.282   7.996  25.732
63133W        W63998  22.417   8.812  26.513
63134W        W63999  22.188  10.664  27.950
63135W        W64000  24.983   8.890  26.058
63136W        W64001  25.078   7.806  28.744
63137W        W64002  24.514  10.015  26.707
63138W        W64003  22.112   8.939  28.884
63139W        W64004  25.078   7.403  26.180
63140W        W64005  24.598   9.878  26.191
63141W        W64006  23.500   8.936  26.276
63142W        W64007  24.687   7.740  25.799
63143W        W64008  24.752   8.347  27.985
63144W        W64009  22.461   8.940  27.192
63145W        W64010  22.755   9.879  26.841
63146W        W64011  24.518   8.499  26.806
63147W        W64012  23.541   7.878  27.502
63148W        W64013  25.503   9.789  28.013
63149W        W64014  25.421   7.776  27.574
63150W        W64015  21.960  10.606  26.950
63151W        W64016  22.469   9.793  26.486
63152W        W64017  22.384   7.410  29.039
63153W        W64018  23.503  10.263  29.141
63154W        W64019  25.258   9.231  26.931
63155W        W64020  24.612   9.408  25.811
63156W        W64021  23.907  10.929  28.023
63157W        W64022  24.764   9.651  29.060
63158W        W64023  23.579   7.361  26.340
63159W        W64024  24.292   8.230  27.199
63160W        W64025  21.978   9.817  27.531
63161W        W64026  23.231   7.779  26.172
63162W        W64027  23.035   9.263  29.021
63163W        W64028  24.029   8.244  26.735
63164W        W64029  24.234   9.654  27.857
63165W        W64030  22.388  10.259  28.292
63166W        W64031  22.979  10.242  29.015
63167W        W64032  22.830   8.039  26.029
63168W        W64033  24.347   8.181  26.354
63169W        W64034  24.305  10.289  28.591
63170W        W64035  22.990   8.881  27.190
63171W        W64036  22.645  10.579  28.055
63172W        W64037  25.390  10.696  25.656
63173W        W64038  22.253   9.368  28.652
63174W        W64039  24.248   9.630  27.340
63175W        W64040  22.684   9.279  26.582
63176W        W64041  23.055  10.286  27.977
63177W        W64042  23.433   7.705  27.018
63178W        W64043  22.044   9.689  25.948
63179W        W64044  23.563   8.640  25.818
63180W        W64045  22.209   9.189  26.837
63181W        W64046  23.499   7.831  28.301
63182W        W64047  25.171   7.540  25.728
63183W        W64048  25.264   9.286  28.827
63184W        W64049  23.918  10.543  28.979
63185W        W64050  25.476   9.637  28.501
63186W        W64051  24.884  10.435  29.112
63187W        W64052  22.623  10.891  27.590
63188W        W64053  25.482   9.513  26.464
63189W        W64054  24.012   8.780  26.977
63190W        W64055  23.779   7.392  26.867
63191W        W64056  22.838  10.376  26.704
63192W        W64057  23.337   8.117  27.929
63193W        W64058  23.037   7.486  27.398
63194W        W64059  22.100  10.308  25.946
63195W        W64060  23.916   9.672  26.664
63196W        W64061  22.791  10.467  28.543
63197W        W64062  22.268   9.290  26.239
63198W        W64063  22.153   7.833  27.238
63199W        W64064  23.701   9.798  27.295
63200W        W64065  21.953   7.652  26.315
63201W        W64066  24.617   8.858  28.242
63202W        W64067  24.494   8.244  25.814
63203W        W64068  25.011   9.916  27.462
63204W        W64069  23.672  10.400  27.293
63205W        W64070  23.084  10.504  26.204
63206W        W64071  24.366   7.407  25.634
63207W        W64072  22.166  10.667  27.375
63208W        W64073  24.363   8.425  29.010
63209W        W64074  22.346   7.955  29.009
63210W        W64075  22.077   8.555  26.342
63211W        W64076  22.768   8.544  26.067
63212W        W64077  24.531   8.871  28.884
63213W        W64078  22.874   9.152  27.593
63214W        W64079  24.348   7.438  26.713
63215W        W64080  23.479  10.869  27.216
63216W        W64081  24.693  10.331  28.153
63217W        W64082  24.277  10.480  27.264
63218W        W64083  24.296   9.460  26.858
63219W        W64084  23.758   7.685  25.929
63220W        W64085  25.439   7.313  26.651
63221W        W64086  23.127   8.948  25.814
63222W        W64087  25.293   8.285  26.804
63223W        W64088  23.985   9.455  25.681
63224W        W64089  24.921   9.655  28.429
63225W        W64090  24.575  10.356  25.896
63226W        W64091  23.190   8.031  28.802
63227W        W64092  23.010   8.615  28.043
63228W        W64093  25.102  10.110  28.320
63229W        W64094  24.202   8.060  28.697
63230W        W64095  22.046   8.531  28.474
63231W        W64096  23.806   9.008  28.200
63232W        W64097  22.163   9.766  26.857
63233W        W64098  22.310   9.063  27.747
63234W        W64099  24.627   9.349  28.097
63235W        W64100  24.399  10.729  28.908
63236W        W64101  24.295   8.468  28.461
63237W        W64102  24.572  10.522  26.866
63238W        W64103  23.574  10.242  28.189
63239W        W64104  23.059  10.597  27.458
63240W        W64105  24.864   9.768  27.877
63241W        W64106  23.914   9.840  29.014
63242W        W64107  22.519   9.793  27.353
63243W        W64108  24.865   9.552  26.998
63244W        W64109  24.506  10.618  27.749
63245W        W64110  22.484  10.347  27.619
63246W        W64111  23.505   8.399  28.829
63247W        W64112  23.956  10.565  26.340
63248W        W64113  23.264   9.820  28.978
63249W        W64114  23.390  10.058  26.355
63250W        W64115  22.611   8.798  25.614
63251W        W64116  21.950  14.528   3.359
63252W        W64117  22.326  13.421   2.882
63253W        W64118  25.031  13.151   0.652
63254W        W64119  25.161  14.236   2.679
63255W        W64120  23.079  14.227   0.205
63256W        W64121  23.162  12.379   1.188
63257W        W64122  22.677  12.227   1.352
63258W        W64123  23.668  13.042   0.786
63259W        W64124  23.343  14.134   3.141
63260W        W64125  21.992  11.695   3.104
63261W        W64126  22.754  10.975   2.906
63262W        W64127  24.448  11.363   1.793
63263W        W64128  24.097  12.234   0.363
63264W        W64129  24.667  11.668   3.454
63265W        W64130  22.033  11.460   2.579
63266W        W64131  22.132  14.079   3.600
63267W        W64132  23.654  13.469   0.332
63268W        W64133  22.086  12.252   2.025
63269W        W64134  22.979  12.143   3.262
63270W        W64135  25.438  12.002   1.761
63271W        W64136  25.202  13.045   2.620
63272W        W64137  23.510  12.378   1.647
63273W        W64138  24.056  13.717   2.016
63274W        W64139  22.556  13.151   2.248
63275W        W64140  21.915  12.679   1.819
63276W        W64141  22.951  12.651   3.011
63277W        W64142  25.222  12.434   3.265
63278W        W64143  22.838  13.878   1.710
63279W        W64144  23.959  13.567   2.844
63280W        W64145  23.179  12.207   2.069
63281W        W64146  23.471  12.991   1.712
63282W        W64147  24.468  13.764   3.560
63283W        W64148  23.547  13.084   3.570
63284W        W64149  23.528  12.800   3.048
63285W        W64150  21.937  12.191   3.570
63286W        W64151  24.769  13.726   3.169
63287W        W64152  22.350  11.308   1.167
63288W        W64153  22.877  13.566   2.166
63289W        W64154  25.340  13.349   1.456
63290W        W64155  24.753  11.749   2.023
63291W        W64156  25.038  11.702   0.118
63292W        W64157  25.503  12.503   2.424
63293W        W64158  23.470  14.210   2.177
63294W        W64159  25.244  13.676   0.615
63295W        W64160  22.373  14.462   0.369
63296W        W64161  22.766  14.508   1.045
63297W        W64162  22.563  11.262   2.471
63298W        W64163  25.186  12.280   2.746
63299W        W64164  24.591  12.702   1.205
63300W        W64165  24.557  12.390   0.232
63301W        W64166  23.765  13.534   2.372
63302W        W64167  23.571  11.864   1.571
63303W        W64168  24.171  13.951   2.565
63304W        W64169  25.042  12.742   0.987
63305W        W64170  23.944  11.400   1.003
63306W        W64171  22.601  14.094   0.686
63307W        W64172  21.972  11.593   1.285
63308W        W64173  24.758  12.200   1.759
63309W        W64174  22.216  13.817   1.674
63310W        W64175  23.557  14.167   0.544
63311W        W64176  24.949  12.193   0.008
63312W        W64177  21.972  13.951   2.172
63313W        W64178  22.763  13.523   2.652
63314W        W64179  23.136  12.883   1.271
63315W        W64180  23.158  11.288   2.364
63316W        W64181  25.387  11.050   1.661
63317W        W64182  22.606  12.922   0.129
63318W        W64183  22.261  11.955   0.308
63319W        W64184  22.323  13.911   1.102
63320W        W64185  23.454  13.394   1.350
63321W        W64186  24.786  14.253   3.064
63322W        W64187  23.712  11.895   0.748
63323W        W64188  25.095  14.293   1.520
63324W        W64189  24.772  12.146   3.118
63325W        W64190  25.485  13.802   1.252
63326W        W64191  24.112  13.094   2.736
63327W        W64192  21.878  12.645   0.942
63328W        W64193  22.989  13.060   2.515
63329W        W64194  24.193  12.324   0.893
63330W        W64195  24.070  12.814   0.997
63331W        W64196  22.413  12.234   2.471
63332W        W64197  22.398  12.110   3.393
63333W        W64198  22.288  11.027   1.552
63334W        W64199  24.056  11.374   2.113
63335W        W64200  23.704  11.559   3.276
63336W        W64201  24.059  11.708   0.454
63337W        W64202  25.242  14.101   3.208
63338W        W64203  24.209  11.182   3.247
63339W        W64204  25.228  13.483   3.369
63340W        W64205  24.658  11.650   2.965
63341W        W64206  24.458  11.588   1.235
63342W        W64207  24.851  12.722   3.639
63343W        W64208  22.591  14.298   1.625
63344W        W64209  23.249  12.015   0.611
63345W        W64210  22.818  11.299   3.275
63346W        W64211  24.870  11.783   0.956
63347W        W64212  25.237  12.265   0.901
63348W        W64213  22.980  14.482   3.372
63349W        W64214  22.906  11.018   0.607
63350W        W64215  25.227  11.552   1.642
63351W        W64216  25.377  13.801   0.087
63352W        W64217  22.284  13.004   1.789
63353W        W64218  24.201  11.591   0.019
63354W        W64219  25.335  13.923   1.739
63355W        W64220  25.374  11.117   2.489
63356W        W64221  23.819  12.329   3.043
63357W        W64222  23.912  13.668   0.746
63358W        W64223  24.312  12.962   3.486
63359W        W64224  23.986  10.939   1.795
63360W        W64225  22.598  11.842   1.858
63361W        W64226  22.152  13.042   2.632
63362W        W64227  24.011  14.235   1.338
63363W        W64228  25.205  11.832   2.210
63364W        W64229  23.842  14.179   2.977
63365W        W64230  25.185  13.238   0.182
63366W        W64231  23.620  12.721   1.243
63367W        W64232  25.472  11.232   2.984
63368W        W64233  23.621  13.067   2.578
63369W        W64234  23.838  11.953   2.023
63370W        W64235  24.690  12.251   0.861
63371W        W64236  24.977  11.984   0.503
63372W        W64237  24.786  14.024   0.892
63373W        W64238  24.620  13.627   1.688
63374W        W64239  24.516  12.706   0.666
63375W        W64240  23.949  12.916   1.652
63376W        W64241  24.830  12.704   1.719
63377W        W64242  22.205  11.719   2.143
63378W        W64243  24.983  12.771   2.970
63379W        W64244  25.334  14.389   2.116
63380W        W64245  23.264  13.833   1.518
63381W        W64246  24.271  14.366   2.842
63382W        W64247  24.265  11.696   2.606
63383W        W64248  23.472  14.404   2.667
63384W        W64249  25.169  11.358   1.133
63385W        W64250  24.960  12.677   2.434
63386W        W64251  21.943  11.998   2.472
63387W        W64252  24.803  11.793   1.490
63388W        W64253  25.214  11.944   3.267
63389W        W64254  24.099  13.643   1.485
63390W        W64255  23.355  14.234   1.098
63391W        W64256  22.470  11.414   0.356
63392W        W64257  23.574  11.068   2.166
63393W        W64258  22.602  14.188   0.014
63394W        W64259  22.976  12.654   0.765
63395W        W64260  23.630  13.283   3.078
63396W        W64261  23.460  11.641   1.068
63397W        W64262  24.816  11.238   1.496
63398W        W64263  24.536  14.520   1.824
63399W        W64264  23.948  14.168   2.164
63400W        W64265  23.344  13.205   2.125
63401W        W64266  25.114  13.928   2.251
63402W        W64267  22.808  11.431   1.020
63403W        W64268  23.330  13.728   1.980
63404W        W64269  22.813  11.659   0.045
63405W        W64270  23.614  12.268   2.439
63406W        W64271  24.462  11.134   2.309
63407W        W64272  21.882  12.977   2.194
63408W        W64273  23.586  12.795   0.352
63409W        W64274  22.854  11.110   0.122
63410W        W64275  23.592  12.191   1.173
63411W        W64276  24.562  11.167   2.872
63412W        W64277  23.150  13.179   2.981
63413W        W64278  23.954  12.961   3.198
63414W        W64279  24.571  12.991   3.091
63415W        W64280  23.855  11.131   3.596
63416W        W64281  23.077  11.747   1.989
63417W        W64282  22.503  11.703   1.387
63418W        W64283  22.289  14.415   1.063
63419W        W64284  23.621  13.745   3.188
63420W        W64285  22.656  13.230   0.547
63421W        W64286  24.336  12.615   1.768
63422W        W64287  24.616  12.414   2.167
63423W        W64288  23.821  13.088   2.101
63424W        W64289  24.291  13.462   0.233
63425W        W64290  23.963  11.483   1.561
63426W        W64291  25.442  11.761   0.829
63427W        W64292  21.936  14.350   2.860
63428W        W64293  22.353  13.576   2.392
63429W        W64294  21.920  14.422   0.624
63430W        W64295  23.819  11.692   2.430
63431W        W64296  23.182  13.715   0.279
63432W        W64297  25.087  14.097   0.465
63433W        W64298  24.062  12.750   0.479
63434W        W64299  22.905  11.941   0.996
63435W        W64300  23.737  11.851   0.048
63436W        W64301  24.321  13.416   3.226
63437W        W64302  24.674  11.322   0.843
63438W        W64303  22.004  11.170   0.291
63439W        W64304  23.290  13.489   2.581
63440W        W64305  23.089  13.405   1.673
63441W        W64306  22.831  13.357   0.071
63442W        W64307  22.072  13.598   0.839
63443W        W64308  22.576  12.668   3.281
63444W        W64309  23.280  11.228   3.467
63445W        W64310  23.989  11.370   2.823
63446W        W64311  23.184  11.138   1.104
63447W        W64312  24.243  11.215   0.609
63448W        W64313  22.188  11.147   2.186
63449W        W64314  22.236  12.110   1.556
63450W        W64315  24.925  11.218   1.962
63451W        W64316  22.347  11.716   0.776
63452W        W64317  24.918  11.404   2.392
63453W        W64318  25.314  12.607   0.077
63454W        W64319  22.606  11.365   1.896
63455W        W64320  23.720  11.937   2.836
63456W        W64321  21.868  11.627   0.314
63457W        W64322  22.654  13.016   2.875
63458W        W64323  24.012  12.414   2.054
63459W        W64324  23.879  14.493   0.350
63460W        W64325  22.025  13.000   0.047
63461W        W64326  22.760  13.411   3.173
63462W        W64327  22.281  12.578   2.804
63463W        W64328  23.272  12.683   2.598
63464W        W64329  25.040  11.042   2.860
63465W        W64330  25.438  12.652   2.851
63466W        W64331  25.426  12.852   0.537
63467W        W64332  24.289  13.184   0.636
63468W        W64333  24.763  14.484   0.331
63469W        W64334  23.940  12.474   3.473
63470W        W64335  22.270  13.441   3.513
63471W        W64336  25.476  11.363   3.465
63472W        W64337  25.194  12.291   2.086
63473W        W64338  23.502  14.421   3.563
63474W        W64339  23.357  11.050   0.290
63475W        W64340  24.896  13.649   0.233
63476W        W64341  22.665  11.742   3.119
63477W        W64342  23.099  13.736   2.981
63478W        W64343  25.225  11.727   2.779
63479W        W64344  24.436  14.386   0.747
63480W        W64345  24.675  13.005   2.114
63481W        W64346  22.925  11.421   2.781
63482W        W64347  23.394  12.490   3.538
63483W        W64348  22.897  13.669   0.732
63484W        W64349  24.652  13.167   0.996
63485W        W64350  22.420  11.793   2.720
63486W        W64351  23.749  13.855   1.184
63487W        W64352  25.499  12.415   1.365
63488W        W64353  23.721  11.048   3.084
63489W        W64354  24.501  13.753   2.163
63490W        W64355  24.804  14.097   1.871
63491W        W64356  24.023  13.899   0.299
63492W        W64357  22.033  13.791   3.141
63493W        W64358  22.776  11.783   2.379
63494W        W64359  22.746  11.131   1.489
63495W        W64360  24.367  11.973   2.181
63496W        W64361  23.165  13.144   0.381
63497W        W64362  25.163  13.086   1.880
63498W        W64363  22.490  13.844   3.303
63499W        W64364  24.877  14.526   1.100
63500W        W64365  22.976  11.546   1.545
63501W        W64366  22.745  13.039   1.635
63502W        W64367  23.058  14.450   2.385
63503W        W64368  25.125  14.546   3.417
63504W        W64369  24.284  12.734   2.350
63505W        W64370  22.133  12.532   0.265
63506W        W64371  25.267  14.190   0.962
63507W        W64372  25.104  11.514   0.581
63508W        W64373  23.243  11.033   2.984
63509W        W64374  24.949  13.835   1.442
63510W        W64375  24.978  12.391   1.347
63511W        W64376  23.095  12.064   1.563
63512W        W64377  23.340  12.326   2.887
63513W        W64378  24.451  13.479   2.750
63514W        W64379  23.101  11.933   2.862
63515W        W64380  23.080  14.399   1.478
63516W        W64381  22.397  14.358   3.112
63517W        W64382  22.509  13.719   0.242
63518W        W64383  25.026  13.477   1.052
63519W        W64384  22.630  12.269   2.938
63520W        W64385  25.403  12.199   0.419
63521W        W64386  23.148  13.256   0.890
63522W        W64387  24.247  12.638   2.971
63523W        W64388  24.138  12.266   2.515
63524W        W64389  22.698  12.638   2.544
63525W        W64390  24.908  14.526   2.373
63526W        W64391  24.699  11.160   3.367
63527W        W64392  22.363  11.310   2.954
63528W        W64393  22.702  12.333   2.007
63529W        W64394  23.071  12.147   0.129
63530W        W64395  21.874  13.906   2.674
63531W        W64396  23.459  12.615   2.117
63532W        W64397  23.282  11.640   0.222
63533W        W64398  22.417  12.456   1.003
63534W        W64399  22.188  14.308   2.440
63535W        W64400  24.983  12.534   0.548
63536W        W64401  25.078  11.450   3.234
63537W        W64402  24.514  13.659   1.197
63538W        W64403  22.112  12.583   3.374
63539W        W64404  25.078  11.047   0.670
63540W        W64405  24.598  13.522   0.681
63541W        W64406  23.500  12.580   0.766
63542W        W64407  24.687  11.384   0.289
63543W        W64408  24.752  11.991   2.475
63544W        W64409  22.461  12.584   1.682
63545W        W64410  22.755  13.523   1.331
63546W        W64411  24.518  12.143   1.296
63547W        W64412  23.541  11.522   1.992
63548W        W64413  25.503  13.433   2.503
63549W        W64414  25.421  11.420   2.064
63550W        W64415  21.960  14.250   1.440
63551W        W64416  22.469  13.437   0.976
63552W        W64417  22.384  11.054   3.529
63553W        W64418  23.503  13.907   3.631
63554W        W64419  25.258  12.875   1.421
63555W        W64420  24.612  13.052   0.301
63556W        W64421  23.907  14.573   2.513
63557W        W64422  24.764  13.295   3.550
63558W        W64423  23.579  11.005   0.830
63559W        W64424  24.292  11.874   1.689
63560W        W64425  21.978  13.461   2.021
63561W        W64426  23.231  11.423   0.662
63562W        W64427  23.035  12.907   3.511
63563W        W64428  24.029  11.888   1.225
63564W        W64429  24.234  13.298   2.347
63565W        W64430  22.388  13.903   2.782
63566W        W64431  22.979  13.886   3.505
63567W        W64432  22.830  11.683   0.519
63568W        W64433  24.347  11.825   0.844
63569W        W64434  24.305  13.933   3.081
63570W        W64435  22.990  12.525   1.680
63571W        W64436  22.645  14.223   2.545
63572W        W64437  25.390  14.340   0.146
63573W        W64438  22.253  13.012   3.142
63574W        W64439  24.248  13.274   1.830
63575W        W64440  22.684  12.923   1.072
63576W        W64441  23.055  13.930   2.467
63577W        W64442  23.433  11.349   1.508
63578W        W64443  22.044  13.333   0.438
63579W        W64444  23.563  12.284   0.308
63580W        W64445  22.209  12.833   1.327
63581W        W64446  23.499  11.475   2.791
63582W        W64447  25.171  11.184   0.218
63583W        W64448  25.264  12.930   3.317
63584W        W64449  23.918  14.187   3.469
63585W        W64450  25.476  13.281   2.991
63586W        W64451  24.884  14.079   3.602
63587W        W64452  22.623  14.535   2.080
63588W        W64453  25.482  13.157   0.954
63589W        W64454  24.012  12.424   1.467
63590W        W64455  23.779  11.036   1.357
63591W        W64456  22.838  14.020   1.194
63592W        W64457  23.337  11.761   2.419
63593W        W64458  23.037  11.130   1.888
63594W        W64459  22.100  13.952   0.436
63595W        W64460  23.916  13.316   1.154
63596W        W64461  22.791  14.111   3.033
63597W        W64462  22.268  12.934   0.729
63598W        W64463  22.153  11.477   1.728
63599W        W64464  23.701  13.442   1.785
63600W        W64465  21.953  11.296   0.805
63601W        W64466  24.617  12.502   2.732
63602W        W64467  24.494  11.888   0.304
63603W        W64468  25.011  13.560   1.952
63604W        W64469  23.672  14.044   1.783
63605W        W64470  23.084  14.148   0.694
63606W        W64471  24.366  11.051   0.124
63607W        W64472  22.166  14.311   1.865
63608W        W64473  24.363  12.069   3.500
63609W        W64474  22.346  11.599   3.499
63610W        W64475  22.077  12.199   0.832
63611W        W64476  22.768  12.188   0.557
63612W        W64477  24.531  12.515   3.374
63613W        W64478  22.874  12.796   2.083
63614W        W64479  24.348  11.082   1.203
63615W        W64480  23.479  14.513   1.706
63616W        W64481  24.693  13.975   2.643
63617W        W64482  24.277  14.124   1.754
63618W        W64483  24.296  13.104   1.348
63619W        W64484  23.758  11.329   0.419
63620W        W64485  25.439  10.957   1.141
63621W        W64486  23.127  12.592   0.304
63622W        W64487  25.293  11.929   1.294
63623W        W64488  23.985  13.099   0.171
63624W        W64489  24.921  13.299   2.919
63625W        W64490  24.575  14.000   0.386
63626W        W64491  23.190  11.675   3.292
63627W        W64492  23.010  12.259   2.533
63628W        W64493  25.102  13.754   2.810
63629W        W64494  24.202  11.704   3.187
63630W        W64495  22.046  12.175   2.964
63631W        W64496  23.806  12.652   2.690
63632W        W64497  22.163  13.410   1.347
63633W        W64498  22.310  12.707   2.237
63634W        W64499  24.627  12.993   2.587
63635W        W64500  24.399  14.373   3.398
63636W        W64501  24.295  12.112   2.951
63637W        W64502  24.572  14.166   1.356
63638W        W64503  23.574  13.886   2.679
63639W        W64504  23.059  14.241   1.948
63640W        W64505  24.864  13.412   2.367
63641W        W64506  23.914  13.484   3.504
63642W        W64507  22.519  13.437   1.843
63643W        W64508  24.865  13.196   1.488
63644W        W64509  24.506  14.262   2.239
63645W        W64510  22.484  13.991   2.109
63646W        W64511  23.505  12.043   3.319
63647W        W64512  23.956  14.209   0.830
63648W        W64513  23.264  13.464   3.468
63649W        W64514  23.390  13.702   0.845
63650W        W64515  22.611  12.442   0.104
63651W        W64516  21.950  14.528   7.003
63652W        W64517  22.326  13.421   6.526
63653W        W64518  25.031  13.151   4.296
63654W        W64519  25.161  14.236   6.323
63655W        W64520  23.079  14.227   3.849
63656W        W64521  23.162  12.379   4.832
63657W        W64522  22.677  12.227   4.996
63658W        W64523  23.668  13.042   4.430
63659W        W64524  23.343  14.134   6.785
63660W        W64525  21.992  11.695   6.748
63661W        W64526  22.754  10.975   6.550
63662W        W64527  24.448  11.363   5.437
63663W        W64528  24.097  12.234   4.007
63664W        W64529  24.667  11.668   7.098
63665W        W64530  22.033  11.460   6.223
63666W        W64531  22.132  14.079   7.244
63667W        W64532  23.654  13.469   3.976
63668W        W64533  22.086  12.252   5.669
63669W        W64534  22.979  12.143   6.906
63670W        W64535  25.438  12.002   5.405
63671W        W64536  25.202  13.045   6.264
63672W        W64537  23.510  12.378   5.291
63673W        W64538  24.056  13.717   5.660
63674W        W64539  22.556  13.151   5.892
63675W        W64540  21.915  12.679   5.463
63676W        W64541  22.951  12.651   6.655
63677W        W64542  25.222  12.434   6.909
63678W        W64543  22.838  13.878   5.354
63679W        W64544  23.959  13.567   6.488
63680W        W64545  23.179  12.207   5.713
63681W        W64546  23.471  12.991   5.356
63682W        W64547  24.468  13.764   7.204
63683W        W64548  23.547  13.084   7.214
63684W        W64549  23.528  12.800   6.692
63685W        W64550  21.937  12.191   7.214
63686W        W64551  24.769  13.726   6.813
63687W        W64552  22.350  11.308   4.811
63688W        W64553  22.877  13.566   5.810
63689W        W64554  25.340  13.349   5.100
63690W        W64555  24.753  11.749   5.667
63691W        W64556  25.038  11.702   3.762
63692W        W64557  25.503  12.503   6.068
63693W        W64558  23.470  14.210   5.821
63694W        W64559  25.244  13.676   4.259
63695W        W64560  22.373  14.462   4.013
63696W        W64561  22.766  14.508   4.689
63697W        W64562  22.563  11.262   6.115
63698W        W64563  25.186  12.280   6.390
63699W        W64564  24.591  12.702   4.849
63700W        W64565  24.557  12.390   3.876
63701W        W64566  23.765  13.534   6.016
63702W        W64567  23.571  11.864   5.215
63703W        W64568  24.171  13.951   6.209
63704W        W64569  25.042  12.742   4.631
63705W        W64570  23.944  11.400   4.647
63706W        W64571  22.601  14.094   4.330
63707W        W64572  21.972  11.593   4.929
63708W        W64573  24.758  12.200   5.403
63709W        W64574  22.216  13.817   5.318
63710W        W64575  23.557  14.167   4.188
63711W        W64576  24.949  12.193   3.652
63712W        W64577  21.972  13.951   5.816
63713W        W64578  22.763  13.523   6.296
63714W        W64579  23.136  12.883   4.915
63715W        W64580  23.158  11.288   6.008
63716W        W64581  25.387  11.050   5.305
63717W        W64582  22.606  12.922   3.773
63718W        W64583  22.261  11.955   3.952
63719W        W64584  22.323  13.911   4.746
63720W        W64585  23.454  13.394   4.994
63721W        W64586  24.786  14.253   6.708
63722W        W64587  23.712  11.895   4.392
63723W        W64588  25.095  14.293   5.164
63724W        W64589  24.772  12.146   6.762
63725W        W64590  25.485  13.802   4.896
63726W        W64591  24.112  13.094   6.380
63727W        W64592  21.878  12.645   4.586
63728W        W64593  22.989  13.060   6.159
63729W        W64594  24.193  12.324   4.537
63730W        W64595  24.070  12.814   4.641
63731W        W64596  22.413  12.234   6.115
63732W        W64597  22.398  12.110   7.037
63733W        W64598  22.288  11.027   5.196
63734W        W64599  24.056  11.374   5.757
63735W        W64600  23.704  11.559   6.920
63736W        W64601  24.059  11.708   4.098
63737W        W64602  25.242  14.101   6.852
63738W        W64603  24.209  11.182   6.891
63739W        W64604  25.228  13.483   7.013
63740W        W64605  24.658  11.650   6.609
63741W        W64606  24.458  11.588   4.879
63742W        W64607  24.851  12.722   7.283
63743W        W64608  22.591  14.298   5.269
63744W        W64609  23.249  12.015   4.255
63745W        W64610  22.818  11.299   6.919
63746W        W64611  24.870  11.783   4.600
63747W        W64612  25.237  12.265   4.545
63748W        W64613  22.980  14.482   7.016
63749W        W64614  22.906  11.018   4.251
63750W        W64615  25.227  11.552   5.286
63751W        W64616  25.377  13.801   3.731
63752W        W64617  22.284  13.004   5.433
63753W        W64618  24.201  11.591   3.663
63754W        W64619  25.335  13.923   5.383
63755W        W64620  25.374  11.117   6.133
63756W        W64621  23.819  12.329   6.687
63757W        W64622  23.912  13.668   4.390
63758W        W64623  24.312  12.962   7.130
63759W        W64624  23.986  10.939   5.439
63760W        W64625  22.598  11.842   5.502
63761W        W64626  22.152  13.042   6.276
63762W        W64627  24.011  14.235   4.982
63763W        W64628  25.205  11.832   5.854
63764W        W64629  23.842  14.179   6.621
63765W        W64630  25.185  13.238   3.826
63766W        W64631  23.620  12.721   4.887
63767W        W64632  25.472  11.232   6.628
63768W        W64633  23.621  13.067   6.222
63769W        W64634  23.838  11.953   5.667
63770W        W64635  24.690  12.251   4.505
63771W        W64636  24.977  11.984   4.147
63772W        W64637  24.786  14.024   4.536
63773W        W64638  24.620  13.627   5.332
63774W        W64639  24.516  12.706   4.310
63775W        W64640  23.949  12.916   5.296
63776W        W64641  24.830  12.704   5.363
63777W        W64642  22.205  11.719   5.787
63778W        W64643  24.983  12.771   6.614
63779W        W64644  25.334  14.389   5.760
63780W        W64645  23.264  13.833   5.162
63781W        W64646  24.271  14.366   6.486
63782W        W64647  24.265  11.696   6.250
63783W        W64648  23.472  14.404   6.311
63784W        W64649  25.169  11.358   4.777
63785W        W64650  24.960  12.677   6.078
63786W        W64651  21.943  11.998   6.116
63787W        W64652  24.803  11.793   5.134
63788W        W64653  25.214  11.944   6.911
63789W        W64654  24.099  13.643   5.129
63790W        W64655  23.355  14.234   4.742
63791W        W64656  22.470  11.414   4.000
63792W        W64657  23.574  11.068   5.810
63793W        W64658  22.602  14.188   3.658
63794W        W64659  22.976  12.654   4.409
63795W        W64660  23.630  13.283   6.722
63796W        W64661  23.460  11.641   4.712
63797W        W64662  24.816  11.238   5.140
63798W        W64663  24.536  14.520   5.468
63799W        W64664  23.948  14.168   5.808
63800W        W64665  23.344  13.205   5.769
63801W        W64666  25.114  13.928   5.895
63802W        W64667  22.808  11.431   4.664
63803W        W64668  23.330  13.728   5.624
63804W        W64669  22.813  11.659   3.689
63805W        W64670  23.614  12.268   6.083
63806W        W64671  24.462  11.134   5.953
63807W        W64672  21.882  12.977   5.838
63808W        W64673  23.586  12.795   3.996
63809W        W64674  22.854  11.110   3.766
63810W        W64675  23.592  12.191   4.817
63811W        W64676  24.562  11.167   6.516
63812W        W64677  23.150  13.179   6.625
63813W        W64678  23.954  12.961   6.842
63814W        W64679  24.571  12.991   6.735
63815W        W64680  23.855  11.131   7.240
63816W        W64681  23.077  11.747   5.633
63817W        W64682  22.503  11.703   5.031
63818W        W64683  22.289  14.415   4.707
63819W        W64684  23.621  13.745   6.832
63820W        W64685  22.656  13.230   4.191
63821W        W64686  24.336  12.615   5.412
63822W        W64687  24.616  12.414   5.811
63823W        W64688  23.821  13.088   5.745
63824W        W64689  24.291  13.462   3.877
63825W        W64690  23.963  11.483   5.205
63826W        W64691  25.442  11.761   4.473
63827W        W64692  21.936  14.350   6.504
63828W        W64693  22.353  13.576   6.036
63829W        W64694  21.920  14.422   4.268
63830W        W64695  23.819  11.692   6.074
63831W        W64696  23.182  13.715   3.923
63832W        W64697  25.087  14.097   4.109
63833W        W64698  24.062  12.750   4.123
63834W        W64699  22.905  11.941   4.640
63835W        W64700  23.737  11.851   3.692
63836W        W64701  24.321  13.416   6.870
63837W        W64702  24.674  11.322   4.487
63838W        W64703  22.004  11.170   3.935
63839W        W64704  23.290  13.489   6.225
63840W        W64705  23.089  13.405   5.317
63841W        W64706  22.831  13.357   3.715
63842W        W64707  22.072  13.598   4.483
63843W        W64708  22.576  12.668   6.925
63844W        W64709  23.280  11.228   7.111
63845W        W64710  23.989  11.370   6.467
63846W        W64711  23.184  11.138   4.748
63847W        W64712  24.243  11.215   4.253
63848W        W64713  22.188  11.147   5.830
63849W        W64714  22.236  12.110   5.200
63850W        W64715  24.925  11.218   5.606
63851W        W64716  22.347  11.716   4.420
63852W        W64717  24.918  11.404   6.036
63853W        W64718  25.314  12.607   3.721
63854W        W64719  22.606  11.365   5.540
63855W        W64720  23.720  11.937   6.480
63856W        W64721  21.868  11.627   3.958
63857W        W64722  22.654  13.016   6.519
63858W        W64723  24.012  12.414   5.698
63859W        W64724  23.879  14.493   3.994
63860W        W64725  22.025  13.000   3.691
63861W        W64726  22.760  13.411   6.817
63862W        W64727  22.281  12.578   6.448
63863W        W64728  23.272  12.683   6.242
63864W        W64729  25.040  11.042   6.504
63865W        W64730  25.438  12.652   6.495
63866W        W64731  25.426  12.852   4.181
63867W        W64732  24.289  13.184   4.280
63868W        W64733  24.763  14.484   3.975
63869W        W64734  23.940  12.474   7.117
63870W        W64735  22.270  13.441   7.157
63871W        W64736  25.476  11.363   7.109
63872W        W64737  25.194  12.291   5.730
63873W        W64738  23.502  14.421   7.207
63874W        W64739  23.357  11.050   3.934
63875W        W64740  24.896  13.649   3.877
63876W        W64741  22.665  11.742   6.763
63877W        W64742  23.099  13.736   6.625
63878W        W64743  25.225  11.727   6.423
63879W        W64744  24.436  14.386   4.391
63880W        W64745  24.675  13.005   5.758
63881W        W64746  22.925  11.421   6.425
63882W        W64747  23.394  12.490   7.182
63883W        W64748  22.897  13.669   4.376
63884W        W64749  24.652  13.167   4.640
63885W        W64750  22.420  11.793   6.364
63886W        W64751  23.749  13.855   4.828
63887W        W64752  25.499  12.415   5.009
63888W        W64753  23.721  11.048   6.728
63889W        W64754  24.501  13.753   5.807
63890W        W64755  24.804  14.097   5.515
63891W        W64756  24.023  13.899   3.943
63892W        W64757  22.033  13.791   6.785
63893W        W64758  22.776  11.783   6.023
63894W        W64759  22.746  11.131   5.133
63895W        W64760  24.367  11.973   5.825
63896W        W64761  23.165  13.144   4.025
63897W        W64762  25.163  13.086   5.524
63898W        W64763  22.490  13.844   6.947
63899W        W64764  24.877  14.526   4.744
63900W        W64765  22.976  11.546   5.189
63901W        W64766  22.745  13.039   5.279
63902W        W64767  23.058  14.450   6.029
63903W        W64768  25.125  14.546   7.061
63904W        W64769  24.284  12.734   5.994
63905W        W64770  22.133  12.532   3.909
63906W        W64771  25.267  14.190   4.606
63907W        W64772  25.104  11.514   4.225
63908W        W64773  23.243  11.033   6.628
63909W        W64774  24.949  13.835   5.086
63910W        W64775  24.978  12.391   4.991
63911W        W64776  23.095  12.064   5.207
63912W        W64777  23.340  12.326   6.531
63913W        W64778  24.451  13.479   6.394
63914W        W64779  23.101  11.933   6.506
63915W        W64780  23.080  14.399   5.122
63916W        W64781  22.397  14.358   6.756
63917W        W64782  22.509  13.719   3.886
63918W        W64783  25.026  13.477   4.696
63919W        W64784  22.630  12.269   6.582
63920W        W64785  25.403  12.199   4.063
63921W        W64786  23.148  13.256   4.534
63922W        W64787  24.247  12.638   6.615
63923W        W64788  24.138  12.266   6.159
63924W        W64789  22.698  12.638   6.188
63925W        W64790  24.908  14.526   6.017
63926W        W64791  24.699  11.160   7.011
63927W        W64792  22.363  11.310   6.598
63928W        W64793  22.702  12.333   5.651
63929W        W64794  23.071  12.147   3.773
63930W        W64795  21.874  13.906   6.318
63931W        W64796  23.459  12.615   5.761
63932W        W64797  23.282  11.640   3.866
63933W        W64798  22.417  12.456   4.647
63934W        W64799  22.188  14.308   6.084
63935W        W64800  24.983  12.534   4.192
63936W        W64801  25.078  11.450   6.878
63937W        W64802  24.514  13.659   4.841
63938W        W64803  22.112  12.583   7.018
63939W        W64804  25.078  11.047   4.314
63940W        W64805  24.598  13.522   4.325
63941W        W64806  23.500  12.580   4.410
63942W        W64807  24.687  11.384   3.933
63943W        W64808  24.752  11.991   6.119
63944W        W64809  22.461  12.584   5.326
63945W        W64810  22.755  13.523   4.975
63946W        W64811  24.518  12.143   4.940
63947W        W64812  23.541  11.522   5.636
63948W        W64813  25.503  13.433   6.147
63949W        W64814  25.421  11.420   5.708
63950W        W64815  21.960  14.250   5.084
63951W        W64816  22.469  13.437   4.620
63952W        W64817  22.384  11.054   7.173
63953W        W64818  23.503  13.907   7.275
63954W        W64819  25.258  12.875   5.065
63955W        W64820  24.612  13.052   3.945
63956W        W64821  23.907  14.573   6.157
63957W        W64822  24.764  13.295   7.194
63958W        W64823  23.579  11.005   4.474
63959W        W64824  24.292  11.874   5.333
63960W        W64825  21.978  13.461   5.665
63961W        W64826  23.231  11.423   4.306
63962W        W64827  23.035  12.907   7.155
63963W        W64828  24.029  11.888   4.869
63964W        W64829  24.234  13.298   5.991
63965W        W64830  22.388  13.903   6.426
63966W        W64831  22.979  13.886   7.149
63967W        W64832  22.830  11.683   4.163
63968W        W64833  24.347  11.825   4.488
63969W        W64834  24.305  13.933   6.725
63970W        W64835  22.990  12.525   5.324
63971W        W64836  22.645  14.223   6.189
63972W        W64837  25.390  14.340   3.790
63973W        W64838  22.253  13.012   6.786
63974W        W64839  24.248  13.274   5.474
63975W        W64840  22.684  12.923   4.716
63976W        W64841  23.055  13.930   6.111
63977W        W64842  23.433  11.349   5.152
63978W        W64843  22.044  13.333   4.082
63979W        W64844  23.563  12.284   3.952
63980W        W64845  22.209  12.833   4.971
63981W        W64846  23.499  11.475   6.435
63982W        W64847  25.171  11.184   3.862
63983W        W64848  25.264  12.930   6.961
63984W        W64849  23.918  14.187   7.113
63985W        W64850  25.476  13.281   6.635
63986W        W64851  24.884  14.079   7.246
63987W        W64852  22.623  14.535   5.724
63988W        W64853  25.482  13.157   4.598
63989W        W64854  24.012  12.424   5.111
63990W        W64855  23.779  11.036   5.001
63991W        W64856  22.838  14.020   4.838
63992W        W64857  23.337  11.761   6.063
63993W        W64858  23.037  11.130   5.532
63994W        W64859  22.100  13.952   4.080
63995W        W64860  23.916  13.316   4.798
63996W        W64861  22.791  14.111   6.677
63997W        W64862  22.268  12.934   4.373
63998W        W64863  22.153  11.477   5.372
63999W        W64864  23.701  13.442   5.429
64000W        W64865  21.953  11.296   4.449
64001W        W64866  24.617  12.502   6.376
64002W        W64867  24.494  11.888   3.948
64003W        W64868  25.011  13.560   5.596
64004W        W64869  23.672  14.044   5.427
64005W        W64870  23.084  14.148   4.338
64006W        W64871  24.366  11.051   3.768
64007W        W64872  22.166  14.311   5.509
64008W        W64873  24.363  12.069   7.144
64009W        W64874  22.346  11.599   7.143
64010W        W64875  22.077  12.199   4.476
64011W        W64876  22.768  12.188   4.201
64012W        W64877  24.531  12.515   7.018
64013W        W64878  22.874  12.796   5.727
64014W        W64879  24.348  11.082   4.847
64015W        W64880  23.479  14.513   5.350
64016W        W64881  24.693  13.975   6.287
64017W        W64882  24.277  14.124   5.398
64018W        W64883  24.296  13.104   4.992
64019W        W64884  23.758  11.329   4.063
64020W        W64885  25.439  10.957   4.785
64021W        W64886  23.127  12.592   3.948
64022W        W64887  25.293  11.929   4.938
64023W        W64888  23.985  13.099   3.815
64024W        W64889  24.921  13.299   6.563
64025W        W64890  24.575  14.000   4.030
64026W        W64891  23.190  11.675   6.936
64027W        W64892  23.010  12.259   6.177
64028W        W64893  25.102  13.754   6.454
64029W        W64894  24.202  11.704   6.831
64030W        W64895  22.046  12.175   6.608
64031W        W64896  23.806  12.652   6.334
64032W        W64897  22.163  13.410   4.991
64033W        W64898  22.310  12.707   5.881
64034W        W64899  24.627  12.993   6.231
64035W        W64900  24.399  14.373   7.042
64036W        W64901  24.295  12.112   6.595
64037W        W64902  24.572  14.166   5.000
64038W        W64903  23.574  13.886   6.323
64039W        W64904  23.059  14.241   5.592
64040W        W64905  24.864  13.412   6.011
64041W        W64906  23.914  13.484   7.148
64042W        W64907  22.519  13.437   5.487
64043W        W64908  24.865  13.196   5.132
64044W        W64909  24.506  14.262   5.883
64045W        W64910  22.484  13.991   5.753
64046W        W64911  23.505  12.043   6.963
64047W        W64912  23.956  14.209   4.474
64048W        W64913  23.264  13.464   7.112
64049W        W64914  23.390  13.702   4.489
64050W        W64915  22.611  12.442   3.748
64051W        W64916  21.950  14.528  10.648
64052W        W64917  22.326  13.421  10.171
64053W        W64918  25.031  13.151   7.941
64054W        W64919  25.161  14.236   9.968
64055W        W64920  23.079  14.227   7.494
64056W        W64921  23.162  12.379   8.477
64057W        W64922  22.677  12.227   8.641
64058W        W64923  23.668  13.042   8.075
64059W        W64924  23.343  14.134  10.430
64060W        W64925  21.992  11.695  10.393
64061W        W64926  22.754  10.975  10.195
64062W        W64927  24.448  11.363   9.082
64063W        W64928  24.097  12.234   7.652
64064W        W64929  24.667  11.668  10.743
64065W        W64930  22.033  11.460   9.868
64066W        W64931  22.132  14.079  10.889
64067W        W64932  23.654  13.469   7.621
64068W        W64933  22.086  12.252   9.314
64069W        W64934  22.979  12.143  10.551
64070W        W64935  25.438  12.002   9.050
64071W        W64936  25.202  13.045   9.909
64072W        W64937  23.510  12.378   8.936
64073W        W64938  24.056  13.717   9.305
64074W        W64939  22.556  13.151   9.537
64075W        W64940  21.915  12.679   9.108
64076W        W64941  22.951  12.651  10.300
64077W        W64942  25.222  12.434  10.554
64078W        W64943  22.838  13.878   8.999
64079W        W64944  23.959  13.567  10.133
64080W        W64945  23.179  12.207   9.358
64081W        W64946  23.471  12.991   9.001
64082W        W64947  24.468  13.764  10.849
64083W        W64948  23.547  13.084  10.859
64084W        W64949  23.528  12.800  10.337
64085W        W64950  21.937  12.191  10.859
64086W        W64951  24.769  13.726  10.458
64087W        W64952  22.350  11.308   8.456
64088W        W64953  22.877  13.566   9.455
64089W        W64954  25.340  13.349   8.745
64090W        W64955  24.753  11.749   9.312
64091W        W64956  25.038  11.702   7.407
64092W        W64957  25.503  12.503   9.713
64093W        W64958  23.470  14.210   9.466
64094W        W64959  25.244  13.676   7.904
64095W        W64960  22.373  14.462   7.658
64096W        W64961  22.766  14.508   8.334
64097W        W64962  22.563  11.262   9.760
64098W        W64963  25.186  12.280  10.035
64099W        W64964  24.591  12.702   8.494
64100W        W64965  24.557  12.390   7.521
64101W        W64966  23.765  13.534   9.661
64102W        W64967  23.571  11.864   8.860
64103W        W64968  24.171  13.951   9.854
64104W        W64969  25.042  12.742   8.276
64105W        W64970  23.944  11.400   8.292
64106W        W64971  22.601  14.094   7.975
64107W        W64972  21.972  11.593   8.574
64108W        W64973  24.758  12.200   9.048
64109W        W64974  22.216  13.817   8.963
64110W        W64975  23.557  14.167   7.833
64111W        W64976  24.949  12.193   7.297
64112W        W64977  21.972  13.951   9.461
64113W        W64978  22.763  13.523   9.941
64114W        W64979  23.136  12.883   8.560
64115W        W64980  23.158  11.288   9.653
64116W        W64981  25.387  11.050   8.950
64117W        W64982  22.606  12.922   7.418
64118W        W64983  22.261  11.955   7.597
64119W        W64984  22.323  13.911   8.391
64120W        W64985  23.454  13.394   8.639
64121W        W64986  24.786  14.253  10.353
64122W        W64987  23.712  11.895   8.037
64123W        W64988  25.095  14.293   8.809
64124W        W64989  24.772  12.146  10.407
64125W        W64990  25.485  13.802   8.541
64126W        W64991  24.112  13.094  10.025
64127W        W64992  21.878  12.645   8.231
64128W        W64993  22.989  13.060   9.804
64129W        W64994  24.193  12.324   8.182
64130W        W64995  24.070  12.814   8.286
64131W        W64996  22.413  12.234   9.760
64132W        W64997  22.398  12.110  10.682
64133W        W64998  22.288  11.027   8.841
64134W        W64999  24.056  11.374   9.402
64135W        W65000  23.704  11.559  10.565
64136W        W65001  24.059  11.708   7.743
64137W        W65002  25.242  14.101  10.497
64138W        W65003  24.209  11.182  10.536
64139W        W65004  25.228  13.483  10.658
64140W        W65005  24.658  11.650  10.254
64141W        W65006  24.458  11.588   8.524
64142W        W65007  24.851  12.722  10.928
64143W        W65008  22.591  14.298   8.914
64144W        W65009  23.249  12.015   7.900
64145W        W65010  22.818  11.299  10.564
64146W        W65011  24.870  11.783   8.245
64147W        W65012  25.237  12.265   8.190
64148W        W65013  22.980  14.482  10.661
64149W        W65014  22.906  11.018   7.896
64150W        W65015  25.227  11.552   8.931
64151W        W65016  25.377  13.801   7.376
64152W        W65017  22.284  13.004   9.078
64153W        W65018  24.201  11.591   7.308
64154W        W65019  25.335  13.923   9.028
64155W        W65020  25.374  11.117   9.778
64156W        W65021  23.819  12.329  10.332
64157W        W65022  23.912  13.668   8.035
64158W        W65023  24.312  12.962  10.775
64159W        W65024  23.986  10.939   9.084
64160W        W65025  22.598  11.842   9.147
64161W        W65026  22.152  13.042   9.921
64162W        W65027  24.011  14.235   8.627
64163W        W65028  25.205  11.832   9.499
64164W        W65029  23.842  14.179  10.266
64165W        W65030  25.185  13.238   7.471
64166W        W65031  23.620  12.721   8.532
64167W        W65032  25.472  11.232  10.273
64168W        W65033  23.621  13.067   9.867
64169W        W65034  23.838  11.953   9.312
64170W        W65035  24.690  12.251   8.150
64171W        W65036  24.977  11.984   7.792
64172W        W65037  24.786  14.024   8.181
64173W        W65038  24.620  13.627   8.977
64174W        W65039  24.516  12.706   7.955
64175W        W65040  23.949  12.916   8.941
64176W        W65041  24.830  12.704   9.008
64177W        W65042  22.205  11.719   9.432
64178W        W65043  24.983  12.771  10.259
64179W        W65044  25.334  14.389   9.405
64180W        W65045  23.264  13.833   8.807
64181W        W65046  24.271  14.366  10.131
64182W        W65047  24.265  11.696   9.895
64183W        W65048  23.472  14.404   9.956
64184W        W65049  25.169  11.358   8.422
64185W        W65050  24.960  12.677   9.723
64186W        W65051  21.943  11.998   9.761
64187W        W65052  24.803  11.793   8.779
64188W        W65053  25.214  11.944  10.556
64189W        W65054  24.099  13.643   8.774
64190W        W65055  23.355  14.234   8.387
64191W        W65056  22.470  11.414   7.645
64192W        W65057  23.574  11.068   9.455
64193W        W65058  22.602  14.188   7.303
64194W        W65059  22.976  12.654   8.054
64195W        W65060  23.630  13.283  10.367
64196W        W65061  23.460  11.641   8.357
64197W        W65062  24.816  11.238   8.785
64198W        W65063  24.536  14.520   9.113
64199W        W65064  23.948  14.168   9.453
64200W        W65065  23.344  13.205   9.414
64201W        W65066  25.114  13.928   9.540
64202W        W65067  22.808  11.431   8.309
64203W        W65068  23.330  13.728   9.269
64204W        W65069  22.813  11.659   7.334
64205W        W65070  23.614  12.268   9.728
64206W        W65071  24.462  11.134   9.598
64207W        W65072  21.882  12.977   9.483
64208W        W65073  23.586  12.795   7.641
64209W        W65074  22.854  11.110   7.411
64210W        W65075  23.592  12.191   8.462
64211W        W65076  24.562  11.167  10.161
64212W        W65077  23.150  13.179  10.270
64213W        W65078  23.954  12.961  10.487
64214W        W65079  24.571  12.991  10.380
64215W        W65080  23.855  11.131  10.885
64216W        W65081  23.077  11.747   9.278
64217W        W65082  22.503  11.703   8.676
64218W        W65083  22.289  14.415   8.352
64219W        W65084  23.621  13.745  10.477
64220W        W65085  22.656  13.230   7.836
64221W        W65086  24.336  12.615   9.057
64222W        W65087  24.616  12.414   9.456
64223W        W65088  23.821  13.088   9.390
64224W        W65089  24.291  13.462   7.522
64225W        W65090  23.963  11.483   8.850
64226W        W65091  25.442  11.761   8.118
64227W        W65092  21.936  14.350  10.149
64228W        W65093  22.353  13.576   9.681
64229W        W65094  21.920  14.422   7.913
64230W        W65095  23.819  11.692   9.719
64231W        W65096  23.182  13.715   7.568
64232W        W65097  25.087  14.097   7.754
64233W        W65098  24.062  12.750   7.768
64234W        W65099  22.905  11.941   8.285
64235W        W65100  23.737  11.851   7.337
64236W        W65101  24.321  13.416  10.515
64237W        W65102  24.674  11.322   8.132
64238W        W65103  22.004  11.170   7.580
64239W        W65104  23.290  13.489   9.870
64240W        W65105  23.089  13.405   8.962
64241W        W65106  22.831  13.357   7.360
64242W        W65107  22.072  13.598   8.128
64243W        W65108  22.576  12.668  10.570
64244W        W65109  23.280  11.228  10.756
64245W        W65110  23.989  11.370  10.112
64246W        W65111  23.184  11.138   8.393
64247W        W65112  24.243  11.215   7.898
64248W        W65113  22.188  11.147   9.475
64249W        W65114  22.236  12.110   8.845
64250W        W65115  24.925  11.218   9.251
64251W        W65116  22.347  11.716   8.065
64252W        W65117  24.918  11.404   9.681
64253W        W65118  25.314  12.607   7.366
64254W        W65119  22.606  11.365   9.185
64255W        W65120  23.720  11.937  10.125
64256W        W65121  21.868  11.627   7.603
64257W        W65122  22.654  13.016  10.164
64258W        W65123  24.012  12.414   9.343
64259W        W65124  23.879  14.493   7.639
64260W        W65125  22.025  13.000   7.336
64261W        W65126  22.760  13.411  10.462
64262W        W65127  22.281  12.578  10.093
64263W        W65128  23.272  12.683   9.887
64264W        W65129  25.040  11.042  10.149
64265W        W65130  25.438  12.652  10.140
64266W        W65131  25.426  12.852   7.826
64267W        W65132  24.289  13.184   7.925
64268W        W65133  24.763  14.484   7.620
64269W        W65134  23.940  12.474  10.762
64270W        W65135  22.270  13.441  10.802
64271W        W65136  25.476  11.363  10.754
64272W        W65137  25.194  12.291   9.375
64273W        W65138  23.502  14.421  10.852
64274W        W65139  23.357  11.050   7.579
64275W        W65140  24.896  13.649   7.522
64276W        W65141  22.665  11.742  10.408
64277W        W65142  23.099  13.736  10.270
64278W        W65143  25.225  11.727  10.068
64279W        W65144  24.436  14.386   8.036
64280W        W65145  24.675  13.005   9.403
64281W        W65146  22.925  11.421  10.070
64282W        W65147  23.394  12.490  10.827
64283W        W65148  22.897  13.669   8.021
64284W        W65149  24.652  13.167   8.285
64285W        W65150  22.420  11.793  10.009
64286W        W65151  23.749  13.855   8.473
64287W        W65152  25.499  12.415   8.654
64288W        W65153  23.721  11.048  10.373
64289W        W65154  24.501  13.753   9.452
64290W        W65155  24.804  14.097   9.160
64291W        W65156  24.023  13.899   7.588
64292W        W65157  22.033  13.791  10.430
64293W        W65158  22.776  11.783   9.668
64294W        W65159  22.746  11.131   8.778
64295W        W65160  24.367  11.973   9.470
64296W        W65161  23.165  13.144   7.670
64297W        W65162  25.163  13.086   9.169
64298W        W65163  22.490  13.844  10.592
64299W        W65164  24.877  14.526   8.389
64300W        W65165  22.976  11.546   8.834
64301W        W65166  22.745  13.039   8.924
64302W        W65167  23.058  14.450   9.674
64303W        W65168  25.125  14.546  10.706
64304W        W65169  24.284  12.734   9.639
64305W        W65170  25.267  14.190   8.251
64306W        W65171  25.104  11.514   7.870
64307W        W65172  23.243  11.033  10.273
64308W        W65173  24.949  13.835   8.731
64309W        W65174  24.978  12.391   8.636
64310W        W65175  23.095  12.064   8.852
64311W        W65176  23.340  12.326  10.176
64312W        W65177  24.451  13.479  10.039
64313W        W65178  23.101  11.933  10.151
64314W        W65179  23.080  14.399   8.767
64315W        W65180  22.397  14.358  10.401
64316W        W65181  22.509  13.719   7.531
64317W        W65182  25.026  13.477   8.341
64318W        W65183  22.630  12.269  10.227
64319W        W65184  25.403  12.199   7.708
64320W        W65185  23.148  13.256   8.179
64321W        W65186  24.247  12.638  10.260
64322W        W65187  24.138  12.266   9.804
64323W        W65188  22.698  12.638   9.833
64324W        W65189  24.908  14.526   9.662
64325W        W65190  24.699  11.160  10.656
64326W        W65191  22.363  11.310  10.243
64327W        W65192  22.702  12.333   9.296
64328W        W65193  23.071  12.147   7.418
64329W        W65194  21.874  13.906   9.963
64330W        W65195  23.459  12.615   9.406
64331W        W65196  23.282  11.640   7.511
64332W        W65197  22.417  12.456   8.292
64333W        W65198  22.188  14.308   9.729
64334W        W65199  24.983  12.534   7.837
64335W        W65200  25.078  11.450  10.523
64336W        W65201  24.514  13.659   8.486
64337W        W65202  22.112  12.583  10.663
64338W        W65203  25.078  11.047   7.959
64339W        W65204  24.598  13.522   7.970
64340W        W65205  23.500  12.580   8.055
64341W        W65206  24.687  11.384   7.578
64342W        W65207  24.752  11.991   9.764
64343W        W65208  22.461  12.584   8.971
64344W        W65209  22.755  13.523   8.620
64345W        W65210  24.518  12.143   8.585
64346W        W65211  23.541  11.522   9.281
64347W        W65212  25.503  13.433   9.792
64348W        W65213  25.421  11.420   9.353
64349W        W65214  21.960  14.250   8.729
64350W        W65215  22.469  13.437   8.265
64351W        W65216  22.384  11.054  10.818
64352W        W65217  23.503  13.907  10.920
64353W        W65218  25.258  12.875   8.710
64354W        W65219  24.612  13.052   7.590
64355W        W65220  23.907  14.573   9.802
64356W        W65221  24.764  13.295  10.839
64357W        W65222  23.579  11.005   8.119
64358W        W65223  24.292  11.874   8.978
64359W        W65224  21.978  13.461   9.310
64360W        W65225  23.231  11.423   7.951
64361W        W65226  23.035  12.907  10.800
64362W        W65227  24.029  11.888   8.514
64363W        W65228  24.234  13.298   9.636
64364W        W65229  22.388  13.903  10.071
64365W        W65230  22.979  13.886  10.794
64366W        W65231  22.830  11.683   7.808
64367W        W65232  24.347  11.825   8.133
64368W        W65233  24.305  13.933  10.370
64369W        W65234  22.990  12.525   8.969
64370W        W65235  22.645  14.223   9.834
64371W        W65236  25.390  14.340   7.435
64372W        W65237  22.253  13.012  10.431
64373W        W65238  24.248  13.274   9.119
64374W        W65239  22.684  12.923   8.361
64375W        W65240  23.055  13.930   9.756
64376W        W65241  23.433  11.349   8.797
64377W        W65242  22.044  13.333   7.727
64378W        W65243  23.563  12.284   7.597
64379W        W65244  22.209  12.833   8.616
64380W        W65245  23.499  11.475  10.080
64381W        W65246  25.171  11.184   7.507
64382W        W65247  25.264  12.930  10.606
64383W        W65248  23.918  14.187  10.758
64384W        W65249  25.476  13.281  10.280
64385W        W65250  24.884  14.079  10.891
64386W        W65251  22.623  14.535   9.369
64387W        W65252  25.482  13.157   8.243
64388W        W65253  24.012  12.424   8.756
64389W        W65254  23.779  11.036   8.646
64390W        W65255  22.838  14.020   8.483
64391W        W65256  23.337  11.761   9.708
64392W        W65257  23.037  11.130   9.177
64393W        W65258  22.100  13.952   7.725
64394W        W65259  23.916  13.316   8.443
64395W        W65260  22.791  14.111  10.322
64396W        W65261  22.268  12.934   8.018
64397W        W65262  22.153  11.477   9.017
64398W        W65263  23.701  13.442   9.074
64399W        W65264  21.953  11.296   8.094
64400W        W65265  24.617  12.502  10.021
64401W        W65266  24.494  11.888   7.593
64402W        W65267  25.011  13.560   9.241
64403W        W65268  23.672  14.044   9.072
64404W        W65269  23.084  14.148   7.983
64405W        W65270  24.366  11.051   7.413
64406W        W65271  22.166  14.311   9.154
64407W        W65272  24.363  12.069  10.789
64408W        W65273  22.346  11.599  10.788
64409W        W65274  22.077  12.199   8.121
64410W        W65275  22.768  12.188   7.846
64411W        W65276  24.531  12.515  10.663
64412W        W65277  22.874  12.796   9.372
64413W        W65278  24.348  11.082   8.492
64414W        W65279  23.479  14.513   8.995
64415W        W65280  24.693  13.975   9.932
64416W        W65281  24.277  14.124   9.043
64417W        W65282  24.296  13.104   8.637
64418W        W65283  23.758  11.329   7.708
64419W        W65284  25.439  10.957   8.430
64420W        W65285  23.127  12.592   7.593
64421W        W65286  25.293  11.929   8.583
64422W        W65287  23.985  13.099   7.460
64423W        W65288  24.921  13.299  10.208
64424W        W65289  24.575  14.000   7.675
64425W        W65290  23.190  11.675  10.581
64426W        W65291  23.010  12.259   9.822
64427W        W65292  25.102  13.754  10.099
64428W        W65293  24.202  11.704  10.476
64429W        W65294  22.046  12.175  10.253
64430W        W65295  23.806  12.652   9.979
64431W        W65296  22.163  13.410   8.636
64432W        W65297  22.310  12.707   9.526
64433W        W65298  24.627  12.993   9.876
64434W        W65299  24.399  14.373  10.687
64435W        W65300  24.295  12.112  10.240
64436W        W65301  24.572  14.166   8.645
64437W        W65302  23.574  13.886   9.968
64438W        W65303  23.059  14.241   9.237
64439W        W65304  24.864  13.412   9.656
64440W        W65305  23.914  13.484  10.793
64441W        W65306  22.519  13.437   9.132
64442W        W65307  24.865  13.196   8.777
64443W        W65308  24.506  14.262   9.528
64444W        W65309  22.484  13.991   9.398
64445W        W65310  23.505  12.043  10.608
64446W        W65311  23.956  14.209   8.119
64447W        W65312  23.264  13.464  10.757
64448W        W65313  23.390  13.702   8.134
64449W        W65314  22.611  12.442   7.393
64450W        W65315  21.950  14.528  14.292
64451W        W65316  22.326  13.421  13.815
64452W        W65317  25.031  13.151  11.585
64453W        W65318  25.161  14.236  13.612
64454W        W65319  23.079  14.227  11.138
64455W        W65320  23.162  12.379  12.121
64456W        W65321  22.677  12.227  12.285
64457W        W65322  23.668  13.042  11.719
64458W        W65323  23.343  14.134  14.074
64459W        W65324  21.992  11.695  14.037
64460W        W65325  22.754  10.975  13.839
64461W        W65326  24.448  11.363  12.726
64462W        W65327  24.097  12.234  11.296
64463W        W65328  24.667  11.668  14.387
64464W        W65329  22.033  11.460  13.512
64465W        W65330  22.132  14.079  14.533
64466W        W65331  23.654  13.469  11.265
64467W        W65332  22.086  12.252  12.958
64468W        W65333  22.979  12.143  14.195
64469W        W65334  25.438  12.002  12.694
64470W        W65335  25.202  13.045  13.553
64471W        W65336  23.510  12.378  12.580
64472W        W65337  24.056  13.717  12.949
64473W        W65338  22.556  13.151  13.181
64474W        W65339  21.915  12.679  12.752
64475W        W65340  22.951  12.651  13.944
64476W        W65341  25.222  12.434  14.198
64477W        W65342  22.838  13.878  12.643
64478W        W65343  23.959  13.567  13.777
64479W        W65344  23.179  12.207  13.002
64480W        W65345  23.471  12.991  12.645
64481W        W65346  24.468  13.764  14.493
64482W        W65347  23.547  13.084  14.503
64483W        W65348  23.528  12.800  13.981
64484W        W65349  21.937  12.191  14.503
64485W        W65350  24.769  13.726  14.102
64486W        W65351  22.350  11.308  12.100
64487W        W65352  22.877  13.566  13.099
64488W        W65353  25.340  13.349  12.389
64489W        W65354  24.753  11.749  12.956
64490W        W65355  25.038  11.702  11.051
64491W        W65356  25.503  12.503  13.357
64492W        W65357  23.470  14.210  13.110
64493W        W65358  25.244  13.676  11.548
64494W        W65359  22.373  14.462  11.302
64495W        W65360  22.766  14.508  11.978
64496W        W65361  22.563  11.262  13.404
64497W        W65362  25.186  12.280  13.679
64498W        W65363  24.591  12.702  12.138
64499W        W65364  24.557  12.390  11.165
64500W        W65365  23.765  13.534  13.305
64501W        W65366  23.571  11.864  12.504
64502W        W65367  24.171  13.951  13.498
64503W        W65368  25.042  12.742  11.920
64504W        W65369  23.944  11.400  11.936
64505W        W65370  22.601  14.094  11.619
64506W        W65371  21.972  11.593  12.218
64507W        W65372  24.758  12.200  12.692
64508W        W65373  22.216  13.817  12.607
64509W        W65374  23.557  14.167  11.477
64510W        W65375  24.949  12.193  10.941
64511W        W65376  21.972  13.951  13.105
64512W        W65377  22.763  13.523  13.585
64513W        W65378  23.136  12.883  12.204
64514W        W65379  23.158  11.288  13.297
64515W        W65380  25.387  11.050  12.594
64516W        W65381  22.606  12.922  11.062
64517W        W65382  22.261  11.955  11.241
64518W        W65383  22.323  13.911  12.035
64519W        W65384  23.454  13.394  12.283
64520W        W65385  24.786  14.253  13.997
64521W        W65386  23.712  11.895  11.681
64522W        W65387  25.095  14.293  12.453
64523W        W65388  24.772  12.146  14.051
64524W        W65389  25.485  13.802  12.185
64525W        W65390  24.112  13.094  13.669
64526W        W65391  21.878  12.645  11.875
64527W        W65392  22.989  13.060  13.448
64528W        W65393  24.193  12.324  11.826
64529W        W65394  24.070  12.814  11.930
64530W        W65395  22.413  12.234  13.404
64531W        W65396  22.398  12.110  14.326
64532W        W65397  22.288  11.027  12.485
64533W        W65398  24.056  11.374  13.046
64534W        W65399  23.704  11.559  14.209
64535W        W65400  24.059  11.708  11.387
64536W        W65401  25.242  14.101  14.141
64537W        W65402  24.209  11.182  14.180
64538W        W65403  25.228  13.483  14.302
64539W        W65404  24.658  11.650  13.898
64540W        W65405  24.458  11.588  12.168
64541W        W65406  24.851  12.722  14.572
64542W        W65407  22.591  14.298  12.558
64543W        W65408  23.249  12.015  11.544
64544W        W65409  22.818  11.299  14.208
64545W        W65410  24.870  11.783  11.889
64546W        W65411  25.237  12.265  11.834
64547W        W65412  22.980  14.482  14.305
64548W        W65413  22.906  11.018  11.540
64549W        W65414  25.227  11.552  12.575
64550W        W65415  25.377  13.801  11.020
64551W        W65416  22.284  13.004  12.722
64552W        W65417  24.201  11.591  10.952
64553W        W65418  25.335  13.923  12.672
64554W        W65419  25.374  11.117  13.422
64555W        W65420  23.819  12.329  13.976
64556W        W65421  23.912  13.668  11.679
64557W        W65422  24.312  12.962  14.419
64558W        W65423  23.986  10.939  12.728
64559W        W65424  22.598  11.842  12.791
64560W        W65425  22.152  13.042  13.565
64561W        W65426  24.011  14.235  12.271
64562W        W65427  25.205  11.832  13.143
64563W        W65428  23.842  14.179  13.910
64564W        W65429  25.185  13.238  11.115
64565W        W65430  23.620  12.721  12.176
64566W        W65431  25.472  11.232  13.917
64567W        W65432  23.621  13.067  13.511
64568W        W65433  23.838  11.953  12.956
64569W        W65434  24.690  12.251  11.794
64570W        W65435  24.977  11.984  11.436
64571W        W65436  24.786  14.024  11.825
64572W        W65437  24.620  13.627  12.621
64573W        W65438  24.516  12.706  11.599
64574W        W65439  23.949  12.916  12.585
64575W        W65440  24.830  12.704  12.652
64576W        W65441  22.205  11.719  13.076
64577W        W65442  24.983  12.771  13.903
64578W        W65443  25.334  14.389  13.049
64579W        W65444  23.264  13.833  12.451
64580W        W65445  24.271  14.366  13.775
64581W        W65446  24.265  11.696  13.539
64582W        W65447  23.472  14.404  13.600
64583W        W65448  25.169  11.358  12.066
64584W        W65449  24.960  12.677  13.367
64585W        W65450  21.943  11.998  13.405
64586W        W65451  24.803  11.793  12.423
64587W        W65452  25.214  11.944  14.200
64588W        W65453  24.099  13.643  12.418
64589W        W65454  23.355  14.234  12.031
64590W        W65455  22.470  11.414  11.289
64591W        W65456  23.574  11.068  13.099
64592W        W65457  22.602  14.188  10.947
64593W        W65458  22.976  12.654  11.698
64594W        W65459  23.630  13.283  14.011
64595W        W65460  23.460  11.641  12.001
64596W        W65461  24.816  11.238  12.429
64597W        W65462  24.536  14.520  12.757
64598W        W65463  23.948  14.168  13.097
64599W        W65464  23.344  13.205  13.058
64600W        W65465  25.114  13.928  13.184
64601W        W65466  22.808  11.431  11.953
64602W        W65467  23.330  13.728  12.913
64603W        W65468  22.813  11.659  10.978
64604W        W65469  23.614  12.268  13.372
64605W        W65470  24.462  11.134  13.242
64606W        W65471  21.882  12.977  13.127
64607W        W65472  23.586  12.795  11.285
64608W        W65473  22.854  11.110  11.055
64609W        W65474  23.592  12.191  12.106
64610W        W65475  24.562  11.167  13.805
64611W        W65476  23.150  13.179  13.914
64612W        W65477  23.954  12.961  14.131
64613W        W65478  24.571  12.991  14.024
64614W        W65479  23.855  11.131  14.529
64615W        W65480  23.077  11.747  12.922
64616W        W65481  22.503  11.703  12.320
64617W        W65482  22.289  14.415  11.996
64618W        W65483  23.621  13.745  14.121
64619W        W65484  22.656  13.230  11.480
64620W        W65485  24.336  12.615  12.701
64621W        W65486  24.616  12.414  13.100
64622W        W65487  23.821  13.088  13.034
64623W        W65488  24.291  13.462  11.166
64624W        W65489  23.963  11.483  12.494
64625W        W65490  25.442  11.761  11.762
64626W        W65491  21.936  14.350  13.793
64627W        W65492  22.353  13.576  13.325
64628W        W65493  21.920  14.422  11.557
64629W        W65494  23.819  11.692  13.363
64630W        W65495  23.182  13.715  11.212
64631W        W65496  25.087  14.097  11.398
64632W        W65497  24.062  12.750  11.412
64633W        W65498  22.905  11.941  11.929
64634W        W65499  23.737  11.851  10.981
64635W        W65500  24.321  13.416  14.159
64636W        W65501  24.674  11.322  11.776
64637W        W65502  22.004  11.170  11.224
64638W        W65503  23.290  13.489  13.514
64639W        W65504  23.089  13.405  12.606
64640W        W65505  22.831  13.357  11.004
64641W        W65506  22.072  13.598  11.772
64642W        W65507  22.576  12.668  14.214
64643W        W65508  23.280  11.228  14.400
64644W        W65509  23.989  11.370  13.756
64645W        W65510  23.184  11.138  12.037
64646W        W65511  24.243  11.215  11.542
64647W        W65512  22.188  11.147  13.119
64648W        W65513  22.236  12.110  12.489
64649W        W65514  24.925  11.218  12.895
64650W        W65515  22.347  11.716  11.709
64651W        W65516  24.918  11.404  13.325
64652W        W65517  25.314  12.607  11.010
64653W        W65518  22.606  11.365  12.829
64654W        W65519  23.720  11.937  13.769
64655W        W65520  21.868  11.627  11.247
64656W        W65521  22.654  13.016  13.808
64657W        W65522  24.012  12.414  12.987
64658W        W65523  23.879  14.493  11.283
64659W        W65524  22.025  13.000  10.980
64660W        W65525  22.760  13.411  14.106
64661W        W65526  22.281  12.578  13.737
64662W        W65527  23.272  12.683  13.531
64663W        W65528  25.040  11.042  13.793
64664W        W65529  25.438  12.652  13.784
64665W        W65530  25.426  12.852  11.470
64666W        W65531  24.289  13.184  11.569
64667W        W65532  24.763  14.484  11.264
64668W        W65533  23.940  12.474  14.406
64669W        W65534  22.270  13.441  14.446
64670W        W65535  25.476  11.363  14.398
64671W        W65536  25.194  12.291  13.019
64672W        W65537  23.502  14.421  14.496
64673W        W65538  23.357  11.050  11.223
64674W        W65539  24.896  13.649  11.166
64675W        W65540  22.665  11.742  14.052
64676W        W65541  23.099  13.736  13.914
64677W        W65542  25.225  11.727  13.712
64678W        W65543  24.436  14.386  11.680
64679W        W65544  24.675  13.005  13.047
64680W        W65545  22.925  11.421  13.714
64681W        W65546  23.394  12.490  14.471
64682W        W65547  22.897  13.669  11.665
64683W        W65548  24.652  13.167  11.929
64684W        W65549  22.420  11.793  13.653
64685W        W65550  23.749  13.855  12.117
64686W        W65551  25.499  12.415  12.298
64687W        W65552  23.721  11.048  14.017
64688W        W65553  24.501  13.753  13.096
64689W        W65554  24.804  14.097  12.804
64690W        W65555  24.023  13.899  11.232
64691W        W65556  22.033  13.791  14.074
64692W        W65557  22.776  11.783  13.312
64693W        W65558  22.746  11.131  12.422
64694W        W65559  24.367  11.973  13.114
64695W        W65560  23.165  13.144  11.314
64696W        W65561  25.163  13.086  12.813
64697W        W65562  22.490  13.844  14.236
64698W        W65563  24.877  14.526  12.033
64699W        W65564  22.976  11.546  12.478
64700W        W65565  22.745  13.039  12.568
64701W        W65566  23.058  14.450  13.318
64702W        W65567  25.125  14.546  14.350
64703W        W65568  24.284  12.734  13.283
64704W        W65569  22.133  12.532  11.198
64705W        W65570  25.267  14.190  11.895
64706W        W65571  25.104  11.514  11.514
64707W        W65572  23.243  11.033  13.917
64708W        W65573  24.949  13.835  12.375
64709W        W65574  24.978  12.391  12.280
64710W        W65575  23.095  12.064  12.496
64711W        W65576  23.340  12.326  13.820
64712W        W65577  24.451  13.479  13.683
64713W        W65578  23.101  11.933  13.795
64714W        W65579  23.080  14.399  12.411
64715W        W65580  22.397  14.358  14.045
64716W        W65581  22.509  13.719  11.175
64717W        W65582  25.026  13.477  11.985
64718W        W65583  22.630  12.269  13.871
64719W        W65584  25.403  12.199  11.352
64720W        W65585  23.148  13.256  11.823
64721W        W65586  24.247  12.638  13.904
64722W        W65587  24.138  12.266  13.448
64723W        W65588  22.698  12.638  13.477
64724W        W65589  24.908  14.526  13.306
64725W        W65590  24.699  11.160  14.300
64726W        W65591  22.363  11.310  13.887
64727W        W65592  22.702  12.333  12.940
64728W        W65593  23.071  12.147  11.062
64729W        W65594  21.874  13.906  13.607
64730W        W65595  23.459  12.615  13.050
64731W        W65596  23.282  11.640  11.155
64732W        W65597  22.417  12.456  11.936
64733W        W65598  22.188  14.308  13.373
64734W        W65599  24.983  12.534  11.481
64735W        W65600  25.078  11.450  14.167
64736W        W65601  24.514  13.659  12.130
64737W        W65602  22.112  12.583  14.307
64738W        W65603  25.078  11.047  11.603
64739W        W65604  24.598  13.522  11.614
64740W        W65605  23.500  12.580  11.699
64741W        W65606  24.687  11.384  11.222
64742W        W65607  24.752  11.991  13.408
64743W        W65608  22.461  12.584  12.615
64744W        W65609  22.755  13.523  12.264
64745W        W65610  24.518  12.143  12.229
64746W        W65611  23.541  11.522  12.925
64747W        W65612  25.503  13.433  13.436
64748W        W65613  25.421  11.420  12.997
64749W        W65614  21.960  14.250  12.373
64750W        W65615  22.469  13.437  11.909
64751W        W65616  22.384  11.054  14.462
64752W        W65617  23.503  13.907  14.564
64753W        W65618  25.258  12.875  12.354
64754W        W65619  24.612  13.052  11.234
64755W        W65620  23.907  14.573  13.446
64756W        W65621  24.764  13.295  14.483
64757W        W65622  23.579  11.005  11.763
64758W        W65623  24.292  11.874  12.622
64759W        W65624  21.978  13.461  12.954
64760W        W65625  23.231  11.423  11.595
64761W        W65626  23.035  12.907  14.444
64762W        W65627  24.029  11.888  12.158
64763W        W65628  24.234  13.298  13.280
64764W        W65629  22.388  13.903  13.715
64765W        W65630  22.979  13.886  14.438
64766W        W65631  22.830  11.683  11.452
64767W        W65632  24.347  11.825  11.777
64768W        W65633  24.305  13.933  14.014
64769W        W65634  22.990  12.525  12.613
64770W        W65635  22.645  14.223  13.478
64771W        W65636  25.390  14.340  11.079
64772W        W65637  22.253  13.012  14.075
64773W        W65638  24.248  13.274  12.763
64774W        W65639  22.684  12.923  12.005
64775W        W65640  23.055  13.930  13.400
64776W        W65641  23.433  11.349  12.441
64777W        W65642  22.044  13.333  11.371
64778W        W65643  23.563  12.284  11.241
64779W        W65644  22.209  12.833  12.260
64780W        W65645  23.499  11.475  13.724
64781W        W65646  25.171  11.184  11.151
64782W        W65647  25.264  12.930  14.250
64783W        W65648  23.918  14.187  14.402
64784W        W65649  25.476  13.281  13.924
64785W        W65650  24.884  14.079  14.535
64786W        W65651  22.623  14.535  13.013
64787W        W65652  25.482  13.157  11.887
64788W        W65653  24.012  12.424  12.400
64789W        W65654  23.779  11.036  12.290
64790W        W65655  22.838  14.020  12.127
64791W        W65656  23.337  11.761  13.352
64792W        W65657  23.037  11.130  12.821
64793W        W65658  22.100  13.952  11.369
64794W        W65659  23.916  13.316  12.087
64795W        W65660  22.791  14.111  13.966
64796W        W65661  22.268  12.934  11.662
64797W        W65662  22.153  11.477  12.661
64798W        W65663  23.701  13.442  12.718
64799W        W65664  21.953  11.296  11.738
64800W        W65665  24.617  12.502  13.665
64801W        W65666  24.494  11.888  11.237
64802W        W65667  25.011  13.560  12.885
64803W        W65668  23.672  14.044  12.716
64804W        W65669  23.084  14.148  11.627
64805W        W65670  24.366  11.051  11.057
64806W        W65671  22.166  14.311  12.798
64807W        W65672  24.363  12.069  14.433
64808W        W65673  22.346  11.599  14.432
64809W        W65674  22.077  12.199  11.765
64810W        W65675  22.768  12.188  11.490
64811W        W65676  24.531  12.515  14.307
64812W        W65677  22.874  12.796  13.016
64813W        W65678  24.348  11.082  12.136
64814W        W65679  23.479  14.513  12.639
64815W        W65680  24.693  13.975  13.576
64816W        W65681  24.277  14.124  12.687
64817W        W65682  24.296  13.104  12.281
64818W        W65683  23.758  11.329  11.352
64819W        W65684  25.439  10.957  12.074
64820W        W65685  23.127  12.592  11.237
64821W        W65686  25.293  11.929  12.227
64822W        W65687  23.985  13.099  11.104
64823W        W65688  24.921  13.299  13.852
64824W        W65689  24.575  14.000  11.319
64825W        W65690  23.190  11.675  14.225
64826W        W65691  23.010  12.259  13.466
64827W        W65692  25.102  13.754  13.743
64828W        W65693  24.202  11.704  14.120
64829W        W65694  22.046  12.175  13.897
64830W        W65695  23.806  12.652  13.623
64831W        W65696  22.163  13.410  12.280
64832W        W65697  22.310  12.707  13.170
64833W        W65698  24.627  12.993  13.520
64834W        W65699  24.399  14.373  14.331
64835W        W65700  24.295  12.112  13.884
64836W        W65701  24.572  14.166  12.289
64837W        W65702  23.574  13.886  13.612
64838W        W65703  23.059  14.241  12.881
64839W        W65704  24.864  13.412  13.300
64840W        W65705  23.914  13.484  14.437
64841W        W65706  22.519  13.437  12.776
64842W        W65707  24.865  13.196  12.421
64843W        W65708  24.506  14.262  13.172
64844W        W65709  22.484  13.991  13.042
64845W        W65710  23.505  12.043  14.252
64846W        W65711  23.956  14.209  11.763
64847W        W65712  23.264  13.464  14.401
64848W        W65713  23.390  13.702  11.778
64849W        W65714  22.611  12.442  11.037
64850W        W65715  21.950  14.528  17.936
64851W        W65716  22.326  13.421  17.459
64852W        W65717  25.031  13.151  15.229
64853W        W65718  25.161  14.236  17.256
64854W        W65719  23.079  14.227  14.782
64855W        W65720  23.162  12.379  15.765
64856W        W65721  22.677  12.227  15.929
64857W        W65722  23.668  13.042  15.363
64858W        W65723  21.992  11.695  17.681
64859W        W65724  22.754  10.975  17.483
64860W        W65725  24.448  11.363  16.370
64861W        W65726  24.097  12.234  14.940
64862W        W65727  24.667  11.668  18.031
64863W        W65728  22.033  11.460  17.156
64864W        W65729  22.132  14.079  18.177
64865W        W65730  23.654  13.469  14.909
64866W        W65731  22.086  12.252  16.602
64867W        W65732  22.979  12.143  17.839
64868W        W65733  25.438  12.002  16.338
64869W        W65734  25.202  13.045  17.197
64870W        W65735  23.510  12.378  16.224
64871W        W65736  24.056  13.717  16.593
64872W        W65737  22.556  13.151  16.825
64873W        W65738  21.915  12.679  16.396
64874W        W65739  22.951  12.651  17.588
64875W        W65740  25.222  12.434  17.842
64876W        W65741  22.838  13.878  16.287
64877W        W65742  23.959  13.567  17.421
64878W        W65743  23.179  12.207  16.646
64879W        W65744  23.471  12.991  16.289
64880W        W65745  24.468  13.764  18.137
64881W        W65746  23.547  13.084  18.147
64882W        W65747  23.528  12.800  17.625
64883W        W65748  21.937  12.191  18.147
64884W        W65749  24.769  13.726  17.746
64885W        W65750  22.350  11.308  15.744
64886W        W65751  22.877  13.566  16.743
64887W        W65752  25.340  13.349  16.033
64888W        W65753  24.753  11.749  16.600
64889W        W65754  25.038  11.702  14.695
64890W        W65755  25.503  12.503  17.001
64891W        W65756  23.470  14.210  16.754
64892W        W65757  25.244  13.676  15.192
64893W        W65758  22.373  14.462  14.946
64894W        W65759  22.766  14.508  15.622
64895W        W65760  22.563  11.262  17.048
64896W        W65761  25.186  12.280  17.323
64897W        W65762  24.591  12.702  15.782
64898W        W65763  24.557  12.390  14.809
64899W        W65764  23.765  13.534  16.949
64900W        W65765  23.571  11.864  16.148
64901W        W65766  24.171  13.951  17.142
64902W        W65767  25.042  12.742  15.564
64903W        W65768  23.944  11.400  15.580
64904W        W65769  22.601  14.094  15.263
64905W        W65770  21.972  11.593  15.862
64906W        W65771  24.758  12.200  16.336
64907W        W65772  22.216  13.817  16.251
64908W        W65773  23.557  14.167  15.121
64909W        W65774  24.949  12.193  14.585
64910W        W65775  21.972  13.951  16.749
64911W        W65776  22.763  13.523  17.229
64912W        W65777  23.136  12.883  15.848
64913W        W65778  23.158  11.288  16.941
64914W        W65779  25.387  11.050  16.238
64915W        W65780  22.606  12.922  14.706
64916W        W65781  22.261  11.955  14.885
64917W        W65782  22.323  13.911  15.679
64918W        W65783  23.454  13.394  15.927
64919W        W65784  24.786  14.253  17.641
64920W        W65785  23.712  11.895  15.325
64921W        W65786  25.095  14.293  16.097
64922W        W65787  24.772  12.146  17.695
64923W        W65788  25.485  13.802  15.829
64924W        W65789  24.112  13.094  17.313
64925W        W65790  21.878  12.645  15.519
64926W        W65791  22.989  13.060  17.092
64927W        W65792  24.193  12.324  15.470
64928W        W65793  24.070  12.814  15.574
64929W        W65794  22.413  12.234  17.048
64930W        W65795  22.398  12.110  17.970
64931W        W65796  22.288  11.027  16.129
64932W        W65797  24.056  11.374  16.690
64933W        W65798  23.704  11.559  17.853
64934W        W65799  24.059  11.708  15.031
64935W        W65800  25.242  14.101  17.785
64936W        W65801  24.209  11.182  17.824
64937W        W65802  25.228  13.483  17.946
64938W        W65803  24.658  11.650  17.542
64939W        W65804  24.458  11.588  15.812
64940W        W65805  24.851  12.722  18.216
64941W        W65806  22.591  14.298  16.202
64942W        W65807  23.249  12.015  15.188
64943W        W65808  22.818  11.299  17.852
64944W        W65809  24.870  11.783  15.533
64945W        W65810  25.237  12.265  15.478
64946W        W65811  22.980  14.482  17.949
64947W        W65812  22.906  11.018  15.184
64948W        W65813  25.227  11.552  16.219
64949W        W65814  25.377  13.801  14.664
64950W        W65815  22.284  13.004  16.366
64951W        W65816  24.201  11.591  14.596
64952W        W65817  25.335  13.923  16.316
64953W        W65818  25.374  11.117  17.066
64954W        W65819  23.819  12.329  17.620
64955W        W65820  23.912  13.668  15.323
64956W        W65821  24.312  12.962  18.063
64957W        W65822  23.986  10.939  16.372
64958W        W65823  22.598  11.842  16.435
64959W        W65824  22.152  13.042  17.209
64960W        W65825  24.011  14.235  15.915
64961W        W65826  25.205  11.832  16.787
64962W        W65827  25.185  13.238  14.759
64963W        W65828  23.620  12.721  15.820
64964W        W65829  25.472  11.232  17.561
64965W        W65830  23.621  13.067  17.155
64966W        W65831  23.838  11.953  16.600
64967W        W65832  24.690  12.251  15.438
64968W        W65833  24.977  11.984  15.080
64969W        W65834  24.786  14.024  15.469
64970W        W65835  24.620  13.627  16.265
64971W        W65836  24.516  12.706  15.243
64972W        W65837  23.949  12.916  16.229
64973W        W65838  24.830  12.704  16.296
64974W        W65839  22.205  11.719  16.720
64975W        W65840  24.983  12.771  17.547
64976W        W65841  25.334  14.389  16.693
64977W        W65842  23.264  13.833  16.095
64978W        W65843  24.271  14.366  17.419
64979W        W65844  24.265  11.696  17.183
64980W        W65845  23.472  14.404  17.244
64981W        W65846  25.169  11.358  15.710
64982W        W65847  24.960  12.677  17.011
64983W        W65848  21.943  11.998  17.049
64984W        W65849  24.803  11.793  16.067
64985W        W65850  25.214  11.944  17.844
64986W        W65851  24.099  13.643  16.062
64987W        W65852  23.355  14.234  15.675
64988W        W65853  22.470  11.414  14.933
64989W        W65854  23.574  11.068  16.743
64990W        W65855  22.602  14.188  14.591
64991W        W65856  22.976  12.654  15.342
64992W        W65857  23.630  13.283  17.655
64993W        W65858  23.460  11.641  15.645
64994W        W65859  24.816  11.238  16.073
64995W        W65860  24.536  14.520  16.401
64996W        W65861  23.948  14.168  16.741
64997W        W65862  23.344  13.205  16.702
64998W        W65863  25.114  13.928  16.828
64999W        W65864  22.808  11.431  15.597
65000W        W65865  23.330  13.728  16.557
65001W        W65866  22.813  11.659  14.622
65002W        W65867  23.614  12.268  17.016
65003W        W65868  24.462  11.134  16.886
65004W        W65869  21.882  12.977  16.771
65005W        W65870  23.586  12.795  14.929
65006W        W65871  22.854  11.110  14.699
65007W        W65872  23.592  12.191  15.750
65008W        W65873  24.562  11.167  17.449
65009W        W65874  23.150  13.179  17.558
65010W        W65875  23.954  12.961  17.775
65011W        W65876  24.571  12.991  17.668
65012W        W65877  23.855  11.131  18.173
65013W        W65878  23.077  11.747  16.566
65014W        W65879  22.503  11.703  15.964
65015W        W65880  22.289  14.415  15.640
65016W        W65881  23.621  13.745  17.765
65017W        W65882  22.656  13.230  15.124
65018W        W65883  24.336  12.615  16.345
65019W        W65884  24.616  12.414  16.744
65020W        W65885  23.821  13.088  16.678
65021W        W65886  24.291  13.462  14.810
65022W        W65887  23.963  11.483  16.138
65023W        W65888  25.442  11.761  15.406
65024W        W65889  21.936  14.350  17.437
65025W        W65890  22.353  13.576  16.969
65026W        W65891  21.920  14.422  15.201
65027W        W65892  23.819  11.692  17.007
65028W        W65893  23.182  13.715  14.856
65029W        W65894  25.087  14.097  15.042
65030W        W65895  24.062  12.750  15.056
65031W        W65896  22.905  11.941  15.573
65032W        W65897  23.737  11.851  14.625
65033W        W65898  24.321  13.416  17.803
65034W        W65899  24.674  11.322  15.420
65035W        W65900  22.004  11.170  14.868
65036W        W65901  23.290  13.489  17.158
65037W        W65902  23.089  13.405  16.250
65038W        W65903  22.831  13.357  14.648
65039W        W65904  22.072  13.598  15.416
65040W        W65905  22.576  12.668  17.858
65041W        W65906  23.280  11.228  18.044
65042W        W65907  23.989  11.370  17.400
65043W        W65908  23.184  11.138  15.681
65044W        W65909  24.243  11.215  15.186
65045W        W65910  22.188  11.147  16.763
65046W        W65911  22.236  12.110  16.133
65047W        W65912  24.925  11.218  16.539
65048W        W65913  22.347  11.716  15.353
65049W        W65914  24.918  11.404  16.969
65050W        W65915  25.314  12.607  14.654
65051W        W65916  22.606  11.365  16.473
65052W        W65917  23.720  11.937  17.413
65053W        W65918  21.868  11.627  14.891
65054W        W65919  22.654  13.016  17.452
65055W        W65920  24.012  12.414  16.631
65056W        W65921  23.879  14.493  14.927
65057W        W65922  22.025  13.000  14.624
65058W        W65923  22.760  13.411  17.750
65059W        W65924  22.281  12.578  17.381
65060W        W65925  23.272  12.683  17.175
65061W        W65926  25.040  11.042  17.437
65062W        W65927  25.438  12.652  17.428
65063W        W65928  25.426  12.852  15.114
65064W        W65929  24.289  13.184  15.213
65065W        W65930  24.763  14.484  14.908
65066W        W65931  23.940  12.474  18.050
65067W        W65932  22.270  13.441  18.090
65068W        W65933  25.476  11.363  18.042
65069W        W65934  25.194  12.291  16.663
65070W        W65935  23.502  14.421  18.140
65071W        W65936  23.357  11.050  14.867
65072W        W65937  24.896  13.649  14.810
65073W        W65938  22.665  11.742  17.696
65074W        W65939  23.099  13.736  17.558
65075W        W65940  25.225  11.727  17.356
65076W        W65941  24.436  14.386  15.324
65077W        W65942  24.675  13.005  16.691
65078W        W65943  22.925  11.421  17.358
65079W        W65944  23.394  12.490  18.115
65080W        W65945  22.897  13.669  15.309
65081W        W65946  24.652  13.167  15.573
65082W        W65947  22.420  11.793  17.297
65083W        W65948  23.749  13.855  15.761
65084W        W65949  25.499  12.415  15.942
65085W        W65950  23.721  11.048  17.661
65086W        W65951  24.501  13.753  16.740
65087W        W65952  24.804  14.097  16.448
65088W        W65953  24.023  13.899  14.876
65089W        W65954  22.033  13.791  17.718
65090W        W65955  22.776  11.783  16.956
65091W        W65956  22.746  11.131  16.066
65092W        W65957  24.367  11.973  16.758
65093W        W65958  23.165  13.144  14.958
65094W        W65959  25.163  13.086  16.457
65095W        W65960  22.490  13.844  17.880
65096W        W65961  24.877  14.526  15.677
65097W        W65962  22.976  11.546  16.122
65098W        W65963  22.745  13.039  16.212
65099W        W65964  23.058  14.450  16.962
65100W        W65965  25.125  14.546  17.994
65101W        W65966  24.284  12.734  16.927
65102W        W65967  22.133  12.532  14.842
65103W        W65968  25.267  14.190  15.539
65104W        W65969  25.104  11.514  15.158
65105W        W65970  23.243  11.033  17.561
65106W        W65971  24.949  13.835  16.019
65107W        W65972  24.978  12.391  15.924
65108W        W65973  23.095  12.064  16.140
65109W        W65974  23.340  12.326  17.464
65110W        W65975  24.451  13.479  17.327
65111W        W65976  23.101  11.933  17.439
65112W        W65977  23.080  14.399  16.055
65113W        W65978  22.397  14.358  17.689
65114W        W65979  22.509  13.719  14.819
65115W        W65980  25.026  13.477  15.629
65116W        W65981  22.630  12.269  17.515
65117W        W65982  25.403  12.199  14.996
65118W        W65983  23.148  13.256  15.467
65119W        W65984  24.247  12.638  17.548
65120W        W65985  24.138  12.266  17.092
65121W        W65986  22.698  12.638  17.121
65122W        W65987  24.908  14.526  16.950
65123W        W65988  24.699  11.160  17.944
65124W        W65989  22.363  11.310  17.531
65125W        W65990  22.702  12.333  16.584
65126W        W65991  23.071  12.147  14.706
65127W        W65992  21.874  13.906  17.251
65128W        W65993  23.459  12.615  16.694
65129W        W65994  23.282  11.640  14.799
65130W        W65995  22.417  12.456  15.580
65131W        W65996  22.188  14.308  17.017
65132W        W65997  24.983  12.534  15.125
65133W        W65998  25.078  11.450  17.811
65134W        W65999  24.514  13.659  15.774
65135W        W66000  22.112  12.583  17.951
65136W        W66001  25.078  11.047  15.247
65137W        W66002  24.598  13.522  15.258
65138W        W66003  23.500  12.580  15.343
65139W        W66004  24.687  11.384  14.866
65140W        W66005  24.752  11.991  17.052
65141W        W66006  22.461  12.584  16.259
65142W        W66007  22.755  13.523  15.908
65143W        W66008  24.518  12.143  15.873
65144W        W66009  23.541  11.522  16.569
65145W        W66010  25.503  13.433  17.080
65146W        W66011  25.421  11.420  16.641
65147W        W66012  21.960  14.250  16.017
65148W        W66013  22.469  13.437  15.553
65149W        W66014  22.384  11.054  18.106
65150W        W66015  23.503  13.907  18.208
65151W        W66016  25.258  12.875  15.998
65152W        W66017  24.612  13.052  14.878
65153W        W66018  23.907  14.573  17.090
65154W        W66019  24.764  13.295  18.127
65155W        W66020  23.579  11.005  15.407
65156W        W66021  24.292  11.874  16.266
65157W        W66022  21.978  13.461  16.598
65158W        W66023  23.231  11.423  15.239
65159W        W66024  23.035  12.907  18.088
65160W        W66025  24.029  11.888  15.802
65161W        W66026  24.234  13.298  16.924
65162W        W66027  22.388  13.903  17.359
65163W        W66028  22.979  13.886  18.082
65164W        W66029  22.830  11.683  15.096
65165W        W66030  24.347  11.825  15.421
65166W        W66031  24.305  13.933  17.658
65167W        W66032  22.990  12.525  16.257
65168W        W66033  22.645  14.223  17.122
65169W        W66034  25.390  14.340  14.723
65170W        W66035  22.253  13.012  17.719
65171W        W66036  24.248  13.274  16.407
65172W        W66037  22.684  12.923  15.649
65173W        W66038  23.055  13.930  17.044
65174W        W66039  23.433  11.349  16.085
65175W        W66040  22.044  13.333  15.015
65176W        W66041  23.563  12.284  14.885
65177W        W66042  22.209  12.833  15.904
65178W        W66043  23.499  11.475  17.368
65179W        W66044  25.171  11.184  14.795
65180W        W66045  25.264  12.930  17.894
65181W        W66046  23.918  14.187  18.046
65182W        W66047  25.476  13.281  17.568
65183W        W66048  24.884  14.079  18.179
65184W        W66049  22.623  14.535  16.657
65185W        W66050  25.482  13.157  15.531
65186W        W66051  24.012  12.424  16.044
65187W        W66052  23.779  11.036  15.934
65188W        W66053  22.838  14.020  15.771
65189W        W66054  23.337  11.761  16.996
65190W        W66055  23.037  11.130  16.465
65191W        W66056  22.100  13.952  15.013
65192W        W66057  23.916  13.316  15.731
65193W        W66058  22.791  14.111  17.610
65194W        W66059  22.268  12.934  15.306
65195W        W66060  22.153  11.477  16.305
65196W        W66061  23.701  13.442  16.362
65197W        W66062  21.953  11.296  15.382
65198W        W66063  24.617  12.502  17.309
65199W        W66064  24.494  11.888  14.881
65200W        W66065  25.011  13.560  16.529
65201W        W66066  23.672  14.044  16.360
65202W        W66067  23.084  14.148  15.271
65203W        W66068  24.366  11.051  14.701
65204W        W66069  22.166  14.311  16.442
65205W        W66070  24.363  12.069  18.077
65206W        W66071  22.346  11.599  18.076
65207W        W66072  22.077  12.199  15.409
65208W        W66073  22.768  12.188  15.134
65209W        W66074  24.531  12.515  17.951
65210W        W66075  22.874  12.796  16.660
65211W        W66076  24.348  11.082  15.780
65212W        W66077  23.479  14.513  16.283
65213W        W66078  24.693  13.975  17.220
65214W        W66079  24.277  14.124  16.331
65215W        W66080  24.296  13.104  15.925
65216W        W66081  23.758  11.329  14.996
65217W        W66082  25.439  10.957  15.718
65218W        W66083  23.127  12.592  14.881
65219W        W66084  25.293  11.929  15.871
65220W        W66085  23.985  13.099  14.748
65221W        W66086  24.921  13.299  17.496
65222W        W66087  24.575  14.000  14.963
65223W        W66088  23.190  11.675  17.869
65224W        W66089  23.010  12.259  17.110
65225W        W66090  25.102  13.754  17.387
65226W        W66091  24.202  11.704  17.764
65227W        W66092  22.046  12.175  17.541
65228W        W66093  23.806  12.652  17.267
65229W        W66094  22.163  13.410  15.924
65230W        W66095  22.310  12.707  16.814
65231W        W66096  24.627  12.993  17.164
65232W        W66097  24.399  14.373  17.975
65233W        W66098  24.295  12.112  17.528
65234W        W66099  24.572  14.166  15.933
65235W        W66100  23.574  13.886  17.256
65236W        W66101  23.059  14.241  16.525
65237W        W66102  24.864  13.412  16.944
65238W        W66103  23.914  13.484  18.081
65239W        W66104  22.519  13.437  16.420
65240W        W66105  24.865  13.196  16.065
65241W        W66106  24.506  14.262  16.816
65242W        W66107  22.484  13.991  16.686
65243W        W66108  23.505  12.043  17.896
65244W        W66109  23.956  14.209  15.407
65245W        W66110  23.264  13.464  18.045
65246W        W66111  23.390  13.702  15.422
65247W        W66112  22.611  12.442  14.681
65248W        W66113  21.950  14.528  21.580
65249W        W66114  22.326  13.421  21.103
65250W        W66115  25.031  13.151  18.873
65251W        W66116  25.161  14.236  20.900
65252W        W66117  23.079  14.227  18.426
65253W        W66118  23.162  12.379  19.409
65254W        W66119  22.677  12.227  19.573
65255W        W66120  23.668  13.042  19.007
65256W        W66121  23.343  14.134  21.362
65257W        W66122  21.992  11.695  21.325
65258W        W66123  22.754  10.975  21.127
65259W        W66124  24.448  11.363  20.014
65260W        W66125  24.097  12.234  18.584
65261W        W66126  24.667  11.668  21.675
65262W        W66127  22.033  11.460  20.800
65263W        W66128  22.132  14.079  21.821
65264W        W66129  23.654  13.469  18.553
65265W        W66130  22.086  12.252  20.246
65266W        W66131  22.979  12.143  21.483
65267W        W66132  25.438  12.002  19.982
65268W        W66133  25.202  13.045  20.841
65269W        W66134  23.510  12.378  19.868
65270W        W66135  24.056  13.717  20.237
65271W        W66136  22.556  13.151  20.469
65272W        W66137  21.915  12.679  20.040
65273W        W66138  22.951  12.651  21.232
65274W        W66139  25.222  12.434  21.486
65275W        W66140  22.838  13.878  19.931
65276W        W66141  23.959  13.567  21.065
65277W        W66142  23.179  12.207  20.290
65278W        W66143  23.471  12.991  19.933
65279W        W66144  24.468  13.764  21.781
65280W        W66145  23.547  13.084  21.791
65281W        W66146  23.528  12.800  21.269
65282W        W66147  21.937  12.191  21.791
65283W        W66148  24.769  13.726  21.390
65284W        W66149  22.350  11.308  19.388
65285W        W66150  22.877  13.566  20.387
65286W        W66151  25.340  13.349  19.677
65287W        W66152  24.753  11.749  20.244
65288W        W66153  25.038  11.702  18.339
65289W        W66154  25.503  12.503  20.645
65290W        W66155  23.470  14.210  20.398
65291W        W66156  25.244  13.676  18.836
65292W        W66157  22.373  14.462  18.590
65293W        W66158  22.766  14.508  19.266
65294W        W66159  22.563  11.262  20.692
65295W        W66160  25.186  12.280  20.967
65296W        W66161  24.591  12.702  19.426
65297W        W66162  24.557  12.390  18.453
65298W        W66163  23.765  13.534  20.593
65299W        W66164  23.571  11.864  19.792
65300W        W66165  24.171  13.951  20.786
65301W        W66166  25.042  12.742  19.208
65302W        W66167  23.944  11.400  19.224
65303W        W66168  22.601  14.094  18.907
65304W        W66169  21.972  11.593  19.506
65305W        W66170  24.758  12.200  19.980
65306W        W66171  22.216  13.817  19.895
65307W        W66172  23.557  14.167  18.765
65308W        W66173  24.949  12.193  18.229
65309W        W66174  21.972  13.951  20.393
65310W        W66175  22.763  13.523  20.873
65311W        W66176  23.136  12.883  19.492
65312W        W66177  23.158  11.288  20.585
65313W        W66178  25.387  11.050  19.882
65314W        W66179  22.606  12.922  18.350
65315W        W66180  22.261  11.955  18.529
65316W        W66181  22.323  13.911  19.323
65317W        W66182  23.454  13.394  19.571
65318W        W66183  24.786  14.253  21.285
65319W        W66184  23.712  11.895  18.969
65320W        W66185  25.095  14.293  19.741
65321W        W66186  24.772  12.146  21.339
65322W        W66187  25.485  13.802  19.473
65323W        W66188  24.112  13.094  20.957
65324W        W66189  21.878  12.645  19.163
65325W        W66190  22.989  13.060  20.736
65326W        W66191  24.193  12.324  19.114
65327W        W66192  24.070  12.814  19.218
65328W        W66193  22.413  12.234  20.692
65329W        W66194  22.398  12.110  21.614
65330W        W66195  22.288  11.027  19.773
65331W        W66196  24.056  11.374  20.334
65332W        W66197  23.704  11.559  21.497
65333W        W66198  24.059  11.708  18.675
65334W        W66199  25.242  14.101  21.429
65335W        W66200  24.209  11.182  21.468
65336W        W66201  25.228  13.483  21.590
65337W        W66202  24.658  11.650  21.186
65338W        W66203  24.458  11.588  19.456
65339W        W66204  24.851  12.722  21.860
65340W        W66205  22.591  14.298  19.846
65341W        W66206  23.249  12.015  18.832
65342W        W66207  22.818  11.299  21.496
65343W        W66208  24.870  11.783  19.177
65344W        W66209  25.237  12.265  19.122
65345W        W66210  22.980  14.482  21.593
65346W        W66211  22.906  11.018  18.828
65347W        W66212  25.227  11.552  19.863
65348W        W66213  25.377  13.801  18.308
65349W        W66214  22.284  13.004  20.010
65350W        W66215  24.201  11.591  18.240
65351W        W66216  25.335  13.923  19.960
65352W        W66217  25.374  11.117  20.710
65353W        W66218  23.819  12.329  21.264
65354W        W66219  23.912  13.668  18.967
65355W        W66220  24.312  12.962  21.707
65356W        W66221  23.986  10.939  20.016
65357W        W66222  22.598  11.842  20.079
65358W        W66223  22.152  13.042  20.853
65359W        W66224  24.011  14.235  19.559
65360W        W66225  25.205  11.832  20.431
65361W        W66226  23.842  14.179  21.198
65362W        W66227  25.185  13.238  18.403
65363W        W66228  23.620  12.721  19.464
65364W        W66229  25.472  11.232  21.205
65365W        W66230  23.621  13.067  20.799
65366W        W66231  23.838  11.953  20.244
65367W        W66232  24.690  12.251  19.082
65368W        W66233  24.977  11.984  18.724
65369W        W66234  24.786  14.024  19.113
65370W        W66235  24.620  13.627  19.909
65371W        W66236  24.516  12.706  18.887
65372W        W66237  23.949  12.916  19.873
65373W        W66238  24.830  12.704  19.940
65374W        W66239  22.205  11.719  20.364
65375W        W66240  24.983  12.771  21.191
65376W        W66241  25.334  14.389  20.337
65377W        W66242  23.264  13.833  19.739
65378W        W66243  24.271  14.366  21.063
65379W        W66244  24.265  11.696  20.827
65380W        W66245  23.472  14.404  20.888
65381W        W66246  25.169  11.358  19.354
65382W        W66247  24.960  12.677  20.655
65383W        W66248  21.943  11.998  20.693
65384W        W66249  24.803  11.793  19.711
65385W        W66250  25.214  11.944  21.488
65386W        W66251  24.099  13.643  19.706
65387W        W66252  23.355  14.234  19.319
65388W        W66253  22.470  11.414  18.577
65389W        W66254  23.574  11.068  20.387
65390W        W66255  22.602  14.188  18.235
65391W        W66256  22.976  12.654  18.986
65392W        W66257  23.630  13.283  21.299
65393W        W66258  23.460  11.641  19.289
65394W        W66259  24.816  11.238  19.717
65395W        W66260  24.536  14.520  20.045
65396W        W66261  23.948  14.168  20.385
65397W        W66262  23.344  13.205  20.346
65398W        W66263  25.114  13.928  20.472
65399W        W66264  22.808  11.431  19.241
65400W        W66265  23.330  13.728  20.201
65401W        W66266  22.813  11.659  18.266
65402W        W66267  23.614  12.268  20.660
65403W        W66268  24.462  11.134  20.530
65404W        W66269  21.882  12.977  20.415
65405W        W66270  23.586  12.795  18.573
65406W        W66271  22.854  11.110  18.343
65407W        W66272  23.592  12.191  19.394
65408W        W66273  24.562  11.167  21.093
65409W        W66274  23.150  13.179  21.202
65410W        W66275  23.954  12.961  21.419
65411W        W66276  24.571  12.991  21.312
65412W        W66277  23.855  11.131  21.817
65413W        W66278  23.077  11.747  20.210
65414W        W66279  22.503  11.703  19.608
65415W        W66280  22.289  14.415  19.284
65416W        W66281  23.621  13.745  21.409
65417W        W66282  22.656  13.230  18.768
65418W        W66283  24.336  12.615  19.989
65419W        W66284  24.616  12.414  20.388
65420W        W66285  23.821  13.088  20.322
65421W        W66286  24.291  13.462  18.454
65422W        W66287  23.963  11.483  19.782
65423W        W66288  25.442  11.761  19.050
65424W        W66289  21.936  14.350  21.081
65425W        W66290  22.353  13.576  20.613
65426W        W66291  21.920  14.422  18.845
65427W        W66292  23.819  11.692  20.651
65428W        W66293  23.182  13.715  18.500
65429W        W66294  25.087  14.097  18.686
65430W        W66295  24.062  12.750  18.700
65431W        W66296  22.905  11.941  19.217
65432W        W66297  23.737  11.851  18.269
65433W        W66298  24.321  13.416  21.447
65434W        W66299  24.674  11.322  19.064
65435W        W66300  22.004  11.170  18.512
65436W        W66301  23.290  13.489  20.802
65437W        W66302  23.089  13.405  19.894
65438W        W66303  22.831  13.357  18.292
65439W        W66304  22.072  13.598  19.060
65440W        W66305  22.576  12.668  21.502
65441W        W66306  23.280  11.228  21.688
65442W        W66307  23.989  11.370  21.044
65443W        W66308  23.184  11.138  19.325
65444W        W66309  24.243  11.215  18.830
65445W        W66310  22.188  11.147  20.407
65446W        W66311  22.236  12.110  19.777
65447W        W66312  24.925  11.218  20.183
65448W        W66313  22.347  11.716  18.997
65449W        W66314  24.918  11.404  20.613
65450W        W66315  25.314  12.607  18.298
65451W        W66316  22.606  11.365  20.117
65452W        W66317  23.720  11.937  21.057
65453W        W66318  21.868  11.627  18.535
65454W        W66319  22.654  13.016  21.096
65455W        W66320  24.012  12.414  20.275
65456W        W66321  23.879  14.493  18.571
65457W        W66322  22.025  13.000  18.268
65458W        W66323  22.760  13.411  21.394
65459W        W66324  22.281  12.578  21.025
65460W        W66325  23.272  12.683  20.819
65461W        W66326  25.040  11.042  21.081
65462W        W66327  25.438  12.652  21.072
65463W        W66328  25.426  12.852  18.758
65464W        W66329  24.289  13.184  18.857
65465W        W66330  24.763  14.484  18.552
65466W        W66331  23.940  12.474  21.694
65467W        W66332  22.270  13.441  21.734
65468W        W66333  25.476  11.363  21.686
65469W        W66334  25.194  12.291  20.307
65470W        W66335  23.502  14.421  21.784
65471W        W66336  23.357  11.050  18.511
65472W        W66337  24.896  13.649  18.454
65473W        W66338  22.665  11.742  21.340
65474W        W66339  23.099  13.736  21.202
65475W        W66340  25.225  11.727  21.000
65476W        W66341  24.436  14.386  18.968
65477W        W66342  24.675  13.005  20.335
65478W        W66343  22.925  11.421  21.002
65479W        W66344  23.394  12.490  21.759
65480W        W66345  22.897  13.669  18.953
65481W        W66346  24.652  13.167  19.217
65482W        W66347  22.420  11.793  20.941
65483W        W66348  23.749  13.855  19.405
65484W        W66349  25.499  12.415  19.586
65485W        W66350  23.721  11.048  21.305
65486W        W66351  24.501  13.753  20.384
65487W        W66352  24.804  14.097  20.092
65488W        W66353  24.023  13.899  18.520
65489W        W66354  22.033  13.791  21.362
65490W        W66355  22.776  11.783  20.600
65491W        W66356  22.746  11.131  19.710
65492W        W66357  24.367  11.973  20.402
65493W        W66358  23.165  13.144  18.602
65494W        W66359  25.163  13.086  20.101
65495W        W66360  22.490  13.844  21.524
65496W        W66361  24.877  14.526  19.321
65497W        W66362  22.976  11.546  19.766
65498W        W66363  22.745  13.039  19.856
65499W        W66364  23.058  14.450  20.606
65500W        W66365  25.125  14.546  21.638
65501W        W66366  24.284  12.734  20.571
65502W        W66367  22.133  12.532  18.486
65503W        W66368  25.267  14.190  19.183
65504W        W66369  25.104  11.514  18.802
65505W        W66370  23.243  11.033  21.205
65506W        W66371  24.949  13.835  19.663
65507W        W66372  24.978  12.391  19.568
65508W        W66373  23.095  12.064  19.784
65509W        W66374  23.340  12.326  21.108
65510W        W66375  24.451  13.479  20.971
65511W        W66376  23.101  11.933  21.083
65512W        W66377  23.080  14.399  19.699
65513W        W66378  22.397  14.358  21.333
65514W        W66379  22.509  13.719  18.463
65515W        W66380  25.026  13.477  19.273
65516W        W66381  22.630  12.269  21.159
65517W        W66382  25.403  12.199  18.640
65518W        W66383  23.148  13.256  19.111
65519W        W66384  24.247  12.638  21.192
65520W        W66385  24.138  12.266  20.736
65521W        W66386  22.698  12.638  20.765
65522W        W66387  24.908  14.526  20.594
65523W        W66388  24.699  11.160  21.588
65524W        W66389  22.363  11.310  21.175
65525W        W66390  22.702  12.333  20.228
65526W        W66391  23.071  12.147  18.350
65527W        W66392  21.874  13.906  20.895
65528W        W66393  23.459  12.615  20.338
65529W        W66394  23.282  11.640  18.443
65530W        W66395  22.417  12.456  19.224
65531W        W66396  22.188  14.308  20.661
65532W        W66397  24.983  12.534  18.769
65533W        W66398  25.078  11.450  21.455
65534W        W66399  24.514  13.659  19.418
65535W        W66400  22.112  12.583  21.595
65536W        W66401  25.078  11.047  18.891
65537W        W66402  24.598  13.522  18.902
65538W        W66403  23.500  12.580  18.987
65539W        W66404  24.687  11.384  18.510
65540W        W66405  24.752  11.991  20.696
65541W        W66406  22.461  12.584  19.903
65542W        W66407  22.755  13.523  19.552
65543W        W66408  24.518  12.143  19.517
65544W        W66409  23.541  11.522  20.213
65545W        W66410  25.503  13.433  20.724
65546W        W66411  25.421  11.420  20.285
65547W        W66412  21.960  14.250  19.661
65548W        W66413  22.469  13.437  19.197
65549W        W66414  22.384  11.054  21.750
65550W        W66415  23.503  13.907  21.852
65551W        W66416  25.258  12.875  19.642
65552W        W66417  24.612  13.052  18.522
65553W        W66418  23.907  14.573  20.734
65554W        W66419  24.764  13.295  21.771
65555W        W66420  23.579  11.005  19.051
65556W        W66421  24.292  11.874  19.910
65557W        W66422  21.978  13.461  20.242
65558W        W66423  23.231  11.423  18.883
65559W        W66424  23.035  12.907  21.732
65560W        W66425  24.029  11.888  19.446
65561W        W66426  24.234  13.298  20.568
65562W        W66427  22.388  13.903  21.003
65563W        W66428  22.979  13.886  21.726
65564W        W66429  22.830  11.683  18.740
65565W        W66430  24.347  11.825  19.065
65566W        W66431  24.305  13.933  21.302
65567W        W66432  22.990  12.525  19.901
65568W        W66433  22.645  14.223  20.766
65569W        W66434  25.390  14.340  18.367
65570W        W66435  22.253  13.012  21.363
65571W        W66436  24.248  13.274  20.051
65572W        W66437  22.684  12.923  19.293
65573W        W66438  23.055  13.930  20.688
65574W        W66439  23.433  11.349  19.729
65575W        W66440  22.044  13.333  18.659
65576W        W66441  23.563  12.284  18.529
65577W        W66442  22.209  12.833  19.548
65578W        W66443  23.499  11.475  21.012
65579W        W66444  25.171  11.184  18.439
65580W        W66445  25.264  12.930  21.538
65581W        W66446  23.918  14.187  21.690
65582W        W66447  25.476  13.281  21.212
65583W        W66448  24.884  14.079  21.823
65584W        W66449  22.623  14.535  20.301
65585W        W66450  25.482  13.157  19.175
65586W        W66451  24.012  12.424  19.688
65587W        W66452  23.779  11.036  19.578
65588W        W66453  22.838  14.020  19.415
65589W        W66454  23.337  11.761  20.640
65590W        W66455  23.037  11.130  20.109
65591W        W66456  22.100  13.952  18.657
65592W        W66457  23.916  13.316  19.375
65593W        W66458  22.791  14.111  21.254
65594W        W66459  22.268  12.934  18.950
65595W        W66460  22.153  11.477  19.949
65596W        W66461  23.701  13.442  20.006
65597W        W66462  21.953  11.296  19.026
65598W        W66463  24.617  12.502  20.953
65599W        W66464  24.494  11.888  18.525
65600W        W66465  25.011  13.560  20.173
65601W        W66466  23.672  14.044  20.004
65602W        W66467  23.084  14.148  18.915
65603W        W66468  24.366  11.051  18.345
65604W        W66469  22.166  14.311  20.086
65605W        W66470  24.363  12.069  21.721
65606W        W66471  22.346  11.599  21.720
65607W        W66472  22.077  12.199  19.053
65608W        W66473  22.768  12.188  18.778
65609W        W66474  24.531  12.515  21.595
65610W        W66475  22.874  12.796  20.304
65611W        W66476  24.348  11.082  19.424
65612W        W66477  23.479  14.513  19.927
65613W        W66478  24.693  13.975  20.864
65614W        W66479  24.277  14.124  19.975
65615W        W66480  24.296  13.104  19.569
65616W        W66481  23.758  11.329  18.640
65617W        W66482  25.439  10.957  19.362
65618W        W66483  23.127  12.592  18.525
65619W        W66484  25.293  11.929  19.515
65620W        W66485  23.985  13.099  18.392
65621W        W66486  24.921  13.299  21.140
65622W        W66487  24.575  14.000  18.607
65623W        W66488  23.190  11.675  21.513
65624W        W66489  23.010  12.259  20.754
65625W        W66490  25.102  13.754  21.031
65626W        W66491  24.202  11.704  21.408
65627W        W66492  22.046  12.175  21.185
65628W        W66493  23.806  12.652  20.911
65629W        W66494  22.163  13.410  19.568
65630W        W66495  22.310  12.707  20.458
65631W        W66496  24.627  12.993  20.808
65632W        W66497  24.399  14.373  21.619
65633W        W66498  24.295  12.112  21.172
65634W        W66499  24.572  14.166  19.577
65635W        W66500  23.574  13.886  20.900
65636W        W66501  23.059  14.241  20.169
65637W        W66502  24.864  13.412  20.588
65638W        W66503  23.914  13.484  21.725
65639W        W66504  22.519  13.437  20.064
65640W        W66505  24.865  13.196  19.709
65641W        W66506  24.506  14.262  20.460
65642W        W66507  22.484  13.991  20.330
65643W        W66508  23.505  12.043  21.540
65644W        W66509  23.956  14.209  19.051
65645W        W66510  23.264  13.464  21.689
65646W        W66511  23.390  13.702  19.066
65647W        W66512  22.611  12.442  18.325
65648W        W66513  21.950  14.528  25.225
65649W        W66514  22.326  13.421  24.748
65650W        W66515  25.031  13.151  22.518
65651W        W66516  25.161  14.236  24.545
65652W        W66517  23.079  14.227  22.071
65653W        W66518  23.162  12.379  23.054
65654W        W66519  22.677  12.227  23.218
65655W        W66520  23.668  13.042  22.652
65656W        W66521  23.343  14.134  25.007
65657W        W66522  21.992  11.695  24.970
65658W        W66523  22.754  10.975  24.772
65659W        W66524  24.448  11.363  23.659
65660W        W66525  24.097  12.234  22.229
65661W        W66526  24.667  11.668  25.320
65662W        W66527  22.033  11.460  24.445
65663W        W66528  22.132  14.079  25.466
65664W        W66529  23.654  13.469  22.198
65665W        W66530  22.086  12.252  23.891
65666W        W66531  22.979  12.143  25.128
65667W        W66532  25.438  12.002  23.627
65668W        W66533  25.202  13.045  24.486
65669W        W66534  23.510  12.378  23.513
65670W        W66535  24.056  13.717  23.882
65671W        W66536  22.556  13.151  24.114
65672W        W66537  21.915  12.679  23.685
65673W        W66538  22.951  12.651  24.877
65674W        W66539  25.222  12.434  25.131
65675W        W66540  22.838  13.878  23.576
65676W        W66541  23.959  13.567  24.710
65677W        W66542  23.179  12.207  23.935
65678W        W66543  23.471  12.991  23.578
65679W        W66544  24.468  13.764  25.426
65680W        W66545  23.547  13.084  25.436
65681W        W66546  23.528  12.800  24.914
65682W        W66547  21.937  12.191  25.436
65683W        W66548  24.769  13.726  25.035
65684W        W66549  22.350  11.308  23.033
65685W        W66550  22.877  13.566  24.032
65686W        W66551  25.340  13.349  23.322
65687W        W66552  24.753  11.749  23.889
65688W        W66553  25.038  11.702  21.984
65689W        W66554  25.503  12.503  24.290
65690W        W66555  23.470  14.210  24.043
65691W        W66556  25.244  13.676  22.481
65692W        W66557  22.373  14.462  22.235
65693W        W66558  22.766  14.508  22.911
65694W        W66559  22.563  11.262  24.337
65695W        W66560  25.186  12.280  24.612
65696W        W66561  24.591  12.702  23.071
65697W        W66562  24.557  12.390  22.098
65698W        W66563  23.765  13.534  24.238
65699W        W66564  23.571  11.864  23.437
65700W        W66565  24.171  13.951  24.431
65701W        W66566  25.042  12.742  22.853
65702W        W66567  23.944  11.400  22.869
65703W        W66568  22.601  14.094  22.552
65704W        W66569  21.972  11.593  23.151
65705W        W66570  24.758  12.200  23.625
65706W        W66571  22.216  13.817  23.540
65707W        W66572  23.557  14.167  22.410
65708W        W66573  24.949  12.193  21.874
65709W        W66574  21.972  13.951  24.038
65710W        W66575  22.763  13.523  24.518
65711W        W66576  23.136  12.883  23.137
65712W        W66577  23.158  11.288  24.230
65713W        W66578  25.387  11.050  23.527
65714W        W66579  22.606  12.922  21.995
65715W        W66580  22.261  11.955  22.174
65716W        W66581  22.323  13.911  22.968
65717W        W66582  23.454  13.394  23.216
65718W        W66583  24.786  14.253  24.930
65719W        W66584  23.712  11.895  22.614
65720W        W66585  25.095  14.293  23.386
65721W        W66586  24.772  12.146  24.984
65722W        W66587  25.485  13.802  23.118
65723W        W66588  24.112  13.094  24.602
65724W        W66589  21.878  12.645  22.808
65725W        W66590  22.989  13.060  24.381
65726W        W66591  24.193  12.324  22.759
65727W        W66592  24.070  12.814  22.863
65728W        W66593  22.413  12.234  24.337
65729W        W66594  22.398  12.110  25.259
65730W        W66595  22.288  11.027  23.418
65731W        W66596  24.056  11.374  23.979
65732W        W66597  23.704  11.559  25.142
65733W        W66598  24.059  11.708  22.320
65734W        W66599  25.242  14.101  25.074
65735W        W66600  24.209  11.182  25.113
65736W        W66601  25.228  13.483  25.235
65737W        W66602  24.658  11.650  24.831
65738W        W66603  24.458  11.588  23.101
65739W        W66604  24.851  12.722  25.505
65740W        W66605  22.591  14.298  23.491
65741W        W66606  23.249  12.015  22.477
65742W        W66607  22.818  11.299  25.141
65743W        W66608  24.870  11.783  22.822
65744W        W66609  25.237  12.265  22.767
65745W        W66610  22.980  14.482  25.238
65746W        W66611  22.906  11.018  22.473
65747W        W66612  25.227  11.552  23.508
65748W        W66613  25.377  13.801  21.953
65749W        W66614  22.284  13.004  23.655
65750W        W66615  24.201  11.591  21.885
65751W        W66616  25.335  13.923  23.605
65752W        W66617  25.374  11.117  24.355
65753W        W66618  23.819  12.329  24.909
65754W        W66619  23.912  13.668  22.612
65755W        W66620  24.312  12.962  25.352
65756W        W66621  23.986  10.939  23.661
65757W        W66622  22.598  11.842  23.724
65758W        W66623  22.152  13.042  24.498
65759W        W66624  24.011  14.235  23.204
65760W        W66625  25.205  11.832  24.076
65761W        W66626  23.842  14.179  24.843
65762W        W66627  25.185  13.238  22.048
65763W        W66628  23.620  12.721  23.109
65764W        W66629  25.472  11.232  24.850
65765W        W66630  23.621  13.067  24.444
65766W        W66631  23.838  11.953  23.889
65767W        W66632  24.690  12.251  22.727
65768W        W66633  24.977  11.984  22.369
65769W        W66634  24.786  14.024  22.758
65770W        W66635  24.620  13.627  23.554
65771W        W66636  24.516  12.706  22.532
65772W        W66637  23.949  12.916  23.518
65773W        W66638  24.830  12.704  23.585
65774W        W66639  22.205  11.719  24.009
65775W        W66640  24.983  12.771  24.836
65776W        W66641  25.334  14.389  23.982
65777W        W66642  23.264  13.833  23.384
65778W        W66643  24.271  14.366  24.708
65779W        W66644  24.265  11.696  24.472
65780W        W66645  23.472  14.404  24.533
65781W        W66646  25.169  11.358  22.999
65782W        W66647  24.960  12.677  24.300
65783W        W66648  21.943  11.998  24.338
65784W        W66649  24.803  11.793  23.356
65785W        W66650  25.214  11.944  25.133
65786W        W66651  24.099  13.643  23.351
65787W        W66652  23.355  14.234  22.964
65788W        W66653  22.470  11.414  22.222
65789W        W66654  23.574  11.068  24.032
65790W        W66655  22.602  14.188  21.880
65791W        W66656  22.976  12.654  22.631
65792W        W66657  23.630  13.283  24.944
65793W        W66658  23.460  11.641  22.934
65794W        W66659  24.816  11.238  23.362
65795W        W66660  24.536  14.520  23.690
65796W        W66661  23.948  14.168  24.030
65797W        W66662  23.344  13.205  23.991
65798W        W66663  25.114  13.928  24.117
65799W        W66664  22.808  11.431  22.886
65800W        W66665  23.330  13.728  23.846
65801W        W66666  22.813  11.659  21.911
65802W        W66667  23.614  12.268  24.305
65803W        W66668  24.462  11.134  24.175
65804W        W66669  21.882  12.977  24.060
65805W        W66670  23.586  12.795  22.218
65806W        W66671  22.854  11.110  21.988
65807W        W66672  23.592  12.191  23.039
65808W        W66673  24.562  11.167  24.738
65809W        W66674  23.150  13.179  24.847
65810W        W66675  23.954  12.961  25.064
65811W        W66676  24.571  12.991  24.957
65812W        W66677  23.855  11.131  25.462
65813W        W66678  23.077  11.747  23.855
65814W        W66679  22.503  11.703  23.253
65815W        W66680  22.289  14.415  22.929
65816W        W66681  23.621  13.745  25.054
65817W        W66682  22.656  13.230  22.413
65818W        W66683  24.336  12.615  23.634
65819W        W66684  24.616  12.414  24.033
65820W        W66685  23.821  13.088  23.967
65821W        W66686  24.291  13.462  22.099
65822W        W66687  23.963  11.483  23.427
65823W        W66688  25.442  11.761  22.695
65824W        W66689  21.936  14.350  24.726
65825W        W66690  22.353  13.576  24.258
65826W        W66691  21.920  14.422  22.490
65827W        W66692  23.819  11.692  24.296
65828W        W66693  23.182  13.715  22.145
65829W        W66694  25.087  14.097  22.331
65830W        W66695  24.062  12.750  22.345
65831W        W66696  22.905  11.941  22.862
65832W        W66697  23.737  11.851  21.914
65833W        W66698  24.321  13.416  25.092
65834W        W66699  24.674  11.322  22.709
65835W        W66700  22.004  11.170  22.157
65836W        W66701  23.290  13.489  24.447
65837W        W66702  23.089  13.405  23.539
65838W        W66703  22.831  13.357  21.937
65839W        W66704  22.072  13.598  22.705
65840W        W66705  22.576  12.668  25.147
65841W        W66706  23.280  11.228  25.333
65842W        W66707  23.989  11.370  24.689
65843W        W66708  23.184  11.138  22.970
65844W        W66709  24.243  11.215  22.475
65845W        W66710  22.188  11.147  24.052
65846W        W66711  22.236  12.110  23.422
65847W        W66712  24.925  11.218  23.828
65848W        W66713  22.347  11.716  22.642
65849W        W66714  24.918  11.404  24.258
65850W        W66715  25.314  12.607  21.943
65851W        W66716  22.606  11.365  23.762
65852W        W66717  23.720  11.937  24.702
65853W        W66718  21.868  11.627  22.180
65854W        W66719  22.654  13.016  24.741
65855W        W66720  24.012  12.414  23.920
65856W        W66721  23.879  14.493  22.216
65857W        W66722  22.025  13.000  21.913
65858W        W66723  22.760  13.411  25.039
65859W        W66724  22.281  12.578  24.670
65860W        W66725  23.272  12.683  24.464
65861W        W66726  25.040  11.042  24.726
65862W        W66727  25.438  12.652  24.717
65863W        W66728  25.426  12.852  22.403
65864W        W66729  24.289  13.184  22.502
65865W        W66730  24.763  14.484  22.197
65866W        W66731  23.940  12.474  25.339
65867W        W66732  22.270  13.441  25.379
65868W        W66733  25.476  11.363  25.331
65869W        W66734  25.194  12.291  23.952
65870W        W66735  23.502  14.421  25.429
65871W        W66736  23.357  11.050  22.156
65872W        W66737  24.896  13.649  22.099
65873W        W66738  22.665  11.742  24.985
65874W        W66739  23.099  13.736  24.847
65875W        W66740  25.225  11.727  24.645
65876W        W66741  24.436  14.386  22.613
65877W        W66742  24.675  13.005  23.980
65878W        W66743  22.925  11.421  24.647
65879W        W66744  23.394  12.490  25.404
65880W        W66745  22.897  13.669  22.598
65881W        W66746  24.652  13.167  22.862
65882W        W66747  22.420  11.793  24.586
65883W        W66748  23.749  13.855  23.050
65884W        W66749  25.499  12.415  23.231
65885W        W66750  23.721  11.048  24.950
65886W        W66751  24.501  13.753  24.029
65887W        W66752  24.804  14.097  23.737
65888W        W66753  24.023  13.899  22.165
65889W        W66754  22.033  13.791  25.007
65890W        W66755  22.776  11.783  24.245
65891W        W66756  22.746  11.131  23.355
65892W        W66757  24.367  11.973  24.047
65893W        W66758  23.165  13.144  22.247
65894W        W66759  25.163  13.086  23.746
65895W        W66760  22.490  13.844  25.169
65896W        W66761  24.877  14.526  22.966
65897W        W66762  22.976  11.546  23.411
65898W        W66763  22.745  13.039  23.501
65899W        W66764  23.058  14.450  24.251
65900W        W66765  25.125  14.546  25.283
65901W        W66766  24.284  12.734  24.216
65902W        W66767  22.133  12.532  22.131
65903W        W66768  25.267  14.190  22.828
65904W        W66769  25.104  11.514  22.447
65905W        W66770  23.243  11.033  24.850
65906W        W66771  24.949  13.835  23.308
65907W        W66772  24.978  12.391  23.213
65908W        W66773  23.095  12.064  23.429
65909W        W66774  23.340  12.326  24.753
65910W        W66775  24.451  13.479  24.616
65911W        W66776  23.101  11.933  24.728
65912W        W66777  23.080  14.399  23.344
65913W        W66778  22.397  14.358  24.978
65914W        W66779  22.509  13.719  22.108
65915W        W66780  25.026  13.477  22.918
65916W        W66781  22.630  12.269  24.804
65917W        W66782  25.403  12.199  22.285
65918W        W66783  23.148  13.256  22.756
65919W        W66784  24.247  12.638  24.837
65920W        W66785  24.138  12.266  24.381
65921W        W66786  22.698  12.638  24.410
65922W        W66787  24.908  14.526  24.239
65923W        W66788  24.699  11.160  25.233
65924W        W66789  22.363  11.310  24.820
65925W        W66790  22.702  12.333  23.873
65926W        W66791  23.071  12.147  21.995
65927W        W66792  21.874  13.906  24.540
65928W        W66793  23.459  12.615  23.983
65929W        W66794  23.282  11.640  22.088
65930W        W66795  22.417  12.456  22.869
65931W        W66796  22.188  14.308  24.306
65932W        W66797  24.983  12.534  22.414
65933W        W66798  25.078  11.450  25.100
65934W        W66799  24.514  13.659  23.063
65935W        W66800  22.112  12.583  25.240
65936W        W66801  25.078  11.047  22.536
65937W        W66802  24.598  13.522  22.547
65938W        W66803  23.500  12.580  22.632
65939W        W66804  24.687  11.384  22.155
65940W        W66805  24.752  11.991  24.341
65941W        W66806  22.461  12.584  23.548
65942W        W66807  22.755  13.523  23.197
65943W        W66808  24.518  12.143  23.162
65944W        W66809  23.541  11.522  23.858
65945W        W66810  25.503  13.433  24.369
65946W        W66811  25.421  11.420  23.930
65947W        W66812  21.960  14.250  23.306
65948W        W66813  22.469  13.437  22.842
65949W        W66814  22.384  11.054  25.395
65950W        W66815  23.503  13.907  25.497
65951W        W66816  25.258  12.875  23.287
65952W        W66817  24.612  13.052  22.167
65953W        W66818  23.907  14.573  24.379
65954W        W66819  24.764  13.295  25.416
65955W        W66820  23.579  11.005  22.696
65956W        W66821  24.292  11.874  23.555
65957W        W66822  21.978  13.461  23.887
65958W        W66823  23.231  11.423  22.528
65959W        W66824  23.035  12.907  25.377
65960W        W66825  24.029  11.888  23.091
65961W        W66826  24.234  13.298  24.213
65962W        W66827  22.388  13.903  24.648
65963W        W66828  22.979  13.886  25.371
65964W        W66829  22.830  11.683  22.385
65965W        W66830  24.347  11.825  22.710
65966W        W66831  24.305  13.933  24.947
65967W        W66832  22.990  12.525  23.546
65968W        W66833  22.645  14.223  24.411
65969W        W66834  25.390  14.340  22.012
65970W        W66835  22.253  13.012  25.008
65971W        W66836  24.248  13.274  23.696
65972W        W66837  22.684  12.923  22.938
65973W        W66838  23.055  13.930  24.333
65974W        W66839  23.433  11.349  23.374
65975W        W66840  22.044  13.333  22.304
65976W        W66841  23.563  12.284  22.174
65977W        W66842  22.209  12.833  23.193
65978W        W66843  23.499  11.475  24.657
65979W        W66844  25.171  11.184  22.084
65980W        W66845  25.264  12.930  25.183
65981W        W66846  23.918  14.187  25.335
65982W        W66847  25.476  13.281  24.857
65983W        W66848  24.884  14.079  25.468
65984W        W66849  22.623  14.535  23.946
65985W        W66850  25.482  13.157  22.820
65986W        W66851  24.012  12.424  23.333
65987W        W66852  23.779  11.036  23.223
65988W        W66853  22.838  14.020  23.060
65989W        W66854  23.337  11.761  24.285
65990W        W66855  23.037  11.130  23.754
65991W        W66856  22.100  13.952  22.302
65992W        W66857  23.916  13.316  23.020
65993W        W66858  22.791  14.111  24.899
65994W        W66859  22.268  12.934  22.595
65995W        W66860  22.153  11.477  23.594
65996W        W66861  23.701  13.442  23.651
65997W        W66862  21.953  11.296  22.671
65998W        W66863  24.617  12.502  24.598
65999W        W66864  24.494  11.888  22.170
66000W        W66865  25.011  13.560  23.818
66001W        W66866  23.672  14.044  23.649
66002W        W66867  23.084  14.148  22.560
66003W        W66868  24.366  11.051  21.990
66004W        W66869  22.166  14.311  23.731
66005W        W66870  24.363  12.069  25.366
66006W        W66871  22.346  11.599  25.365
66007W        W66872  22.077  12.199  22.698
66008W        W66873  22.768  12.188  22.423
66009W        W66874  24.531  12.515  25.240
66010W        W66875  22.874  12.796  23.949
66011W        W66876  24.348  11.082  23.069
66012W        W66877  23.479  14.513  23.572
66013W        W66878  24.693  13.975  24.509
66014W        W66879  24.277  14.124  23.620
66015W        W66880  24.296  13.104  23.214
66016W        W66881  23.758  11.329  22.285
66017W        W66882  25.439  10.957  23.007
66018W        W66883  23.127  12.592  22.170
66019W        W66884  25.293  11.929  23.160
66020W        W66885  23.985  13.099  22.037
66021W        W66886  24.921  13.299  24.785
66022W        W66887  24.575  14.000  22.252
66023W        W66888  23.190  11.675  25.158
66024W        W66889  23.010  12.259  24.399
66025W        W66890  25.102  13.754  24.676
66026W        W66891  24.202  11.704  25.053
66027W        W66892  22.046  12.175  24.830
66028W        W66893  23.806  12.652  24.556
66029W        W66894  22.163  13.410  23.213
66030W        W66895  22.310  12.707  24.103
66031W        W66896  24.627  12.993  24.453
66032W        W66897  24.399  14.373  25.264
66033W        W66898  24.295  12.112  24.817
66034W        W66899  24.572  14.166  23.222
66035W        W66900  23.574  13.886  24.545
66036W        W66901  23.059  14.241  23.814
66037W        W66902  24.864  13.412  24.233
66038W        W66903  23.914  13.484  25.370
66039W        W66904  22.519  13.437  23.709
66040W        W66905  24.865  13.196  23.354
66041W        W66906  24.506  14.262  24.105
66042W        W66907  22.484  13.991  23.975
66043W        W66908  23.505  12.043  25.185
66044W        W66909  23.956  14.209  22.696
66045W        W66910  23.264  13.464  25.334
66046W        W66911  23.390  13.702  22.711
66047W        W66912  22.611  12.442  21.970
66048W        W66913  21.950  14.528  28.869
66049W        W66914  22.326  13.421  28.392
66050W        W66915  25.031  13.151  26.162
66051W        W66916  25.161  14.236  28.189
66052W        W66917  23.079  14.227  25.715
66053W        W66918  23.162  12.379  26.698
66054W        W66919  22.677  12.227  26.862
66055W        W66920  23.668  13.042  26.296
66056W        W66921  23.343  14.134  28.651
66057W        W66922  21.992  11.695  28.614
66058W        W66923  22.754  10.975  28.416
66059W        W66924  24.448  11.363  27.303
66060W        W66925  24.097  12.234  25.873
66061W        W66926  24.667  11.668  28.964
66062W        W66927  22.033  11.460  28.089
66063W        W66928  22.132  14.079  29.110
66064W        W66929  23.654  13.469  25.842
66065W        W66930  22.086  12.252  27.535
66066W        W66931  22.979  12.143  28.772
66067W        W66932  25.438  12.002  27.271
66068W        W66933  25.202  13.045  28.130
66069W        W66934  23.510  12.378  27.157
66070W        W66935  24.056  13.717  27.526
66071W        W66936  22.556  13.151  27.758
66072W        W66937  21.915  12.679  27.329
66073W        W66938  22.951  12.651  28.521
66074W        W66939  25.222  12.434  28.775
66075W        W66940  22.838  13.878  27.220
66076W        W66941  23.959  13.567  28.354
66077W        W66942  23.179  12.207  27.579
66078W        W66943  23.471  12.991  27.222
66079W        W66944  24.468  13.764  29.070
66080W        W66945  23.547  13.084  29.080
66081W        W66946  23.528  12.800  28.558
66082W        W66947  21.937  12.191  29.080
66083W        W66948  24.769  13.726  28.679
66084W        W66949  22.350  11.308  26.677
66085W        W66950  22.877  13.566  27.676
66086W        W66951  25.340  13.349  26.966
66087W        W66952  24.753  11.749  27.533
66088W        W66953  25.038  11.702  25.628
66089W        W66954  25.503  12.503  27.934
66090W        W66955  23.470  14.210  27.687
66091W        W66956  25.244  13.676  26.125
66092W        W66957  22.373  14.462  25.879
66093W        W66958  22.766  14.508  26.555
66094W        W66959  22.563  11.262  27.981
66095W        W66960  25.186  12.280  28.256
66096W        W66961  24.591  12.702  26.715
66097W        W66962  24.557  12.390  25.742
66098W        W66963  23.765  13.534  27.882
66099W        W66964  23.571  11.864  27.081
66100W        W66965  24.171  13.951  28.075
66101W        W66966  25.042  12.742  26.497
66102W        W66967  23.944  11.400  26.513
66103W        W66968  22.601  14.094  26.196
66104W        W66969  21.972  11.593  26.795
66105W        W66970  24.758  12.200  27.269
66106W        W66971  22.216  13.817  27.184
66107W        W66972  23.557  14.167  26.054
66108W        W66973  24.949  12.193  25.518
66109W        W66974  21.972  13.951  27.682
66110W        W66975  22.763  13.523  28.162
66111W        W66976  23.136  12.883  26.781
66112W        W66977  23.158  11.288  27.874
66113W        W66978  25.387  11.050  27.171
66114W        W66979  22.606  12.922  25.639
66115W        W66980  22.261  11.955  25.818
66116W        W66981  22.323  13.911  26.612
66117W        W66982  23.454  13.394  26.860
66118W        W66983  24.786  14.253  28.574
66119W        W66984  23.712  11.895  26.258
66120W        W66985  25.095  14.293  27.030
66121W        W66986  24.772  12.146  28.628
66122W        W66987  25.485  13.802  26.762
66123W        W66988  24.112  13.094  28.246
66124W        W66989  21.878  12.645  26.452
66125W        W66990  22.989  13.060  28.025
66126W        W66991  24.193  12.324  26.403
66127W        W66992  24.070  12.814  26.507
66128W        W66993  22.413  12.234  27.981
66129W        W66994  22.398  12.110  28.903
66130W        W66995  22.288  11.027  27.062
66131W        W66996  24.056  11.374  27.623
66132W        W66997  23.704  11.559  28.786
66133W        W66998  24.059  11.708  25.964
66134W        W66999  25.242  14.101  28.718
66135W        W67000  24.209  11.182  28.757
66136W        W67001  25.228  13.483  28.879
66137W        W67002  24.658  11.650  28.475
66138W        W67003  24.458  11.588  26.745
66139W        W67004  24.851  12.722  29.149
66140W        W67005  22.591  14.298  27.135
66141W        W67006  23.249  12.015  26.121
66142W        W67007  22.818  11.299  28.785
66143W        W67008  24.870  11.783  26.466
66144W        W67009  25.237  12.265  26.411
66145W        W67010  22.980  14.482  28.882
66146W        W67011  22.906  11.018  26.117
66147W        W67012  25.227  11.552  27.152
66148W        W67013  25.377  13.801  25.597
66149W        W67014  22.284  13.004  27.299
66150W        W67015  24.201  11.591  25.529
66151W        W67016  25.335  13.923  27.249
66152W        W67017  25.374  11.117  27.999
66153W        W67018  23.819  12.329  28.553
66154W        W67019  23.912  13.668  26.256
66155W        W67020  24.312  12.962  28.996
66156W        W67021  23.986  10.939  27.305
66157W        W67022  22.598  11.842  27.368
66158W        W67023  22.152  13.042  28.142
66159W        W67024  24.011  14.235  26.848
66160W        W67025  25.205  11.832  27.720
66161W        W67026  23.842  14.179  28.487
66162W        W67027  25.185  13.238  25.692
66163W        W67028  23.620  12.721  26.753
66164W        W67029  25.472  11.232  28.494
66165W        W67030  23.621  13.067  28.088
66166W        W67031  23.838  11.953  27.533
66167W        W67032  24.690  12.251  26.371
66168W        W67033  24.977  11.984  26.013
66169W        W67034  24.786  14.024  26.402
66170W        W67035  24.620  13.627  27.198
66171W        W67036  24.516  12.706  26.176
66172W        W67037  23.949  12.916  27.162
66173W        W67038  24.830  12.704  27.229
66174W        W67039  22.205  11.719  27.653
66175W        W67040  24.983  12.771  28.480
66176W        W67041  25.334  14.389  27.626
66177W        W67042  23.264  13.833  27.028
66178W        W67043  24.271  14.366  28.352
66179W        W67044  24.265  11.696  28.116
66180W        W67045  23.472  14.404  28.177
66181W        W67046  25.169  11.358  26.643
66182W        W67047  24.960  12.677  27.944
66183W        W67048  21.943  11.998  27.982
66184W        W67049  24.803  11.793  27.000
66185W        W67050  25.214  11.944  28.777
66186W        W67051  24.099  13.643  26.995
66187W        W67052  23.355  14.234  26.608
66188W        W67053  22.470  11.414  25.866
66189W        W67054  23.574  11.068  27.676
66190W        W67055  22.602  14.188  25.524
66191W        W67056  22.976  12.654  26.275
66192W        W67057  23.630  13.283  28.588
66193W        W67058  23.460  11.641  26.578
66194W        W67059  24.816  11.238  27.006
66195W        W67060  24.536  14.520  27.334
66196W        W67061  23.948  14.168  27.674
66197W        W67062  23.344  13.205  27.635
66198W        W67063  25.114  13.928  27.761
66199W        W67064  22.808  11.431  26.530
66200W        W67065  23.330  13.728  27.490
66201W        W67066  22.813  11.659  25.555
66202W        W67067  23.614  12.268  27.949
66203W        W67068  24.462  11.134  27.819
66204W        W67069  21.882  12.977  27.704
66205W        W67070  23.586  12.795  25.862
66206W        W67071  22.854  11.110  25.632
66207W        W67072  23.592  12.191  26.683
66208W        W67073  24.562  11.167  28.382
66209W        W67074  23.150  13.179  28.491
66210W        W67075  23.954  12.961  28.708
66211W        W67076  24.571  12.991  28.601
66212W        W67077  23.855  11.131  29.106
66213W        W67078  23.077  11.747  27.499
66214W        W67079  22.503  11.703  26.897
66215W        W67080  22.289  14.415  26.573
66216W        W67081  23.621  13.745  28.698
66217W        W67082  22.656  13.230  26.057
66218W        W67083  24.336  12.615  27.278
66219W        W67084  24.616  12.414  27.677
66220W        W67085  23.821  13.088  27.611
66221W        W67086  24.291  13.462  25.743
66222W        W67087  23.963  11.483  27.071
66223W        W67088  25.442  11.761  26.339
66224W        W67089  21.936  14.350  28.370
66225W        W67090  22.353  13.576  27.902
66226W        W67091  21.920  14.422  26.134
66227W        W67092  23.819  11.692  27.940
66228W        W67093  23.182  13.715  25.789
66229W        W67094  25.087  14.097  25.975
66230W        W67095  24.062  12.750  25.989
66231W        W67096  22.905  11.941  26.506
66232W        W67097  23.737  11.851  25.558
66233W        W67098  24.321  13.416  28.736
66234W        W67099  24.674  11.322  26.353
66235W        W67100  22.004  11.170  25.801
66236W        W67101  23.290  13.489  28.091
66237W        W67102  23.089  13.405  27.183
66238W        W67103  22.831  13.357  25.581
66239W        W67104  22.072  13.598  26.349
66240W        W67105  22.576  12.668  28.791
66241W        W67106  23.280  11.228  28.977
66242W        W67107  23.989  11.370  28.333
66243W        W67108  23.184  11.138  26.614
66244W        W67109  24.243  11.215  26.119
66245W        W67110  22.188  11.147  27.696
66246W        W67111  22.236  12.110  27.066
66247W        W67112  24.925  11.218  27.472
66248W        W67113  22.347  11.716  26.286
66249W        W67114  24.918  11.404  27.902
66250W        W67115  25.314  12.607  25.587
66251W        W67116  22.606  11.365  27.406
66252W        W67117  23.720  11.937  28.346
66253W        W67118  21.868  11.627  25.824
66254W        W67119  22.654  13.016  28.385
66255W        W67120  24.012  12.414  27.564
66256W        W67121  23.879  14.493  25.860
66257W        W67122  22.025  13.000  25.557
66258W        W67123  22.760  13.411  28.683
66259W        W67124  22.281  12.578  28.314
66260W        W67125  23.272  12.683  28.108
66261W        W67126  25.040  11.042  28.370
66262W        W67127  25.438  12.652  28.361
66263W        W67128  25.426  12.852  26.047
66264W        W67129  24.289  13.184  26.146
66265W        W67130  24.763  14.484  25.841
66266W        W67131  23.940  12.474  28.983
66267W        W67132  22.270  13.441  29.023
66268W        W67133  25.476  11.363  28.975
66269W        W67134  25.194  12.291  27.596
66270W        W67135  23.502  14.421  29.073
66271W        W67136  23.357  11.050  25.800
66272W        W67137  24.896  13.649  25.743
66273W        W67138  22.665  11.742  28.629
66274W        W67139  23.099  13.736  28.491
66275W        W67140  25.225  11.727  28.289
66276W        W67141  24.436  14.386  26.257
66277W        W67142  24.675  13.005  27.624
66278W        W67143  22.925  11.421  28.291
66279W        W67144  23.394  12.490  29.048
66280W        W67145  22.897  13.669  26.242
66281W        W67146  24.652  13.167  26.506
66282W        W67147  22.420  11.793  28.230
66283W        W67148  23.749  13.855  26.694
66284W        W67149  25.499  12.415  26.875
66285W        W67150  23.721  11.048  28.594
66286W        W67151  24.501  13.753  27.673
66287W        W67152  24.804  14.097  27.381
66288W        W67153  24.023  13.899  25.809
66289W        W67154  22.033  13.791  28.651
66290W        W67155  22.776  11.783  27.889
66291W        W67156  22.746  11.131  26.999
66292W        W67157  24.367  11.973  27.691
66293W        W67158  23.165  13.144  25.891
66294W        W67159  25.163  13.086  27.390
66295W        W67160  22.490  13.844  28.813
66296W        W67161  24.877  14.526  26.610
66297W        W67162  22.976  11.546  27.055
66298W        W67163  22.745  13.039  27.145
66299W        W67164  23.058  14.450  27.895
66300W        W67165  25.125  14.546  28.927
66301W        W67166  24.284  12.734  27.860
66302W        W67167  22.133  12.532  25.775
66303W        W67168  25.267  14.190  26.472
66304W        W67169  25.104  11.514  26.091
66305W        W67170  23.243  11.033  28.494
66306W        W67171  24.949  13.835  26.952
66307W        W67172  24.978  12.391  26.857
66308W        W67173  23.095  12.064  27.073
66309W        W67174  23.340  12.326  28.397
66310W        W67175  24.451  13.479  28.260
66311W        W67176  23.101  11.933  28.372
66312W        W67177  23.080  14.399  26.988
66313W        W67178  22.397  14.358  28.622
66314W        W67179  22.509  13.719  25.752
66315W        W67180  25.026  13.477  26.562
66316W        W67181  22.630  12.269  28.448
66317W        W67182  25.403  12.199  25.929
66318W        W67183  23.148  13.256  26.400
66319W        W67184  24.247  12.638  28.481
66320W        W67185  24.138  12.266  28.025
66321W        W67186  22.698  12.638  28.054
66322W        W67187  24.908  14.526  27.883
66323W        W67188  24.699  11.160  28.877
66324W        W67189  22.363  11.310  28.464
66325W        W67190  22.702  12.333  27.517
66326W        W67191  23.071  12.147  25.639
66327W        W67192  21.874  13.906  28.184
66328W        W67193  23.459  12.615  27.627
66329W        W67194  23.282  11.640  25.732
66330W        W67195  22.417  12.456  26.513
66331W        W67196  22.188  14.308  27.950
66332W        W67197  24.983  12.534  26.058
66333W        W67198  25.078  11.450  28.744
66334W        W67199  24.514  13.659  26.707
66335W        W67200  22.112  12.583  28.884
66336W        W67201  25.078  11.047  26.180
66337W        W67202  24.598  13.522  26.191
66338W        W67203  23.500  12.580  26.276
66339W        W67204  24.687  11.384  25.799
66340W        W67205  24.752  11.991  27.985
66341W        W67206  22.461  12.584  27.192
66342W        W67207  22.755  13.523  26.841
66343W        W67208  24.518  12.143  26.806
66344W        W67209  23.541  11.522  27.502
66345W        W67210  25.503  13.433  28.013
66346W        W67211  25.421  11.420  27.574
66347W        W67212  21.960  14.250  26.950
66348W        W67213  22.469  13.437  26.486
66349W        W67214  22.384  11.054  29.039
66350W        W67215  23.503  13.907  29.141
66351W        W67216  25.258  12.875  26.931
66352W        W67217  24.612  13.052  25.811
66353W        W67218  23.907  14.573  28.023
66354W        W67219  24.764  13.295  29.060
66355W        W67220  23.579  11.005  26.340
66356W        W67221  24.292  11.874  27.199
66357W        W67222  21.978  13.461  27.531
66358W        W67223  23.231  11.423  26.172
66359W        W67224  23.035  12.907  29.021
66360W        W67225  24.029  11.888  26.735
66361W        W67226  24.234  13.298  27.857
66362W        W67227  22.388  13.903  28.292
66363W        W67228  22.979  13.886  29.015
66364W        W67229  22.830  11.683  26.029
66365W        W67230  24.347  11.825  26.354
66366W        W67231  24.305  13.933  28.591
66367W        W67232  22.990  12.525  27.190
66368W        W67233  22.645  14.223  28.055
66369W        W67234  25.390  14.340  25.656
66370W        W67235  22.253  13.012  28.652
66371W        W67236  24.248  13.274  27.340
66372W        W67237  22.684  12.923  26.582
66373W        W67238  23.055  13.930  27.977
66374W        W67239  23.433  11.349  27.018
66375W        W67240  22.044  13.333  25.948
66376W        W67241  23.563  12.284  25.818
66377W        W67242  22.209  12.833  26.837
66378W        W67243  23.499  11.475  28.301
66379W        W67244  25.171  11.184  25.728
66380W        W67245  25.264  12.930  28.827
66381W        W67246  23.918  14.187  28.979
66382W        W67247  25.476  13.281  28.501
66383W        W67248  24.884  14.079  29.112
66384W        W67249  22.623  14.535  27.590
66385W        W67250  25.482  13.157  26.464
66386W        W67251  24.012  12.424  26.977
66387W        W67252  23.779  11.036  26.867
66388W        W67253  22.838  14.020  26.704
66389W        W67254  23.337  11.761  27.929
66390W        W67255  23.037  11.130  27.398
66391W        W67256  22.100  13.952  25.946
66392W        W67257  23.916  13.316  26.664
66393W        W67258  22.791  14.111  28.543
66394W        W67259  22.268  12.934  26.239
66395W        W67260  22.153  11.477  27.238
66396W        W67261  23.701  13.442  27.295
66397W        W67262  21.953  11.296  26.315
66398W        W67263  24.617  12.502  28.242
66399W        W67264  24.494  11.888  25.814
66400W        W67265  25.011  13.560  27.462
66401W        W67266  23.672  14.044  27.293
66402W        W67267  23.084  14.148  26.204
66403W        W67268  24.366  11.051  25.634
66404W        W67269  22.166  14.311  27.375
66405W        W67270  24.363  12.069  29.010
66406W        W67271  22.346  11.599  29.009
66407W        W67272  22.077  12.199  26.342
66408W        W67273  22.768  12.188  26.067
66409W        W67274  24.531  12.515  28.884
66410W        W67275  22.874  12.796  27.593
66411W        W67276  24.348  11.082  26.713
66412W        W67277  23.479  14.513  27.216
66413W        W67278  24.693  13.975  28.153
66414W        W67279  24.277  14.124  27.264
66415W        W67280  24.296  13.104  26.858
66416W        W67281  23.758  11.329  25.929
66417W        W67282  25.439  10.957  26.651
66418W        W67283  23.127  12.592  25.814
66419W        W67284  25.293  11.929  26.804
66420W        W67285  23.985  13.099  25.681
66421W        W67286  24.921  13.299  28.429
66422W        W67287  24.575  14.000  25.896
66423W        W67288  23.190  11.675  28.802
66424W        W67289  23.010  12.259  28.043
66425W        W67290  25.102  13.754  28.320
66426W        W67291  24.202  11.704  28.697
66427W        W67292  22.046  12.175  28.474
66428W        W67293  23.806  12.652  28.200
66429W        W67294  22.163  13.410  26.857
66430W        W67295  22.310  12.707  27.747
66431W        W67296  24.627  12.993  28.097
66432W        W67297  24.399  14.373  28.908
66433W        W67298  24.295  12.112  28.461
66434W        W67299  24.572  14.166  26.866
66435W        W67300  23.574  13.886  28.189
66436W        W67301  23.059  14.241  27.458
66437W        W67302  24.864  13.412  27.877
66438W        W67303  23.914  13.484  29.014
66439W        W67304  22.519  13.437  27.353
66440W        W67305  24.865  13.196  26.998
66441W        W67306  24.506  14.262  27.749
66442W        W67307  22.484  13.991  27.619
66443W        W67308  23.505  12.043  28.829
66444W        W67309  23.956  14.209  26.340
66445W        W67310  23.264  13.464  28.978
66446W        W67311  23.390  13.702  26.355
66447W        W67312  22.611  12.442  25.614
66448W        W67313  21.950  18.172   3.359
66449W        W67314  22.326  17.065   2.882
66450W        W67315  25.031  16.795   0.652
66451W        W67316  25.161  17.880   2.679
66452W        W67317  23.079  17.871   0.205
66453W        W67318  23.162  16.023   1.188
66454W        W67319  22.677  15.871   1.352
66455W        W67320  23.668  16.686   0.786
66456W        W67321  23.343  17.778   3.141
66457W        W67322  21.992  15.339   3.104
66458W        W67323  22.754  14.619   2.906
66459W        W67324  24.448  15.007   1.793
66460W        W67325  24.097  15.878   0.363
66461W        W67326  24.667  15.312   3.454
66462W        W67327  22.033  15.104   2.579
66463W        W67328  22.132  17.723   3.600
66464W        W67329  23.654  17.113   0.332
66465W        W67330  22.086  15.896   2.025
66466W        W67331  22.979  15.787   3.262
66467W        W67332  25.438  15.646   1.761
66468W        W67333  25.202  16.689   2.620
66469W        W67334  23.510  16.022   1.647
66470W        W67335  24.056  17.361   2.016
66471W        W67336  22.556  16.795   2.248
66472W        W67337  21.915  16.323   1.819
66473W        W67338  22.951  16.295   3.011
66474W        W67339  25.222  16.078   3.265
66475W        W67340  22.838  17.522   1.710
66476W        W67341  23.959  17.211   2.844
66477W        W67342  23.179  15.851   2.069
66478W        W67343  23.471  16.635   1.712
66479W        W67344  24.468  17.408   3.560
66480W        W67345  23.547  16.728   3.570
66481W        W67346  23.528  16.444   3.048
66482W        W67347  21.937  15.835   3.570
66483W        W67348  24.769  17.370   3.169
66484W        W67349  22.350  14.952   1.167
66485W        W67350  22.877  17.210   2.166
66486W        W67351  25.340  16.993   1.456
66487W        W67352  24.753  15.393   2.023
66488W        W67353  25.038  15.346   0.118
66489W        W67354  25.503  16.147   2.424
66490W        W67355  23.470  17.854   2.177
66491W        W67356  25.244  17.320   0.615
66492W        W67357  22.373  18.106   0.369
66493W        W67358  22.766  18.152   1.045
66494W        W67359  22.563  14.906   2.471
66495W        W67360  25.186  15.924   2.746
66496W        W67361  24.591  16.346   1.205
66497W        W67362  24.557  16.034   0.232
66498W        W67363  23.765  17.178   2.372
66499W        W67364  23.571  15.508   1.571
66500W        W67365  24.171  17.595   2.565
66501W        W67366  25.042  16.386   0.987
66502W        W67367  23.944  15.044   1.003
66503W        W67368  22.601  17.738   0.686
66504W        W67369  21.972  15.237   1.285
66505W        W67370  24.758  15.844   1.759
66506W        W67371  22.216  17.461   1.674
66507W        W67372  23.557  17.811   0.544
66508W        W67373  24.949  15.837   0.008
66509W        W67374  21.972  17.595   2.172
66510W        W67375  22.763  17.167   2.652
66511W        W67376  23.136  16.527   1.271
66512W        W67377  23.158  14.932   2.364
66513W        W67378  25.387  14.694   1.661
66514W        W67379  22.606  16.566   0.129
66515W        W67380  22.261  15.599   0.308
66516W        W67381  22.323  17.555   1.102
66517W        W67382  23.454  17.038   1.350
66518W        W67383  24.786  17.897   3.064
66519W        W67384  23.712  15.539   0.748
66520W        W67385  25.095  17.937   1.520
66521W        W67386  24.772  15.790   3.118
66522W        W67387  25.485  17.446   1.252
66523W        W67388  24.112  16.738   2.736
66524W        W67389  21.878  16.289   0.942
66525W        W67390  22.989  16.704   2.515
66526W        W67391  24.193  15.968   0.893
66527W        W67392  24.070  16.458   0.997
66528W        W67393  22.413  15.878   2.471
66529W        W67394  22.398  15.754   3.393
66530W        W67395  22.288  14.671   1.552
66531W        W67396  24.056  15.018   2.113
66532W        W67397  23.704  15.203   3.276
66533W        W67398  24.059  15.352   0.454
66534W        W67399  25.242  17.745   3.208
66535W        W67400  24.209  14.826   3.247
66536W        W67401  25.228  17.127   3.369
66537W        W67402  24.658  15.294   2.965
66538W        W67403  24.458  15.232   1.235
66539W        W67404  24.851  16.366   3.639
66540W        W67405  22.591  17.942   1.625
66541W        W67406  23.249  15.659   0.611
66542W        W67407  22.818  14.943   3.275
66543W        W67408  24.870  15.427   0.956
66544W        W67409  25.237  15.909   0.901
66545W        W67410  22.980  18.126   3.372
66546W        W67411  22.906  14.662   0.607
66547W        W67412  25.227  15.196   1.642
66548W        W67413  25.377  17.445   0.087
66549W        W67414  22.284  16.648   1.789
66550W        W67415  24.201  15.235   0.019
66551W        W67416  25.335  17.567   1.739
66552W        W67417  25.374  14.761   2.489
66553W        W67418  23.819  15.973   3.043
66554W        W67419  23.912  17.312   0.746
66555W        W67420  24.312  16.606   3.486
66556W        W67421  23.986  14.583   1.795
66557W        W67422  22.598  15.486   1.858
66558W        W67423  22.152  16.686   2.632
66559W        W67424  24.011  17.879   1.338
66560W        W67425  25.205  15.476   2.210
66561W        W67426  23.842  17.823   2.977
66562W        W67427  25.185  16.882   0.182
66563W        W67428  23.620  16.365   1.243
66564W        W67429  25.472  14.876   2.984
66565W        W67430  23.621  16.711   2.578
66566W        W67431  23.838  15.597   2.023
66567W        W67432  24.690  15.895   0.861
66568W        W67433  24.977  15.628   0.503
66569W        W67434  24.786  17.668   0.892
66570W        W67435  24.620  17.271   1.688
66571W        W67436  24.516  16.350   0.666
66572W        W67437  23.949  16.560   1.652
66573W        W67438  24.830  16.348   1.719
66574W        W67439  22.205  15.363   2.143
66575W        W67440  24.983  16.415   2.970
66576W        W67441  25.334  18.033   2.116
66577W        W67442  23.264  17.477   1.518
66578W        W67443  24.271  18.010   2.842
66579W        W67444  24.265  15.340   2.606
66580W        W67445  23.472  18.048   2.667
66581W        W67446  25.169  15.002   1.133
66582W        W67447  24.960  16.321   2.434
66583W        W67448  21.943  15.642   2.472
66584W        W67449  24.803  15.437   1.490
66585W        W67450  25.214  15.588   3.267
66586W        W67451  24.099  17.287   1.485
66587W        W67452  23.355  17.878   1.098
66588W        W67453  22.470  15.058   0.356
66589W        W67454  23.574  14.712   2.166
66590W        W67455  22.602  17.832   0.014
66591W        W67456  22.976  16.298   0.765
66592W        W67457  23.630  16.927   3.078
66593W        W67458  23.460  15.285   1.068
66594W        W67459  24.816  14.882   1.496
66595W        W67460  24.536  18.164   1.824
66596W        W67461  23.948  17.812   2.164
66597W        W67462  23.344  16.849   2.125
66598W        W67463  25.114  17.572   2.251
66599W        W67464  22.808  15.075   1.020
66600W        W67465  23.330  17.372   1.980
66601W        W67466  22.813  15.303   0.045
66602W        W67467  23.614  15.912   2.439
66603W        W67468  24.462  14.778   2.309
66604W        W67469  21.882  16.621   2.194
66605W        W67470  23.586  16.439   0.352
66606W        W67471  22.854  14.754   0.122
66607W        W67472  23.592  15.835   1.173
66608W        W67473  24.562  14.811   2.872
66609W        W67474  23.150  16.823   2.981
66610W        W67475  23.954  16.605   3.198
66611W        W67476  24.571  16.635   3.091
66612W        W67477  23.855  14.775   3.596
66613W        W67478  23.077  15.391   1.989
66614W        W67479  22.503  15.347   1.387
66615W        W67480  22.289  18.059   1.063
66616W        W67481  23.621  17.389   3.188
66617W        W67482  22.656  16.874   0.547
66618W        W67483  24.336  16.259   1.768
66619W        W67484  24.616  16.058   2.167
66620W        W67485  23.821  16.732   2.101
66621W        W67486  24.291  17.106   0.233
66622W        W67487  23.963  15.127   1.561
66623W        W67488  25.442  15.405   0.829
66624W        W67489  21.936  17.994   2.860
66625W        W67490  22.353  17.220   2.392
66626W        W67491  21.920  18.066   0.624
66627W        W67492  23.819  15.336   2.430
66628W        W67493  23.182  17.359   0.279
66629W        W67494  25.087  17.741   0.465
66630W        W67495  24.062  16.394   0.479
66631W        W67496  22.905  15.585   0.996
66632W        W67497  23.737  15.495   0.048
66633W        W67498  24.321  17.060   3.226
66634W        W67499  24.674  14.966   0.843
66635W        W67500  22.004  14.814   0.291
66636W        W67501  23.290  17.133   2.581
66637W        W67502  23.089  17.049   1.673
66638W        W67503  22.831  17.001   0.071
66639W        W67504  22.072  17.242   0.839
66640W        W67505  22.576  16.312   3.281
66641W        W67506  23.280  14.872   3.467
66642W        W67507  23.989  15.014   2.823
66643W        W67508  23.184  14.782   1.104
66644W        W67509  24.243  14.859   0.609
66645W        W67510  22.188  14.791   2.186
66646W        W67511  22.236  15.754   1.556
66647W        W67512  24.925  14.862   1.962
66648W        W67513  22.347  15.360   0.776
66649W        W67514  24.918  15.048   2.392
66650W        W67515  25.314  16.251   0.077
66651W        W67516  22.606  15.009   1.896
66652W        W67517  23.720  15.581   2.836
66653W        W67518  21.868  15.271   0.314
66654W        W67519  22.654  16.660   2.875
66655W        W67520  24.012  16.058   2.054
66656W        W67521  23.879  18.137   0.350
66657W        W67522  22.025  16.644   0.047
66658W        W67523  22.760  17.055   3.173
66659W        W67524  22.281  16.222   2.804
66660W        W67525  23.272  16.327   2.598
66661W        W67526  25.040  14.686   2.860
66662W        W67527  25.438  16.296   2.851
66663W        W67528  25.426  16.496   0.537
66664W        W67529  24.289  16.828   0.636
66665W        W67530  24.763  18.128   0.331
66666W        W67531  23.940  16.118   3.473
66667W        W67532  22.270  17.085   3.513
66668W        W67533  25.476  15.007   3.465
66669W        W67534  25.194  15.935   2.086
66670W        W67535  23.502  18.065   3.563
66671W        W67536  23.357  14.694   0.290
66672W        W67537  24.896  17.293   0.233
66673W        W67538  22.665  15.386   3.119
66674W        W67539  23.099  17.380   2.981
66675W        W67540  25.225  15.371   2.779
66676W        W67541  24.436  18.030   0.747
66677W        W67542  24.675  16.649   2.114
66678W        W67543  22.925  15.065   2.781
66679W        W67544  23.394  16.134   3.538
66680W        W67545  22.897  17.313   0.732
66681W        W67546  24.652  16.811   0.996
66682W        W67547  22.420  15.437   2.720
66683W        W67548  23.749  17.499   1.184
66684W        W67549  25.499  16.059   1.365
66685W        W67550  23.721  14.692   3.084
66686W        W67551  24.501  17.397   2.163
66687W        W67552  24.804  17.741   1.871
66688W        W67553  24.023  17.543   0.299
66689W        W67554  22.033  17.435   3.141
66690W        W67555  22.776  15.427   2.379
66691W        W67556  22.746  14.775   1.489
66692W        W67557  24.367  15.617   2.181
66693W        W67558  23.165  16.788   0.381
66694W        W67559  25.163  16.730   1.880
66695W        W67560  22.490  17.488   3.303
66696W        W67561  24.877  18.170   1.100
66697W        W67562  22.976  15.190   1.545
66698W        W67563  22.745  16.683   1.635
66699W        W67564  23.058  18.094   2.385
66700W        W67565  25.125  18.190   3.417
66701W        W67566  24.284  16.378   2.350
66702W        W67567  22.133  16.176   0.265
66703W        W67568  25.267  17.834   0.962
66704W        W67569  25.104  15.158   0.581
66705W        W67570  23.243  14.677   2.984
66706W        W67571  24.949  17.479   1.442
66707W        W67572  24.978  16.035   1.347
66708W        W67573  23.095  15.708   1.563
66709W        W67574  23.340  15.970   2.887
66710W        W67575  24.451  17.123   2.750
66711W        W67576  23.101  15.577   2.862
66712W        W67577  23.080  18.043   1.478
66713W        W67578  22.397  18.002   3.112
66714W        W67579  22.509  17.363   0.242
66715W        W67580  25.026  17.121   1.052
66716W        W67581  22.630  15.913   2.938
66717W        W67582  25.403  15.843   0.419
66718W        W67583  23.148  16.900   0.890
66719W        W67584  24.247  16.282   2.971
66720W        W67585  24.138  15.910   2.515
66721W        W67586  22.698  16.282   2.544
66722W        W67587  24.908  18.170   2.373
66723W        W67588  24.699  14.804   3.367
66724W        W67589  22.363  14.954   2.954
66725W        W67590  22.702  15.977   2.007
66726W        W67591  23.071  15.791   0.129
66727W        W67592  21.874  17.550   2.674
66728W        W67593  23.459  16.259   2.117
66729W        W67594  23.282  15.284   0.222
66730W        W67595  22.417  16.100   1.003
66731W        W67596  22.188  17.952   2.440
66732W        W67597  24.983  16.178   0.548
66733W        W67598  25.078  15.094   3.234
66734W        W67599  24.514  17.303   1.197
66735W        W67600  22.112  16.227   3.374
66736W        W67601  25.078  14.691   0.670
66737W        W67602  24.598  17.166   0.681
66738W        W67603  23.500  16.224   0.766
66739W        W67604  24.687  15.028   0.289
66740W        W67605  24.752  15.635   2.475
66741W        W67606  22.461  16.228   1.682
66742W        W67607  22.755  17.167   1.331
66743W        W67608  24.518  15.787   1.296
66744W        W67609  23.541  15.166   1.992
66745W        W67610  25.503  17.077   2.503
66746W        W67611  25.421  15.064   2.064
66747W        W67612  21.960  17.894   1.440
66748W        W67613  22.469  17.081   0.976
66749W        W67614  22.384  14.698   3.529
66750W        W67615  23.503  17.551   3.631
66751W        W67616  25.258  16.519   1.421
66752W        W67617  24.612  16.696   0.301
66753W        W67618  23.907  18.217   2.513
66754W        W67619  24.764  16.939   3.550
66755W        W67620  23.579  14.649   0.830
66756W        W67621  24.292  15.518   1.689
66757W        W67622  21.978  17.105   2.021
66758W        W67623  23.231  15.067   0.662
66759W        W67624  23.035  16.551   3.511
66760W        W67625  24.029  15.532   1.225
66761W        W67626  24.234  16.942   2.347
66762W        W67627  22.388  17.547   2.782
66763W        W67628  22.979  17.530   3.505
66764W        W67629  22.830  15.327   0.519
66765W        W67630  24.347  15.469   0.844
66766W        W67631  24.305  17.577   3.081
66767W        W67632  22.990  16.169   1.680
66768W        W67633  22.645  17.867   2.545
66769W        W67634  25.390  17.984   0.146
66770W        W67635  22.253  16.656   3.142
66771W        W67636  24.248  16.918   1.830
66772W        W67637  22.684  16.567   1.072
66773W        W67638  23.055  17.574   2.467
66774W        W67639  23.433  14.993   1.508
66775W        W67640  22.044  16.977   0.438
66776W        W67641  23.563  15.928   0.308
66777W        W67642  22.209  16.477   1.327
66778W        W67643  23.499  15.119   2.791
66779W        W67644  25.171  14.828   0.218
66780W        W67645  25.264  16.574   3.317
66781W        W67646  23.918  17.831   3.469
66782W        W67647  25.476  16.925   2.991
66783W        W67648  24.884  17.723   3.602
66784W        W67649  22.623  18.179   2.080
66785W        W67650  25.482  16.801   0.954
66786W        W67651  24.012  16.068   1.467
66787W        W67652  23.779  14.680   1.357
66788W        W67653  22.838  17.664   1.194
66789W        W67654  23.337  15.405   2.419
66790W        W67655  23.037  14.774   1.888
66791W        W67656  22.100  17.596   0.436
66792W        W67657  23.916  16.960   1.154
66793W        W67658  22.791  17.755   3.033
66794W        W67659  22.268  16.578   0.729
66795W        W67660  22.153  15.121   1.728
66796W        W67661  23.701  17.086   1.785
66797W        W67662  21.953  14.940   0.805
66798W        W67663  24.617  16.146   2.732
66799W        W67664  24.494  15.532   0.304
66800W        W67665  25.011  17.204   1.952
66801W        W67666  23.672  17.688   1.783
66802W        W67667  23.084  17.792   0.694
66803W        W67668  24.366  14.695   0.124
66804W        W67669  22.166  17.955   1.865
66805W        W67670  24.363  15.713   3.500
66806W        W67671  22.346  15.243   3.499
66807W        W67672  22.077  15.843   0.832
66808W        W67673  22.768  15.832   0.557
66809W        W67674  24.531  16.159   3.374
66810W        W67675  22.874  16.440   2.083
66811W        W67676  24.348  14.726   1.203
66812W        W67677  23.479  18.157   1.706
66813W        W67678  24.693  17.619   2.643
66814W        W67679  24.277  17.768   1.754
66815W        W67680  24.296  16.748   1.348
66816W        W67681  23.758  14.973   0.419
66817W        W67682  25.439  14.601   1.141
66818W        W67683  23.127  16.236   0.304
66819W        W67684  25.293  15.573   1.294
66820W        W67685  23.985  16.743   0.171
66821W        W67686  24.921  16.943   2.919
66822W        W67687  24.575  17.644   0.386
66823W        W67688  23.190  15.319   3.292
66824W        W67689  23.010  15.903   2.533
66825W        W67690  25.102  17.398   2.810
66826W        W67691  24.202  15.348   3.187
66827W        W67692  22.046  15.819   2.964
66828W        W67693  23.806  16.296   2.690
66829W        W67694  22.163  17.054   1.347
66830W        W67695  22.310  16.351   2.237
66831W        W67696  24.627  16.637   2.587
66832W        W67697  24.399  18.017   3.398
66833W        W67698  24.295  15.756   2.951
66834W        W67699  24.572  17.810   1.356
66835W        W67700  23.574  17.530   2.679
66836W        W67701  23.059  17.885   1.948
66837W        W67702  24.864  17.056   2.367
66838W        W67703  23.914  17.128   3.504
66839W        W67704  22.519  17.081   1.843
66840W        W67705  24.865  16.840   1.488
66841W        W67706  24.506  17.906   2.239
66842W        W67707  22.484  17.635   2.109
66843W        W67708  23.505  15.687   3.319
66844W        W67709  23.956  17.853   0.830
66845W        W67710  23.264  17.108   3.468
66846W        W67711  23.390  17.346   0.845
66847W        W67712  22.611  16.086   0.104
66848W        W67713  21.950  18.172   7.003
66849W        W67714  22.326  17.065   6.526
66850W        W67715  25.031  16.795   4.296
66851W        W67716  25.161  17.880   6.323
66852W        W67717  23.079  17.871   3.849
66853W        W67718  23.162  16.023   4.832
66854W        W67719  22.677  15.871   4.996
66855W        W67720  23.668  16.686   4.430
66856W        W67721  23.343  17.778   6.785
66857W        W67722  21.992  15.339   6.748
66858W        W67723  22.754  14.619   6.550
66859W        W67724  24.448  15.007   5.437
66860W        W67725  24.097  15.878   4.007
66861W        W67726  24.667  15.312   7.098
66862W        W67727  22.033  15.104   6.223
66863W        W67728  22.132  17.723   7.244
66864W        W67729  23.654  17.113   3.976
66865W        W67730  22.086  15.896   5.669
66866W        W67731  22.979  15.787   6.906
66867W        W67732  25.438  15.646   5.405
66868W        W67733  25.202  16.689   6.264
66869W        W67734  23.510  16.022   5.291
66870W        W67735  24.056  17.361   5.660
66871W        W67736  22.556  16.795   5.892
66872W        W67737  21.915  16.323   5.463
66873W        W67738  22.951  16.295   6.655
66874W        W67739  25.222  16.078   6.909
66875W        W67740  22.838  17.522   5.354
66876W        W67741  23.959  17.211   6.488
66877W        W67742  23.179  15.851   5.713
66878W        W67743  23.471  16.635   5.356
66879W        W67744  24.468  17.408   7.204
66880W        W67745  23.547  16.728   7.214
66881W        W67746  23.528  16.444   6.692
66882W        W67747  21.937  15.835   7.214
66883W        W67748  24.769  17.370   6.813
66884W        W67749  22.350  14.952   4.811
66885W        W67750  22.877  17.210   5.810
66886W        W67751  25.340  16.993   5.100
66887W        W67752  24.753  15.393   5.667
66888W        W67753  25.038  15.346   3.762
66889W        W67754  25.503  16.147   6.068
66890W        W67755  23.470  17.854   5.821
66891W        W67756  25.244  17.320   4.259
66892W        W67757  22.373  18.106   4.013
66893W        W67758  22.766  18.152   4.689
66894W        W67759  22.563  14.906   6.115
66895W        W67760  25.186  15.924   6.390
66896W        W67761  24.591  16.346   4.849
66897W        W67762  24.557  16.034   3.876
66898W        W67763  23.765  17.178   6.016
66899W        W67764  23.571  15.508   5.215
66900W        W67765  24.171  17.595   6.209
66901W        W67766  25.042  16.386   4.631
66902W        W67767  23.944  15.044   4.647
66903W        W67768  22.601  17.738   4.330
66904W        W67769  21.972  15.237   4.929
66905W        W67770  24.758  15.844   5.403
66906W        W67771  22.216  17.461   5.318
66907W        W67772  23.557  17.811   4.188
66908W        W67773  24.949  15.837   3.652
66909W        W67774  21.972  17.595   5.816
66910W        W67775  22.763  17.167   6.296
66911W        W67776  23.136  16.527   4.915
66912W        W67777  23.158  14.932   6.008
66913W        W67778  25.387  14.694   5.305
66914W        W67779  22.606  16.566   3.773
66915W        W67780  22.261  15.599   3.952
66916W        W67781  22.323  17.555   4.746
66917W        W67782  23.454  17.038   4.994
66918W        W67783  24.786  17.897   6.708
66919W        W67784  23.712  15.539   4.392
66920W        W67785  25.095  17.937   5.164
66921W        W67786  24.772  15.790   6.762
66922W        W67787  25.485  17.446   4.896
66923W        W67788  24.112  16.738   6.380
66924W        W67789  21.878  16.289   4.586
66925W        W67790  22.989  16.704   6.159
66926W        W67791  24.193  15.968   4.537
66927W        W67792  24.070  16.458   4.641
66928W        W67793  22.413  15.878   6.115
66929W        W67794  22.398  15.754   7.037
66930W        W67795  22.288  14.671   5.196
66931W        W67796  24.056  15.018   5.757
66932W        W67797  23.704  15.203   6.920
66933W        W67798  24.059  15.352   4.098
66934W        W67799  25.242  17.745   6.852
66935W        W67800  24.209  14.826   6.891
66936W        W67801  25.228  17.127   7.013
66937W        W67802  24.658  15.294   6.609
66938W        W67803  24.458  15.232   4.879
66939W        W67804  24.851  16.366   7.283
66940W        W67805  22.591  17.942   5.269
66941W        W67806  23.249  15.659   4.255
66942W        W67807  22.818  14.943   6.919
66943W        W67808  24.870  15.427   4.600
66944W        W67809  25.237  15.909   4.545
66945W        W67810  22.980  18.126   7.016
66946W        W67811  22.906  14.662   4.251
66947W        W67812  25.227  15.196   5.286
66948W        W67813  25.377  17.445   3.731
66949W        W67814  22.284  16.648   5.433
66950W        W67815  24.201  15.235   3.663
66951W        W67816  25.335  17.567   5.383
66952W        W67817  25.374  14.761   6.133
66953W        W67818  23.819  15.973   6.687
66954W        W67819  23.912  17.312   4.390
66955W        W67820  24.312  16.606   7.130
66956W        W67821  23.986  14.583   5.439
66957W        W67822  22.598  15.486   5.502
66958W        W67823  22.152  16.686   6.276
66959W        W67824  24.011  17.879   4.982
66960W        W67825  25.205  15.476   5.854
66961W        W67826  23.842  17.823   6.621
66962W        W67827  25.185  16.882   3.826
66963W        W67828  23.620  16.365   4.887
66964W        W67829  25.472  14.876   6.628
66965W        W67830  23.621  16.711   6.222
66966W        W67831  23.838  15.597   5.667
66967W        W67832  24.690  15.895   4.505
66968W        W67833  24.977  15.628   4.147
66969W        W67834  24.786  17.668   4.536
66970W        W67835  24.620  17.271   5.332
66971W        W67836  24.516  16.350   4.310
66972W        W67837  23.949  16.560   5.296
66973W        W67838  24.830  16.348   5.363
66974W        W67839  22.205  15.363   5.787
66975W        W67840  24.983  16.415   6.614
66976W        W67841  25.334  18.033   5.760
66977W        W67842  23.264  17.477   5.162
66978W        W67843  24.271  18.010   6.486
66979W        W67844  24.265  15.340   6.250
66980W        W67845  23.472  18.048   6.311
66981W        W67846  25.169  15.002   4.777
66982W        W67847  24.960  16.321   6.078
66983W        W67848  21.943  15.642   6.116
66984W        W67849  24.803  15.437   5.134
66985W        W67850  25.214  15.588   6.911
66986W        W67851  24.099  17.287   5.129
66987W        W67852  23.355  17.878   4.742
66988W        W67853  22.470  15.058   4.000
66989W        W67854  23.574  14.712   5.810
66990W        W67855  22.602  17.832   3.658
66991W        W67856  22.976  16.298   4.409
66992W        W67857  23.630  16.927   6.722
66993W        W67858  23.460  15.285   4.712
66994W        W67859  24.816  14.882   5.140
66995W        W67860  24.536  18.164   5.468
66996W        W67861  23.948  17.812   5.808
66997W        W67862  23.344  16.849   5.769
66998W        W67863  25.114  17.572   5.895
66999W        W67864  22.808  15.075   4.664
67000W        W67865  23.330  17.372   5.624
67001W        W67866  22.813  15.303   3.689
67002W        W67867  23.614  15.912   6.083
67003W        W67868  24.462  14.778   5.953
67004W        W67869  21.882  16.621   5.838
67005W        W67870  23.586  16.439   3.996
67006W        W67871  22.854  14.754   3.766
67007W        W67872  23.592  15.835   4.817
67008W        W67873  24.562  14.811   6.516
67009W        W67874  23.150  16.823   6.625
67010W        W67875  23.954  16.605   6.842
67011W        W67876  24.571  16.635   6.735
67012W        W67877  23.855  14.775   7.240
67013W        W67878  23.077  15.391   5.633
67014W        W67879  22.503  15.347   5.031
67015W        W67880  22.289  18.059   4.707
67016W        W67881  23.621  17.389   6.832
67017W        W67882  22.656  16.874   4.191
67018W        W67883  24.336  16.259   5.412
67019W        W67884  24.616  16.058   5.811
67020W        W67885  23.821  16.732   5.745
67021W        W67886  24.291  17.106   3.877
67022W        W67887  23.963  15.127   5.205
67023W        W67888  25.442  15.405   4.473
67024W        W67889  21.936  17.994   6.504
67025W        W67890  22.353  17.220   6.036
67026W        W67891  21.920  18.066   4.268
67027W        W67892  23.819  15.336   6.074
67028W        W67893  23.182  17.359   3.923
67029W        W67894  25.087  17.741   4.109
67030W        W67895  24.062  16.394   4.123
67031W        W67896  22.905  15.585   4.640
67032W        W67897  23.737  15.495   3.692
67033W        W67898  24.321  17.060   6.870
67034W        W67899  24.674  14.966   4.487
67035W        W67900  22.004  14.814   3.935
67036W        W67901  23.290  17.133   6.225
67037W        W67902  23.089  17.049   5.317
67038W        W67903  22.831  17.001   3.715
67039W        W67904  22.072  17.242   4.483
67040W        W67905  22.576  16.312   6.925
67041W        W67906  23.280  14.872   7.111
67042W        W67907  23.989  15.014   6.467
67043W        W67908  23.184  14.782   4.748
67044W        W67909  24.243  14.859   4.253
67045W        W67910  22.188  14.791   5.830
67046W        W67911  22.236  15.754   5.200
67047W        W67912  24.925  14.862   5.606
67048W        W67913  22.347  15.360   4.420
67049W        W67914  24.918  15.048   6.036
67050W        W67915  25.314  16.251   3.721
67051W        W67916  22.606  15.009   5.540
67052W        W67917  23.720  15.581   6.480
67053W        W67918  21.868  15.271   3.958
67054W        W67919  22.654  16.660   6.519
67055W        W67920  24.012  16.058   5.698
67056W        W67921  23.879  18.137   3.994
67057W        W67922  22.025  16.644   3.691
67058W        W67923  22.760  17.055   6.817
67059W        W67924  22.281  16.222   6.448
67060W        W67925  23.272  16.327   6.242
67061W        W67926  25.040  14.686   6.504
67062W        W67927  25.438  16.296   6.495
67063W        W67928  25.426  16.496   4.181
67064W        W67929  24.289  16.828   4.280
67065W        W67930  24.763  18.128   3.975
67066W        W67931  23.940  16.118   7.117
67067W        W67932  22.270  17.085   7.157
67068W        W67933  25.476  15.007   7.109
67069W        W67934  25.194  15.935   5.730
67070W        W67935  23.502  18.065   7.207
67071W        W67936  23.357  14.694   3.934
67072W        W67937  24.896  17.293   3.877
67073W        W67938  22.665  15.386   6.763
67074W        W67939  23.099  17.380   6.625
67075W        W67940  25.225  15.371   6.423
67076W        W67941  24.436  18.030   4.391
67077W        W67942  24.675  16.649   5.758
67078W        W67943  22.925  15.065   6.425
67079W        W67944  23.394  16.134   7.182
67080W        W67945  22.897  17.313   4.376
67081W        W67946  24.652  16.811   4.640
67082W        W67947  22.420  15.437   6.364
67083W        W67948  23.749  17.499   4.828
67084W        W67949  25.499  16.059   5.009
67085W        W67950  23.721  14.692   6.728
67086W        W67951  24.501  17.397   5.807
67087W        W67952  24.804  17.741   5.515
67088W        W67953  24.023  17.543   3.943
67089W        W67954  22.033  17.435   6.785
67090W        W67955  22.776  15.427   6.023
67091W        W67956  22.746  14.775   5.133
67092W        W67957  24.367  15.617   5.825
67093W        W67958  23.165  16.788   4.025
67094W        W67959  25.163  16.730   5.524
67095W        W67960  22.490  17.488   6.947
67096W        W67961  24.877  18.170   4.744
67097W        W67962  22.976  15.190   5.189
67098W        W67963  22.745  16.683   5.279
67099W        W67964  23.058  18.094   6.029
67100W        W67965  25.125  18.190   7.061
67101W        W67966  24.284  16.378   5.994
67102W        W67967  22.133  16.176   3.909
67103W        W67968  25.267  17.834   4.606
67104W        W67969  25.104  15.158   4.225
67105W        W67970  23.243  14.677   6.628
67106W        W67971  24.949  17.479   5.086
67107W        W67972  24.978  16.035   4.991
67108W        W67973  23.095  15.708   5.207
67109W        W67974  23.340  15.970   6.531
67110W        W67975  24.451  17.123   6.394
67111W        W67976  23.101  15.577   6.506
67112W        W67977  23.080  18.043   5.122
67113W        W67978  22.397  18.002   6.756
67114W        W67979  22.509  17.363   3.886
67115W        W67980  25.026  17.121   4.696
67116W        W67981  22.630  15.913   6.582
67117W        W67982  25.403  15.843   4.063
67118W        W67983  23.148  16.900   4.534
67119W        W67984  24.247  16.282   6.615
67120W        W67985  24.138  15.910   6.159
67121W        W67986  22.698  16.282   6.188
67122W        W67987  24.908  18.170   6.017
67123W        W67988  24.699  14.804   7.011
67124W        W67989  22.363  14.954   6.598
67125W        W67990  22.702  15.977   5.651
67126W        W67991  23.071  15.791   3.773
67127W        W67992  21.874  17.550   6.318
67128W        W67993  23.459  16.259   5.761
67129W        W67994  23.282  15.284   3.866
67130W        W67995  22.417  16.100   4.647
67131W        W67996  22.188  17.952   6.084
67132W        W67997  24.983  16.178   4.192
67133W        W67998  25.078  15.094   6.878
67134W        W67999  24.514  17.303   4.841
67135W        W68000  22.112  16.227   7.018
67136W        W68001  25.078  14.691   4.314
67137W        W68002  24.598  17.166   4.325
67138W        W68003  23.500  16.224   4.410
67139W        W68004  24.687  15.028   3.933
67140W        W68005  24.752  15.635   6.119
67141W        W68006  22.461  16.228   5.326
67142W        W68007  22.755  17.167   4.975
67143W        W68008  24.518  15.787   4.940
67144W        W68009  23.541  15.166   5.636
67145W        W68010  25.503  17.077   6.147
67146W        W68011  25.421  15.064   5.708
67147W        W68012  21.960  17.894   5.084
67148W        W68013  22.469  17.081   4.620
67149W        W68014  22.384  14.698   7.173
67150W        W68015  23.503  17.551   7.275
67151W        W68016  25.258  16.519   5.065
67152W        W68017  24.612  16.696   3.945
67153W        W68018  23.907  18.217   6.157
67154W        W68019  24.764  16.939   7.194
67155W        W68020  23.579  14.649   4.474
67156W        W68021  24.292  15.518   5.333
67157W        W68022  21.978  17.105   5.665
67158W        W68023  23.231  15.067   4.306
67159W        W68024  23.035  16.551   7.155
67160W        W68025  24.029  15.532   4.869
67161W        W68026  24.234  16.942   5.991
67162W        W68027  22.388  17.547   6.426
67163W        W68028  22.979  17.530   7.149
67164W        W68029  22.830  15.327   4.163
67165W        W68030  24.347  15.469   4.488
67166W        W68031  24.305  17.577   6.725
67167W        W68032  22.990  16.169   5.324
67168W        W68033  22.645  17.867   6.189
67169W        W68034  25.390  17.984   3.790
67170W        W68035  22.253  16.656   6.786
67171W        W68036  24.248  16.918   5.474
67172W        W68037  22.684  16.567   4.716
67173W        W68038  23.055  17.574   6.111
67174W        W68039  23.433  14.993   5.152
67175W        W68040  22.044  16.977   4.082
67176W        W68041  23.563  15.928   3.952
67177W        W68042  22.209  16.477   4.971
67178W        W68043  23.499  15.119   6.435
67179W        W68044  25.171  14.828   3.862
67180W        W68045  25.264  16.574   6.961
67181W        W68046  23.918  17.831   7.113
67182W        W68047  25.476  16.925   6.635
67183W        W68048  24.884  17.723   7.246
67184W        W68049  22.623  18.179   5.724
67185W        W68050  25.482  16.801   4.598
67186W        W68051  24.012  16.068   5.111
67187W        W68052  23.779  14.680   5.001
67188W        W68053  22.838  17.664   4.838
67189W        W68054  23.337  15.405   6.063
67190W        W68055  23.037  14.774   5.532
67191W        W68056  22.100  17.596   4.080
67192W        W68057  23.916  16.960   4.798
67193W        W68058  22.791  17.755   6.677
67194W        W68059  22.268  16.578   4.373
67195W        W68060  22.153  15.121   5.372
67196W        W68061  23.701  17.086   5.429
67197W        W68062  21.953  14.940   4.449
67198W        W68063  24.617  16.146   6.376
67199W        W68064  24.494  15.532   3.948
67200W        W68065  25.011  17.204   5.596
67201W        W68066  23.672  17.688   5.427
67202W        W68067  23.084  17.792   4.338
67203W        W68068  24.366  14.695   3.768
67204W        W68069  22.166  17.955   5.509
67205W        W68070  24.363  15.713   7.144
67206W        W68071  22.346  15.243   7.143
67207W        W68072  22.077  15.843   4.476
67208W        W68073  22.768  15.832   4.201
67209W        W68074  24.531  16.159   7.018
67210W        W68075  22.874  16.440   5.727
67211W        W68076  24.348  14.726   4.847
67212W        W68077  23.479  18.157   5.350
67213W        W68078  24.693  17.619   6.287
67214W        W68079  24.277  17.768   5.398
67215W        W68080  24.296  16.748   4.992
67216W        W68081  23.758  14.973   4.063
67217W        W68082  25.439  14.601   4.785
67218W        W68083  23.127  16.236   3.948
67219W        W68084  25.293  15.573   4.938
67220W        W68085  23.985  16.743   3.815
67221W        W68086  24.921  16.943   6.563
67222W        W68087  24.575  17.644   4.030
67223W        W68088  23.190  15.319   6.936
67224W        W68089  23.010  15.903   6.177
67225W        W68090  25.102  17.398   6.454
67226W        W68091  24.202  15.348   6.831
67227W        W68092  22.046  15.819   6.608
67228W        W68093  23.806  16.296   6.334
67229W        W68094  22.163  17.054   4.991
67230W        W68095  22.310  16.351   5.881
67231W        W68096  24.627  16.637   6.231
67232W        W68097  24.399  18.017   7.042
67233W        W68098  24.295  15.756   6.595
67234W        W68099  24.572  17.810   5.000
67235W        W68100  23.574  17.530   6.323
67236W        W68101  23.059  17.885   5.592
67237W        W68102  24.864  17.056   6.011
67238W        W68103  23.914  17.128   7.148
67239W        W68104  22.519  17.081   5.487
67240W        W68105  24.865  16.840   5.132
67241W        W68106  24.506  17.906   5.883
67242W        W68107  22.484  17.635   5.753
67243W        W68108  23.505  15.687   6.963
67244W        W68109  23.956  17.853   4.474
67245W        W68110  23.264  17.108   7.112
67246W        W68111  23.390  17.346   4.489
67247W        W68112  22.611  16.086   3.748
67248W        W68113  21.950  18.172  10.648
67249W        W68114  22.326  17.065  10.171
67250W        W68115  25.031  16.795   7.941
67251W        W68116  25.161  17.880   9.968
67252W        W68117  23.079  17.871   7.494
67253W        W68118  23.162  16.023   8.477
67254W        W68119  22.677  15.871   8.641
67255W        W68120  23.668  16.686   8.075
67256W        W68121  23.343  17.778  10.430
67257W        W68122  21.992  15.339  10.393
67258W        W68123  22.754  14.619  10.195
67259W        W68124  24.448  15.007   9.082
67260W        W68125  24.097  15.878   7.652
67261W        W68126  24.667  15.312  10.743
67262W        W68127  22.033  15.104   9.868
67263W        W68128  22.132  17.723  10.889
67264W        W68129  23.654  17.113   7.621
67265W        W68130  22.086  15.896   9.314
67266W        W68131  22.979  15.787  10.551
67267W        W68132  25.438  15.646   9.050
67268W        W68133  25.202  16.689   9.909
67269W        W68134  23.510  16.022   8.936
67270W        W68135  24.056  17.361   9.305
67271W        W68136  22.556  16.795   9.537
67272W        W68137  21.915  16.323   9.108
67273W        W68138  22.951  16.295  10.300
67274W        W68139  25.222  16.078  10.554
67275W        W68140  22.838  17.522   8.999
67276W        W68141  23.959  17.211  10.133
67277W        W68142  23.179  15.851   9.358
67278W        W68143  23.471  16.635   9.001
67279W        W68144  24.468  17.408  10.849
67280W        W68145  23.547  16.728  10.859
67281W        W68146  23.528  16.444  10.337
67282W        W68147  21.937  15.835  10.859
67283W        W68148  24.769  17.370  10.458
67284W        W68149  22.350  14.952   8.456
67285W        W68150  22.877  17.210   9.455
67286W        W68151  25.340  16.993   8.745
67287W        W68152  24.753  15.393   9.312
67288W        W68153  25.038  15.346   7.407
67289W        W68154  25.503  16.147   9.713
67290W        W68155  23.470  17.854   9.466
67291W        W68156  25.244  17.320   7.904
67292W        W68157  22.373  18.106   7.658
67293W        W68158  22.766  18.152   8.334
67294W        W68159  22.563  14.906   9.760
67295W        W68160  25.186  15.924  10.035
67296W        W68161  24.591  16.346   8.494
67297W        W68162  24.557  16.034   7.521
67298W        W68163  23.765  17.178   9.661
67299W        W68164  23.571  15.508   8.860
67300W        W68165  24.171  17.595   9.854
67301W        W68166  25.042  16.386   8.276
67302W        W68167  23.944  15.044   8.292
67303W        W68168  22.601  17.738   7.975
67304W        W68169  21.972  15.237   8.574
67305W        W68170  24.758  15.844   9.048
67306W        W68171  22.216  17.461   8.963
67307W        W68172  23.557  17.811   7.833
67308W        W68173  24.949  15.837   7.297
67309W        W68174  21.972  17.595   9.461
67310W        W68175  22.763  17.167   9.941
67311W        W68176  23.136  16.527   8.560
67312W        W68177  23.158  14.932   9.653
67313W        W68178  25.387  14.694   8.950
67314W        W68179  22.606  16.566   7.418
67315W        W68180  22.261  15.599   7.597
67316W        W68181  22.323  17.555   8.391
67317W        W68182  23.454  17.038   8.639
67318W        W68183  24.786  17.897  10.353
67319W        W68184  23.712  15.539   8.037
67320W        W68185  25.095  17.937   8.809
67321W        W68186  24.772  15.790  10.407
67322W        W68187  25.485  17.446   8.541
67323W        W68188  24.112  16.738  10.025
67324W        W68189  21.878  16.289   8.231
67325W        W68190  22.989  16.704   9.804
67326W        W68191  24.193  15.968   8.182
67327W        W68192  24.070  16.458   8.286
67328W        W68193  22.413  15.878   9.760
67329W        W68194  22.398  15.754  10.682
67330W        W68195  22.288  14.671   8.841
67331W        W68196  24.056  15.018   9.402
67332W        W68197  23.704  15.203  10.565
67333W        W68198  24.059  15.352   7.743
67334W        W68199  25.242  17.745  10.497
67335W        W68200  24.209  14.826  10.536
67336W        W68201  25.228  17.127  10.658
67337W        W68202  24.658  15.294  10.254
67338W        W68203  24.458  15.232   8.524
67339W        W68204  24.851  16.366  10.928
67340W        W68205  22.591  17.942   8.914
67341W        W68206  23.249  15.659   7.900
67342W        W68207  22.818  14.943  10.564
67343W        W68208  24.870  15.427   8.245
67344W        W68209  25.237  15.909   8.190
67345W        W68210  22.980  18.126  10.661
67346W        W68211  22.906  14.662   7.896
67347W        W68212  25.227  15.196   8.931
67348W        W68213  25.377  17.445   7.376
67349W        W68214  22.284  16.648   9.078
67350W        W68215  24.201  15.235   7.308
67351W        W68216  25.335  17.567   9.028
67352W        W68217  25.374  14.761   9.778
67353W        W68218  23.819  15.973  10.332
67354W        W68219  23.912  17.312   8.035
67355W        W68220  24.312  16.606  10.775
67356W        W68221  23.986  14.583   9.084
67357W        W68222  22.598  15.486   9.147
67358W        W68223  22.152  16.686   9.921
67359W        W68224  24.011  17.879   8.627
67360W        W68225  25.205  15.476   9.499
67361W        W68226  23.842  17.823  10.266
67362W        W68227  25.185  16.882   7.471
67363W        W68228  23.620  16.365   8.532
67364W        W68229  25.472  14.876  10.273
67365W        W68230  23.621  16.711   9.867
67366W        W68231  23.838  15.597   9.312
67367W        W68232  24.690  15.895   8.150
67368W        W68233  24.977  15.628   7.792
67369W        W68234  24.786  17.668   8.181
67370W        W68235  24.620  17.271   8.977
67371W        W68236  24.516  16.350   7.955
67372W        W68237  23.949  16.560   8.941
67373W        W68238  24.830  16.348   9.008
67374W        W68239  22.205  15.363   9.432
67375W        W68240  24.983  16.415  10.259
67376W        W68241  25.334  18.033   9.405
67377W        W68242  23.264  17.477   8.807
67378W        W68243  24.271  18.010  10.131
67379W        W68244  24.265  15.340   9.895
67380W        W68245  23.472  18.048   9.956
67381W        W68246  25.169  15.002   8.422
67382W        W68247  24.960  16.321   9.723
67383W        W68248  21.943  15.642   9.761
67384W        W68249  24.803  15.437   8.779
67385W        W68250  25.214  15.588  10.556
67386W        W68251  24.099  17.287   8.774
67387W        W68252  23.355  17.878   8.387
67388W        W68253  22.470  15.058   7.645
67389W        W68254  23.574  14.712   9.455
67390W        W68255  22.602  17.832   7.303
67391W        W68256  22.976  16.298   8.054
67392W        W68257  23.630  16.927  10.367
67393W        W68258  23.460  15.285   8.357
67394W        W68259  24.816  14.882   8.785
67395W        W68260  24.536  18.164   9.113
67396W        W68261  23.948  17.812   9.453
67397W        W68262  23.344  16.849   9.414
67398W        W68263  25.114  17.572   9.540
67399W        W68264  22.808  15.075   8.309
67400W        W68265  23.330  17.372   9.269
67401W        W68266  22.813  15.303   7.334
67402W        W68267  23.614  15.912   9.728
67403W        W68268  24.462  14.778   9.598
67404W        W68269  21.882  16.621   9.483
67405W        W68270  23.586  16.439   7.641
67406W        W68271  22.854  14.754   7.411
67407W        W68272  23.592  15.835   8.462
67408W        W68273  24.562  14.811  10.161
67409W        W68274  23.150  16.823  10.270
67410W        W68275  23.954  16.605  10.487
67411W        W68276  24.571  16.635  10.380
67412W        W68277  23.855  14.775  10.885
67413W        W68278  23.077  15.391   9.278
67414W        W68279  22.503  15.347   8.676
67415W        W68280  22.289  18.059   8.352
67416W        W68281  23.621  17.389  10.477
67417W        W68282  22.656  16.874   7.836
67418W        W68283  24.336  16.259   9.057
67419W        W68284  24.616  16.058   9.456
67420W        W68285  23.821  16.732   9.390
67421W        W68286  24.291  17.106   7.522
67422W        W68287  23.963  15.127   8.850
67423W        W68288  25.442  15.405   8.118
67424W        W68289  21.936  17.994  10.149
67425W        W68290  22.353  17.220   9.681
67426W        W68291  21.920  18.066   7.913
67427W        W68292  23.819  15.336   9.719
67428W        W68293  23.182  17.359   7.568
67429W        W68294  25.087  17.741   7.754
67430W        W68295  24.062  16.394   7.768
67431W        W68296  22.905  15.585   8.285
67432W        W68297  23.737  15.495   7.337
67433W        W68298  24.321  17.060  10.515
67434W        W68299  24.674  14.966   8.132
67435W        W68300  22.004  14.814   7.580
67436W        W68301  23.290  17.133   9.870
67437W        W68302  23.089  17.049   8.962
67438W        W68303  22.831  17.001   7.360
67439W        W68304  22.072  17.242   8.128
67440W        W68305  22.576  16.312  10.570
67441W        W68306  23.280  14.872  10.756
67442W        W68307  23.989  15.014  10.112
67443W        W68308  23.184  14.782   8.393
67444W        W68309  24.243  14.859   7.898
67445W        W68310  22.188  14.791   9.475
67446W        W68311  22.236  15.754   8.845
67447W        W68312  24.925  14.862   9.251
67448W        W68313  22.347  15.360   8.065
67449W        W68314  24.918  15.048   9.681
67450W        W68315  25.314  16.251   7.366
67451W        W68316  22.606  15.009   9.185
67452W        W68317  23.720  15.581  10.125
67453W        W68318  21.868  15.271   7.603
67454W        W68319  22.654  16.660  10.164
67455W        W68320  24.012  16.058   9.343
67456W        W68321  23.879  18.137   7.639
67457W        W68322  22.025  16.644   7.336
67458W        W68323  22.760  17.055  10.462
67459W        W68324  22.281  16.222  10.093
67460W        W68325  23.272  16.327   9.887
67461W        W68326  25.040  14.686  10.149
67462W        W68327  25.438  16.296  10.140
67463W        W68328  25.426  16.496   7.826
67464W        W68329  24.289  16.828   7.925
67465W        W68330  24.763  18.128   7.620
67466W        W68331  23.940  16.118  10.762
67467W        W68332  22.270  17.085  10.802
67468W        W68333  25.476  15.007  10.754
67469W        W68334  25.194  15.935   9.375
67470W        W68335  23.502  18.065  10.852
67471W        W68336  23.357  14.694   7.579
67472W        W68337  24.896  17.293   7.522
67473W        W68338  22.665  15.386  10.408
67474W        W68339  23.099  17.380  10.270
67475W        W68340  25.225  15.371  10.068
67476W        W68341  24.436  18.030   8.036
67477W        W68342  24.675  16.649   9.403
67478W        W68343  22.925  15.065  10.070
67479W        W68344  23.394  16.134  10.827
67480W        W68345  22.897  17.313   8.021
67481W        W68346  24.652  16.811   8.285
67482W        W68347  22.420  15.437  10.009
67483W        W68348  23.749  17.499   8.473
67484W        W68349  25.499  16.059   8.654
67485W        W68350  23.721  14.692  10.373
67486W        W68351  24.501  17.397   9.452
67487W        W68352  24.804  17.741   9.160
67488W        W68353  24.023  17.543   7.588
67489W        W68354  22.033  17.435  10.430
67490W        W68355  22.776  15.427   9.668
67491W        W68356  22.746  14.775   8.778
67492W        W68357  24.367  15.617   9.470
67493W        W68358  23.165  16.788   7.670
67494W        W68359  25.163  16.730   9.169
67495W        W68360  22.490  17.488  10.592
67496W        W68361  24.877  18.170   8.389
67497W        W68362  22.976  15.190   8.834
67498W        W68363  22.745  16.683   8.924
67499W        W68364  23.058  18.094   9.674
67500W        W68365  25.125  18.190  10.706
67501W        W68366  24.284  16.378   9.639
67502W        W68367  22.133  16.176   7.554
67503W        W68368  25.267  17.834   8.251
67504W        W68369  25.104  15.158   7.870
67505W        W68370  23.243  14.677  10.273
67506W        W68371  24.949  17.479   8.731
67507W        W68372  24.978  16.035   8.636
67508W        W68373  23.095  15.708   8.852
67509W        W68374  23.340  15.970  10.176
67510W        W68375  24.451  17.123  10.039
67511W        W68376  23.101  15.577  10.151
67512W        W68377  23.080  18.043   8.767
67513W        W68378  22.397  18.002  10.401
67514W        W68379  22.509  17.363   7.531
67515W        W68380  25.026  17.121   8.341
67516W        W68381  22.630  15.913  10.227
67517W        W68382  25.403  15.843   7.708
67518W        W68383  23.148  16.900   8.179
67519W        W68384  24.247  16.282  10.260
67520W        W68385  24.138  15.910   9.804
67521W        W68386  22.698  16.282   9.833
67522W        W68387  24.908  18.170   9.662
67523W        W68388  24.699  14.804  10.656
67524W        W68389  22.363  14.954  10.243
67525W        W68390  22.702  15.977   9.296
67526W        W68391  23.071  15.791   7.418
67527W        W68392  21.874  17.550   9.963
67528W        W68393  23.459  16.259   9.406
67529W        W68394  23.282  15.284   7.511
67530W        W68395  22.417  16.100   8.292
67531W        W68396  22.188  17.952   9.729
67532W        W68397  24.983  16.178   7.837
67533W        W68398  25.078  15.094  10.523
67534W        W68399  24.514  17.303   8.486
67535W        W68400  22.112  16.227  10.663
67536W        W68401  25.078  14.691   7.959
67537W        W68402  24.598  17.166   7.970
67538W        W68403  23.500  16.224   8.055
67539W        W68404  24.687  15.028   7.578
67540W        W68405  24.752  15.635   9.764
67541W        W68406  22.461  16.228   8.971
67542W        W68407  22.755  17.167   8.620
67543W        W68408  24.518  15.787   8.585
67544W        W68409  23.541  15.166   9.281
67545W        W68410  25.503  17.077   9.792
67546W        W68411  25.421  15.064   9.353
67547W        W68412  21.960  17.894   8.729
67548W        W68413  22.469  17.081   8.265
67549W        W68414  22.384  14.698  10.818
67550W        W68415  23.503  17.551  10.920
67551W        W68416  25.258  16.519   8.710
67552W        W68417  24.612  16.696   7.590
67553W        W68418  23.907  18.217   9.802
67554W        W68419  24.764  16.939  10.839
67555W        W68420  23.579  14.649   8.119
67556W        W68421  24.292  15.518   8.978
67557W        W68422  21.978  17.105   9.310
67558W        W68423  23.231  15.067   7.951
67559W        W68424  23.035  16.551  10.800
67560W        W68425  24.029  15.532   8.514
67561W        W68426  24.234  16.942   9.636
67562W        W68427  22.388  17.547  10.071
67563W        W68428  22.979  17.530  10.794
67564W        W68429  22.830  15.327   7.808
67565W        W68430  24.347  15.469   8.133
67566W        W68431  24.305  17.577  10.370
67567W        W68432  22.990  16.169   8.969
67568W        W68433  22.645  17.867   9.834
67569W        W68434  25.390  17.984   7.435
67570W        W68435  22.253  16.656  10.431
67571W        W68436  24.248  16.918   9.119
67572W        W68437  22.684  16.567   8.361
67573W        W68438  23.055  17.574   9.756
67574W        W68439  23.433  14.993   8.797
67575W        W68440  22.044  16.977   7.727
67576W        W68441  23.563  15.928   7.597
67577W        W68442  22.209  16.477   8.616
67578W        W68443  23.499  15.119  10.080
67579W        W68444  25.171  14.828   7.507
67580W        W68445  25.264  16.574  10.606
67581W        W68446  23.918  17.831  10.758
67582W        W68447  25.476  16.925  10.280
67583W        W68448  24.884  17.723  10.891
67584W        W68449  22.623  18.179   9.369
67585W        W68450  25.482  16.801   8.243
67586W        W68451  24.012  16.068   8.756
67587W        W68452  23.779  14.680   8.646
67588W        W68453  22.838  17.664   8.483
67589W        W68454  23.337  15.405   9.708
67590W        W68455  23.037  14.774   9.177
67591W        W68456  22.100  17.596   7.725
67592W        W68457  23.916  16.960   8.443
67593W        W68458  22.791  17.755  10.322
67594W        W68459  22.268  16.578   8.018
67595W        W68460  22.153  15.121   9.017
67596W        W68461  23.701  17.086   9.074
67597W        W68462  21.953  14.940   8.094
67598W        W68463  24.617  16.146  10.021
67599W        W68464  24.494  15.532   7.593
67600W        W68465  25.011  17.204   9.241
67601W        W68466  23.672  17.688   9.072
67602W        W68467  23.084  17.792   7.983
67603W        W68468  24.366  14.695   7.413
67604W        W68469  22.166  17.955   9.154
67605W        W68470  24.363  15.713  10.789
67606W        W68471  22.346  15.243  10.788
67607W        W68472  22.077  15.843   8.121
67608W        W68473  22.768  15.832   7.846
67609W        W68474  24.531  16.159  10.663
67610W        W68475  22.874  16.440   9.372
67611W        W68476  24.348  14.726   8.492
67612W        W68477  23.479  18.157   8.995
67613W        W68478  24.693  17.619   9.932
67614W        W68479  24.277  17.768   9.043
67615W        W68480  24.296  16.748   8.637
67616W        W68481  23.758  14.973   7.708
67617W        W68482  25.439  14.601   8.430
67618W        W68483  23.127  16.236   7.593
67619W        W68484  25.293  15.573   8.583
67620W        W68485  23.985  16.743   7.460
67621W        W68486  24.921  16.943  10.208
67622W        W68487  24.575  17.644   7.675
67623W        W68488  23.190  15.319  10.581
67624W        W68489  23.010  15.903   9.822
67625W        W68490  25.102  17.398  10.099
67626W        W68491  24.202  15.348  10.476
67627W        W68492  22.046  15.819  10.253
67628W        W68493  23.806  16.296   9.979
67629W        W68494  22.163  17.054   8.636
67630W        W68495  22.310  16.351   9.526
67631W        W68496  24.627  16.637   9.876
67632W        W68497  24.399  18.017  10.687
67633W        W68498  24.295  15.756  10.240
67634W        W68499  24.572  17.810   8.645
67635W        W68500  23.574  17.530   9.968
67636W        W68501  23.059  17.885   9.237
67637W        W68502  24.864  17.056   9.656
67638W        W68503  23.914  17.128  10.793
67639W        W68504  22.519  17.081   9.132
67640W        W68505  24.865  16.840   8.777
67641W        W68506  24.506  17.906   9.528
67642W        W68507  22.484  17.635   9.398
67643W        W68508  23.505  15.687  10.608
67644W        W68509  23.956  17.853   8.119
67645W        W68510  23.264  17.108  10.757
67646W        W68511  23.390  17.346   8.134
67647W        W68512  22.611  16.086   7.393
67648W        W68513  21.950  18.172  14.292
67649W        W68514  22.326  17.065  13.815
67650W        W68515  25.031  16.795  11.585
67651W        W68516  25.161  17.880  13.612
67652W        W68517  23.079  17.871  11.138
67653W        W68518  23.162  16.023  12.121
67654W        W68519  22.677  15.871  12.285
67655W        W68520  23.668  16.686  11.719
67656W        W68521  23.343  17.778  14.074
67657W        W68522  21.992  15.339  14.037
67658W        W68523  22.754  14.619  13.839
67659W        W68524  24.448  15.007  12.726
67660W        W68525  24.097  15.878  11.296
67661W        W68526  24.667  15.312  14.387
67662W        W68527  22.033  15.104  13.512
67663W        W68528  22.132  17.723  14.533
67664W        W68529  23.654  17.113  11.265
67665W        W68530  22.086  15.896  12.958
67666W        W68531  22.979  15.787  14.195
67667W        W68532  25.438  15.646  12.694
67668W        W68533  25.202  16.689  13.553
67669W        W68534  23.510  16.022  12.580
67670W        W68535  24.056  17.361  12.949
67671W        W68536  22.556  16.795  13.181
67672W        W68537  21.915  16.323  12.752
67673W        W68538  22.951  16.295  13.944
67674W        W68539  25.222  16.078  14.198
67675W        W68540  22.838  17.522  12.643
67676W        W68541  23.959  17.211  13.777
67677W        W68542  23.179  15.851  13.002
67678W        W68543  23.471  16.635  12.645
67679W        W68544  24.468  17.408  14.493
67680W        W68545  23.547  16.728  14.503
67681W        W68546  23.528  16.444  13.981
67682W        W68547  21.937  15.835  14.503
67683W        W68548  24.769  17.370  14.102
67684W        W68549  22.350  14.952  12.100
67685W        W68550  22.877  17.210  13.099
67686W        W68551  25.340  16.993  12.389
67687W        W68552  24.753  15.393  12.956
67688W        W68553  25.038  15.346  11.051
67689W        W68554  25.503  16.147  13.357
67690W        W68555  23.470  17.854  13.110
67691W        W68556  25.244  17.320  11.548
67692W        W68557  22.373  18.106  11.302
67693W        W68558  22.766  18.152  11.978
67694W        W68559  22.563  14.906  13.404
67695W        W68560  25.186  15.924  13.679
67696W        W68561  24.591  16.346  12.138
67697W        W68562  24.557  16.034  11.165
67698W        W68563  23.765  17.178  13.305
67699W        W68564  23.571  15.508  12.504
67700W        W68565  24.171  17.595  13.498
67701W        W68566  25.042  16.386  11.920
67702W        W68567  23.944  15.044  11.936
67703W        W68568  22.601  17.738  11.619
67704W        W68569  21.972  15.237  12.218
67705W        W68570  24.758  15.844  12.692
67706W        W68571  22.216  17.461  12.607
67707W        W68572  23.557  17.811  11.477
67708W        W68573  24.949  15.837  10.941
67709W        W68574  21.972  17.595  13.105
67710W        W68575  22.763  17.167  13.585
67711W        W68576  23.136  16.527  12.204
67712W        W68577  23.158  14.932  13.297
67713W        W68578  25.387  14.694  12.594
67714W        W68579  22.606  16.566  11.062
67715W        W68580  22.261  15.599  11.241
67716W        W68581  22.323  17.555  12.035
67717W        W68582  23.454  17.038  12.283
67718W        W68583  24.786  17.897  13.997
67719W        W68584  23.712  15.539  11.681
67720W        W68585  25.095  17.937  12.453
67721W        W68586  24.772  15.790  14.051
67722W        W68587  25.485  17.446  12.185
67723W        W68588  24.112  16.738  13.669
67724W        W68589  21.878  16.289  11.875
67725W        W68590  22.989  16.704  13.448
67726W        W68591  24.193  15.968  11.826
67727W        W68592  24.070  16.458  11.930
67728W        W68593  22.413  15.878  13.404
67729W        W68594  22.398  15.754  14.326
67730W        W68595  22.288  14.671  12.485
67731W        W68596  24.056  15.018  13.046
67732W        W68597  23.704  15.203  14.209
67733W        W68598  24.059  15.352  11.387
67734W        W68599  25.242  17.745  14.141
67735W        W68600  24.209  14.826  14.180
67736W        W68601  25.228  17.127  14.302
67737W        W68602  24.458  15.232  12.168
67738W        W68603  24.851  16.366  14.572
67739W        W68604  22.591  17.942  12.558
67740W        W68605  23.249  15.659  11.544
67741W        W68606  22.818  14.943  14.208
67742W        W68607  24.870  15.427  11.889
67743W        W68608  25.237  15.909  11.834
67744W        W68609  22.980  18.126  14.305
67745W        W68610  22.906  14.662  11.540
67746W        W68611  25.227  15.196  12.575
67747W        W68612  25.377  17.445  11.020
67748W        W68613  22.284  16.648  12.722
67749W        W68614  24.201  15.235  10.952
67750W        W68615  25.335  17.567  12.672
67751W        W68616  25.374  14.761  13.422
67752W        W68617  23.819  15.973  13.976
67753W        W68618  23.912  17.312  11.679
67754W        W68619  24.312  16.606  14.419
67755W        W68620  23.986  14.583  12.728
67756W        W68621  22.598  15.486  12.791
67757W        W68622  22.152  16.686  13.565
67758W        W68623  24.011  17.879  12.271
67759W        W68624  25.205  15.476  13.143
67760W        W68625  23.842  17.823  13.910
67761W        W68626  25.185  16.882  11.115
67762W        W68627  23.620  16.365  12.176
67763W        W68628  25.472  14.876  13.917
67764W        W68629  23.621  16.711  13.511
67765W        W68630  23.838  15.597  12.956
67766W        W68631  24.690  15.895  11.794
67767W        W68632  24.977  15.628  11.436
67768W        W68633  24.786  17.668  11.825
67769W        W68634  24.620  17.271  12.621
67770W        W68635  24.516  16.350  11.599
67771W        W68636  23.949  16.560  12.585
67772W        W68637  24.830  16.348  12.652
67773W        W68638  22.205  15.363  13.076
67774W        W68639  24.983  16.415  13.903
67775W        W68640  25.334  18.033  13.049
67776W        W68641  23.264  17.477  12.451
67777W        W68642  24.271  18.010  13.775
67778W        W68643  24.265  15.340  13.539
67779W        W68644  23.472  18.048  13.600
67780W        W68645  25.169  15.002  12.066
67781W        W68646  24.960  16.321  13.367
67782W        W68647  21.943  15.642  13.405
67783W        W68648  24.803  15.437  12.423
67784W        W68649  25.214  15.588  14.200
67785W        W68650  24.099  17.287  12.418
67786W        W68651  23.355  17.878  12.031
67787W        W68652  22.470  15.058  11.289
67788W        W68653  23.574  14.712  13.099
67789W        W68654  22.602  17.832  10.947
67790W        W68655  22.976  16.298  11.698
67791W        W68656  23.630  16.927  14.011
67792W        W68657  23.460  15.285  12.001
67793W        W68658  24.816  14.882  12.429
67794W        W68659  24.536  18.164  12.757
67795W        W68660  23.948  17.812  13.097
67796W        W68661  23.344  16.849  13.058
67797W        W68662  25.114  17.572  13.184
67798W        W68663  22.808  15.075  11.953
67799W        W68664  23.330  17.372  12.913
67800W        W68665  22.813  15.303  10.978
67801W        W68666  23.614  15.912  13.372
67802W        W68667  24.462  14.778  13.242
67803W        W68668  21.882  16.621  13.127
67804W        W68669  23.586  16.439  11.285
67805W        W68670  22.854  14.754  11.055
67806W        W68671  23.592  15.835  12.106
67807W        W68672  24.562  14.811  13.805
67808W        W68673  23.150  16.823  13.914
67809W        W68674  23.954  16.605  14.131
67810W        W68675  24.571  16.635  14.024
67811W        W68676  23.855  14.775  14.529
67812W        W68677  23.077  15.391  12.922
67813W        W68678  22.503  15.347  12.320
67814W        W68679  22.289  18.059  11.996
67815W        W68680  23.621  17.389  14.121
67816W        W68681  24.336  16.259  12.701
67817W        W68682  24.616  16.058  13.100
67818W        W68683  23.821  16.732  13.034
67819W        W68684  24.291  17.106  11.166
67820W        W68685  23.963  15.127  12.494
67821W        W68686  25.442  15.405  11.762
67822W        W68687  21.936  17.994  13.793
67823W        W68688  22.353  17.220  13.325
67824W        W68689  21.920  18.066  11.557
67825W        W68690  23.819  15.336  13.363
67826W        W68691  23.182  17.359  11.212
67827W        W68692  25.087  17.741  11.398
67828W        W68693  24.062  16.394  11.412
67829W        W68694  22.905  15.585  11.929
67830W        W68695  23.737  15.495  10.981
67831W        W68696  24.321  17.060  14.159
67832W        W68697  24.674  14.966  11.776
67833W        W68698  22.004  14.814  11.224
67834W        W68699  23.290  17.133  13.514
67835W        W68700  23.089  17.049  12.606
67836W        W68701  22.831  17.001  11.004
67837W        W68702  22.072  17.242  11.772
67838W        W68703  22.576  16.312  14.214
67839W        W68704  23.280  14.872  14.400
67840W        W68705  23.989  15.014  13.756
67841W        W68706  23.184  14.782  12.037
67842W        W68707  24.243  14.859  11.542
67843W        W68708  22.188  14.791  13.119
67844W        W68709  22.236  15.754  12.489
67845W        W68710  24.925  14.862  12.895
67846W        W68711  22.347  15.360  11.709
67847W        W68712  24.918  15.048  13.325
67848W        W68713  25.314  16.251  11.010
67849W        W68714  22.606  15.009  12.829
67850W        W68715  23.720  15.581  13.769
67851W        W68716  21.868  15.271  11.247
67852W        W68717  22.654  16.660  13.808
67853W        W68718  24.012  16.058  12.987
67854W        W68719  23.879  18.137  11.283
67855W        W68720  22.025  16.644  10.980
67856W        W68721  22.760  17.055  14.106
67857W        W68722  22.281  16.222  13.737
67858W        W68723  23.272  16.327  13.531
67859W        W68724  25.040  14.686  13.793
67860W        W68725  25.438  16.296  13.784
67861W        W68726  25.426  16.496  11.470
67862W        W68727  24.289  16.828  11.569
67863W        W68728  24.763  18.128  11.264
67864W        W68729  23.940  16.118  14.406
67865W        W68730  22.270  17.085  14.446
67866W        W68731  25.476  15.007  14.398
67867W        W68732  25.194  15.935  13.019
67868W        W68733  23.502  18.065  14.496
67869W        W68734  23.357  14.694  11.223
67870W        W68735  24.896  17.293  11.166
67871W        W68736  22.665  15.386  14.052
67872W        W68737  23.099  17.380  13.914
67873W        W68738  25.225  15.371  13.712
67874W        W68739  24.436  18.030  11.680
67875W        W68740  24.675  16.649  13.047
67876W        W68741  22.925  15.065  13.714
67877W        W68742  23.394  16.134  14.471
67878W        W68743  22.897  17.313  11.665
67879W        W68744  24.652  16.811  11.929
67880W        W68745  22.420  15.437  13.653
67881W        W68746  23.749  17.499  12.117
67882W        W68747  25.499  16.059  12.298
67883W        W68748  23.721  14.692  14.017
67884W        W68749  24.501  17.397  13.096
67885W        W68750  24.804  17.741  12.804
67886W        W68751  24.023  17.543  11.232
67887W        W68752  22.033  17.435  14.074
67888W        W68753  22.776  15.427  13.312
67889W        W68754  22.746  14.775  12.422
67890W        W68755  24.367  15.617  13.114
67891W        W68756  23.165  16.788  11.314
67892W        W68757  25.163  16.730  12.813
67893W        W68758  22.490  17.488  14.236
67894W        W68759  24.877  18.170  12.033
67895W        W68760  22.976  15.190  12.478
67896W        W68761  22.745  16.683  12.568
67897W        W68762  23.058  18.094  13.318
67898W        W68763  25.125  18.190  14.350
67899W        W68764  24.284  16.378  13.283
67900W        W68765  22.133  16.176  11.198
67901W        W68766  25.267  17.834  11.895
67902W        W68767  25.104  15.158  11.514
67903W        W68768  23.243  14.677  13.917
67904W        W68769  24.949  17.479  12.375
67905W        W68770  24.978  16.035  12.280
67906W        W68771  23.095  15.708  12.496
67907W        W68772  23.340  15.970  13.820
67908W        W68773  24.451  17.123  13.683
67909W        W68774  23.101  15.577  13.795
67910W        W68775  23.080  18.043  12.411
67911W        W68776  22.397  18.002  14.045
67912W        W68777  22.509  17.363  11.175
67913W        W68778  25.026  17.121  11.985
67914W        W68779  22.630  15.913  13.871
67915W        W68780  25.403  15.843  11.352
67916W        W68781  23.148  16.900  11.823
67917W        W68782  24.247  16.282  13.904
67918W        W68783  24.138  15.910  13.448
67919W        W68784  22.698  16.282  13.477
67920W        W68785  24.908  18.170  13.306
67921W        W68786  24.699  14.804  14.300
67922W        W68787  22.363  14.954  13.887
67923W        W68788  22.702  15.977  12.940
67924W        W68789  23.071  15.791  11.062
67925W        W68790  21.874  17.550  13.607
67926W        W68791  23.459  16.259  13.050
67927W        W68792  23.282  15.284  11.155
67928W        W68793  22.417  16.100  11.936
67929W        W68794  22.188  17.952  13.373
67930W        W68795  24.983  16.178  11.481
67931W        W68796  25.078  15.094  14.167
67932W        W68797  24.514  17.303  12.130
67933W        W68798  22.112  16.227  14.307
67934W        W68799  25.078  14.691  11.603
67935W        W68800  24.598  17.166  11.614
67936W        W68801  23.500  16.224  11.699
67937W        W68802  24.687  15.028  11.222
67938W        W68803  24.752  15.635  13.408
67939W        W68804  22.461  16.228  12.615
67940W        W68805  22.755  17.167  12.264
67941W        W68806  24.518  15.787  12.229
67942W        W68807  23.541  15.166  12.925
67943W        W68808  25.503  17.077  13.436
67944W        W68809  25.421  15.064  12.997
67945W        W68810  21.960  17.894  12.373
67946W        W68811  22.469  17.081  11.909
67947W        W68812  22.384  14.698  14.462
67948W        W68813  23.503  17.551  14.564
67949W        W68814  25.258  16.519  12.354
67950W        W68815  24.612  16.696  11.234
67951W        W68816  23.907  18.217  13.446
67952W        W68817  24.764  16.939  14.483
67953W        W68818  23.579  14.649  11.763
67954W        W68819  24.292  15.518  12.622
67955W        W68820  21.978  17.105  12.954
67956W        W68821  23.231  15.067  11.595
67957W        W68822  23.035  16.551  14.444
67958W        W68823  24.029  15.532  12.158
67959W        W68824  24.234  16.942  13.280
67960W        W68825  22.388  17.547  13.715
67961W        W68826  22.979  17.530  14.438
67962W        W68827  22.830  15.327  11.452
67963W        W68828  24.347  15.469  11.777
67964W        W68829  24.305  17.577  14.014
67965W        W68830  22.990  16.169  12.613
67966W        W68831  22.645  17.867  13.478
67967W        W68832  25.390  17.984  11.079
67968W        W68833  22.253  16.656  14.075
67969W        W68834  24.248  16.918  12.763
67970W        W68835  22.684  16.567  12.005
67971W        W68836  23.055  17.574  13.400
67972W        W68837  23.433  14.993  12.441
67973W        W68838  22.044  16.977  11.371
67974W        W68839  23.563  15.928  11.241
67975W        W68840  22.209  16.477  12.260
67976W        W68841  23.499  15.119  13.724
67977W        W68842  25.171  14.828  11.151
67978W        W68843  25.264  16.574  14.250
67979W        W68844  23.918  17.831  14.402
67980W        W68845  25.476  16.925  13.924
67981W        W68846  24.884  17.723  14.535
67982W        W68847  22.623  18.179  13.013
67983W        W68848  25.482  16.801  11.887
67984W        W68849  24.012  16.068  12.400
67985W        W68850  23.779  14.680  12.290
67986W        W68851  22.838  17.664  12.127
67987W        W68852  23.337  15.405  13.352
67988W        W68853  23.037  14.774  12.821
67989W        W68854  22.100  17.596  11.369
67990W        W68855  23.916  16.960  12.087
67991W        W68856  22.791  17.755  13.966
67992W        W68857  22.268  16.578  11.662
67993W        W68858  22.153  15.121  12.661
67994W        W68859  23.701  17.086  12.718
67995W        W68860  21.953  14.940  11.738
67996W        W68861  24.617  16.146  13.665
67997W        W68862  24.494  15.532  11.237
67998W        W68863  25.011  17.204  12.885
67999W        W68864  23.672  17.688  12.716
68000W        W68865  23.084  17.792  11.627
68001W        W68866  24.366  14.695  11.057
68002W        W68867  22.166  17.955  12.798
68003W        W68868  24.363  15.713  14.433
68004W        W68869  22.346  15.243  14.432
68005W        W68870  22.077  15.843  11.765
68006W        W68871  22.768  15.832  11.490
68007W        W68872  24.531  16.159  14.307
68008W        W68873  22.874  16.440  13.016
68009W        W68874  24.348  14.726  12.136
68010W        W68875  23.479  18.157  12.639
68011W        W68876  24.693  17.619  13.576
68012W        W68877  24.277  17.768  12.687
68013W        W68878  24.296  16.748  12.281
68014W        W68879  23.758  14.973  11.352
68015W        W68880  25.439  14.601  12.074
68016W        W68881  23.127  16.236  11.237
68017W        W68882  25.293  15.573  12.227
68018W        W68883  23.985  16.743  11.104
68019W        W68884  24.921  16.943  13.852
68020W        W68885  24.575  17.644  11.319
68021W        W68886  23.190  15.319  14.225
68022W        W68887  23.010  15.903  13.466
68023W        W68888  25.102  17.398  13.743
68024W        W68889  24.202  15.348  14.120
68025W        W68890  22.046  15.819  13.897
68026W        W68891  23.806  16.296  13.623
68027W        W68892  22.163  17.054  12.280
68028W        W68893  22.310  16.351  13.170
68029W        W68894  24.627  16.637  13.520
68030W        W68895  24.399  18.017  14.331
68031W        W68896  24.295  15.756  13.884
68032W        W68897  24.572  17.810  12.289
68033W        W68898  23.574  17.530  13.612
68034W        W68899  23.059  17.885  12.881
68035W        W68900  24.864  17.056  13.300
68036W        W68901  23.914  17.128  14.437
68037W        W68902  22.519  17.081  12.776
68038W        W68903  24.865  16.840  12.421
68039W        W68904  24.506  17.906  13.172
68040W        W68905  22.484  17.635  13.042
68041W        W68906  23.505  15.687  14.252
68042W        W68907  23.956  17.853  11.763
68043W        W68908  23.264  17.108  14.401
68044W        W68909  23.390  17.346  11.778
68045W        W68910  22.611  16.086  11.037
68046W        W68911  21.950  18.172  17.936
68047W        W68912  22.326  17.065  17.459
68048W        W68913  25.031  16.795  15.229
68049W        W68914  25.161  17.880  17.256
68050W        W68915  23.079  17.871  14.782
68051W        W68916  23.162  16.023  15.765
68052W        W68917  22.677  15.871  15.929
68053W        W68918  23.668  16.686  15.363
68054W        W68919  23.343  17.778  17.718
68055W        W68920  21.992  15.339  17.681
68056W        W68921  22.754  14.619  17.483
68057W        W68922  24.448  15.007  16.370
68058W        W68923  24.097  15.878  14.940
68059W        W68924  24.667  15.312  18.031
68060W        W68925  22.033  15.104  17.156
68061W        W68926  22.132  17.723  18.177
68062W        W68927  23.654  17.113  14.909
68063W        W68928  22.086  15.896  16.602
68064W        W68929  22.979  15.787  17.839
68065W        W68930  25.438  15.646  16.338
68066W        W68931  25.202  16.689  17.197
68067W        W68932  23.510  16.022  16.224
68068W        W68933  24.056  17.361  16.593
68069W        W68934  22.556  16.795  16.825
68070W        W68935  21.915  16.323  16.396
68071W        W68936  22.951  16.295  17.588
68072W        W68937  25.222  16.078  17.842
68073W        W68938  22.838  17.522  16.287
68074W        W68939  23.959  17.211  17.421
68075W        W68940  23.179  15.851  16.646
68076W        W68941  23.471  16.635  16.289
68077W        W68942  24.468  17.408  18.137
68078W        W68943  23.547  16.728  18.147
68079W        W68944  23.528  16.444  17.625
68080W        W68945  21.937  15.835  18.147
68081W        W68946  24.769  17.370  17.746
68082W        W68947  22.350  14.952  15.744
68083W        W68948  22.877  17.210  16.743
68084W        W68949  25.340  16.993  16.033
68085W        W68950  24.753  15.393  16.600
68086W        W68951  25.038  15.346  14.695
68087W        W68952  25.503  16.147  17.001
68088W        W68953  23.470  17.854  16.754
68089W        W68954  25.244  17.320  15.192
68090W        W68955  22.373  18.106  14.946
68091W        W68956  22.766  18.152  15.622
68092W        W68957  22.563  14.906  17.048
68093W        W68958  25.186  15.924  17.323
68094W        W68959  24.591  16.346  15.782
68095W        W68960  24.557  16.034  14.809
68096W        W68961  23.765  17.178  16.949
68097W        W68962  23.571  15.508  16.148
68098W        W68963  24.171  17.595  17.142
68099W        W68964  25.042  16.386  15.564
68100W        W68965  23.944  15.044  15.580
68101W        W68966  22.601  17.738  15.263
68102W        W68967  21.972  15.237  15.862
68103W        W68968  24.758  15.844  16.336
68104W        W68969  22.216  17.461  16.251
68105W        W68970  23.557  17.811  15.121
68106W        W68971  24.949  15.837  14.585
68107W        W68972  21.972  17.595  16.749
68108W        W68973  22.763  17.167  17.229
68109W        W68974  23.136  16.527  15.848
68110W        W68975  23.158  14.932  16.941
68111W        W68976  25.387  14.694  16.238
68112W        W68977  22.606  16.566  14.706
68113W        W68978  22.261  15.599  14.885
68114W        W68979  22.323  17.555  15.679
68115W        W68980  23.454  17.038  15.927
68116W        W68981  24.786  17.897  17.641
68117W        W68982  23.712  15.539  15.325
68118W        W68983  25.095  17.937  16.097
68119W        W68984  24.772  15.790  17.695
68120W        W68985  25.485  17.446  15.829
68121W        W68986  24.112  16.738  17.313
68122W        W68987  21.878  16.289  15.519
68123W        W68988  22.989  16.704  17.092
68124W        W68989  24.193  15.968  15.470
68125W        W68990  24.070  16.458  15.574
68126W        W68991  22.413  15.878  17.048
68127W        W68992  22.398  15.754  17.970
68128W        W68993  22.288  14.671  16.129
68129W        W68994  24.056  15.018  16.690
68130W        W68995  23.704  15.203  17.853
68131W        W68996  24.059  15.352  15.031
68132W        W68997  25.242  17.745  17.785
68133W        W68998  24.209  14.826  17.824
68134W        W68999  25.228  17.127  17.946
68135W        W69000  24.658  15.294  17.542
68136W        W69001  24.458  15.232  15.812
68137W        W69002  24.851  16.366  18.216
68138W        W69003  22.591  17.942  16.202
68139W        W69004  23.249  15.659  15.188
68140W        W69005  22.818  14.943  17.852
68141W        W69006  24.870  15.427  15.533
68142W        W69007  25.237  15.909  15.478
68143W        W69008  22.980  18.126  17.949
68144W        W69009  22.906  14.662  15.184
68145W        W69010  25.227  15.196  16.219
68146W        W69011  25.377  17.445  14.664
68147W        W69012  22.284  16.648  16.366
68148W        W69013  24.201  15.235  14.596
68149W        W69014  25.335  17.567  16.316
68150W        W69015  25.374  14.761  17.066
68151W        W69016  23.819  15.973  17.620
68152W        W69017  23.912  17.312  15.323
68153W        W69018  24.312  16.606  18.063
68154W        W69019  23.986  14.583  16.372
68155W        W69020  22.598  15.486  16.435
68156W        W69021  22.152  16.686  17.209
68157W        W69022  24.011  17.879  15.915
68158W        W69023  25.205  15.476  16.787
68159W        W69024  23.842  17.823  17.554
68160W        W69025  25.185  16.882  14.759
68161W        W69026  23.620  16.365  15.820
68162W        W69027  25.472  14.876  17.561
68163W        W69028  23.621  16.711  17.155
68164W        W69029  23.838  15.597  16.600
68165W        W69030  24.690  15.895  15.438
68166W        W69031  24.977  15.628  15.080
68167W        W69032  24.786  17.668  15.469
68168W        W69033  24.620  17.271  16.265
68169W        W69034  24.516  16.350  15.243
68170W        W69035  23.949  16.560  16.229
68171W        W69036  24.830  16.348  16.296
68172W        W69037  22.205  15.363  16.720
68173W        W69038  24.983  16.415  17.547
68174W        W69039  25.334  18.033  16.693
68175W        W69040  23.264  17.477  16.095
68176W        W69041  24.271  18.010  17.419
68177W        W69042  24.265  15.340  17.183
68178W        W69043  23.472  18.048  17.244
68179W        W69044  25.169  15.002  15.710
68180W        W69045  24.960  16.321  17.011
68181W        W69046  21.943  15.642  17.049
68182W        W69047  24.803  15.437  16.067
68183W        W69048  25.214  15.588  17.844
68184W        W69049  24.099  17.287  16.062
68185W        W69050  23.355  17.878  15.675
68186W        W69051  22.470  15.058  14.933
68187W        W69052  23.574  14.712  16.743
68188W        W69053  22.602  17.832  14.591
68189W        W69054  22.976  16.298  15.342
68190W        W69055  23.630  16.927  17.655
68191W        W69056  23.460  15.285  15.645
68192W        W69057  24.816  14.882  16.073
68193W        W69058  24.536  18.164  16.401
68194W        W69059  23.948  17.812  16.741
68195W        W69060  23.344  16.849  16.702
68196W        W69061  25.114  17.572  16.828
68197W        W69062  22.808  15.075  15.597
68198W        W69063  23.330  17.372  16.557
68199W        W69064  22.813  15.303  14.622
68200W        W69065  23.614  15.912  17.016
68201W        W69066  24.462  14.778  16.886
68202W        W69067  21.882  16.621  16.771
68203W        W69068  23.586  16.439  14.929
68204W        W69069  22.854  14.754  14.699
68205W        W69070  23.592  15.835  15.750
68206W        W69071  24.562  14.811  17.449
68207W        W69072  23.150  16.823  17.558
68208W        W69073  23.954  16.605  17.775
68209W        W69074  24.571  16.635  17.668
68210W        W69075  23.855  14.775  18.173
68211W        W69076  23.077  15.391  16.566
68212W        W69077  22.503  15.347  15.964
68213W        W69078  22.289  18.059  15.640
68214W        W69079  23.621  17.389  17.765
68215W        W69080  22.656  16.874  15.124
68216W        W69081  24.336  16.259  16.345
68217W        W69082  24.616  16.058  16.744
68218W        W69083  23.821  16.732  16.678
68219W        W69084  24.291  17.106  14.810
68220W        W69085  23.963  15.127  16.138
68221W        W69086  25.442  15.405  15.406
68222W        W69087  21.936  17.994  17.437
68223W        W69088  22.353  17.220  16.969
68224W        W69089  21.920  18.066  15.201
68225W        W69090  23.819  15.336  17.007
68226W        W69091  23.182  17.359  14.856
68227W        W69092  25.087  17.741  15.042
68228W        W69093  24.062  16.394  15.056
68229W        W69094  22.905  15.585  15.573
68230W        W69095  23.737  15.495  14.625
68231W        W69096  24.321  17.060  17.803
68232W        W69097  24.674  14.966  15.420
68233W        W69098  22.004  14.814  14.868
68234W        W69099  23.290  17.133  17.158
68235W        W69100  23.089  17.049  16.250
68236W        W69101  22.831  17.001  14.648
68237W        W69102  22.072  17.242  15.416
68238W        W69103  22.576  16.312  17.858
68239W        W69104  23.280  14.872  18.044
68240W        W69105  23.989  15.014  17.400
68241W        W69106  23.184  14.782  15.681
68242W        W69107  24.243  14.859  15.186
68243W        W69108  22.188  14.791  16.763
68244W        W69109  22.236  15.754  16.133
68245W        W69110  24.925  14.862  16.539
68246W        W69111  22.347  15.360  15.353
68247W        W69112  24.918  15.048  16.969
68248W        W69113  25.314  16.251  14.654
68249W        W69114  22.606  15.009  16.473
68250W        W69115  23.720  15.581  17.413
68251W        W69116  21.868  15.271  14.891
68252W        W69117  22.654  16.660  17.452
68253W        W69118  24.012  16.058  16.631
68254W        W69119  23.879  18.137  14.927
68255W        W69120  22.025  16.644  14.624
68256W        W69121  22.760  17.055  17.750
68257W        W69122  22.281  16.222  17.381
68258W        W69123  23.272  16.327  17.175
68259W        W69124  25.040  14.686  17.437
68260W        W69125  25.438  16.296  17.428
68261W        W69126  25.426  16.496  15.114
68262W        W69127  24.289  16.828  15.213
68263W        W69128  24.763  18.128  14.908
68264W        W69129  23.940  16.118  18.050
68265W        W69130  22.270  17.085  18.090
68266W        W69131  25.476  15.007  18.042
68267W        W69132  25.194  15.935  16.663
68268W        W69133  23.502  18.065  18.140
68269W        W69134  23.357  14.694  14.867
68270W        W69135  24.896  17.293  14.810
68271W        W69136  22.665  15.386  17.696
68272W        W69137  23.099  17.380  17.558
68273W        W69138  25.225  15.371  17.356
68274W        W69139  24.436  18.030  15.324
68275W        W69140  24.675  16.649  16.691
68276W        W69141  22.925  15.065  17.358
68277W        W69142  23.394  16.134  18.115
68278W        W69143  22.897  17.313  15.309
68279W        W69144  24.652  16.811  15.573
68280W        W69145  22.420  15.437  17.297
68281W        W69146  23.749  17.499  15.761
68282W        W69147  25.499  16.059  15.942
68283W        W69148  23.721  14.692  17.661
68284W        W69149  24.501  17.397  16.740
68285W        W69150  24.804  17.741  16.448
68286W        W69151  24.023  17.543  14.876
68287W        W69152  22.033  17.435  17.718
68288W        W69153  22.776  15.427  16.956
68289W        W69154  22.746  14.775  16.066
68290W        W69155  24.367  15.617  16.758
68291W        W69156  23.165  16.788  14.958
68292W        W69157  25.163  16.730  16.457
68293W        W69158  22.490  17.488  17.880
68294W        W69159  24.877  18.170  15.677
68295W        W69160  22.976  15.190  16.122
68296W        W69161  22.745  16.683  16.212
68297W        W69162  23.058  18.094  16.962
68298W        W69163  25.125  18.190  17.994
68299W        W69164  24.284  16.378  16.927
68300W        W69165  22.133  16.176  14.842
68301W        W69166  25.267  17.834  15.539
68302W        W69167  25.104  15.158  15.158
68303W        W69168  23.243  14.677  17.561
68304W        W69169  24.949  17.479  16.019
68305W        W69170  24.978  16.035  15.924
68306W        W69171  23.095  15.708  16.140
68307W        W69172  23.340  15.970  17.464
68308W        W69173  24.451  17.123  17.327
68309W        W69174  23.101  15.577  17.439
68310W        W69175  23.080  18.043  16.055
68311W        W69176  22.397  18.002  17.689
68312W        W69177  22.509  17.363  14.819
68313W        W69178  25.026  17.121  15.629
68314W        W69179  22.630  15.913  17.515
68315W        W69180  25.403  15.843  14.996
68316W        W69181  23.148  16.900  15.467
68317W        W69182  24.247  16.282  17.548
68318W        W69183  24.138  15.910  17.092
68319W        W69184  22.698  16.282  17.121
68320W        W69185  24.908  18.170  16.950
68321W        W69186  24.699  14.804  17.944
68322W        W69187  22.363  14.954  17.531
68323W        W69188  22.702  15.977  16.584
68324W        W69189  23.071  15.791  14.706
68325W        W69190  21.874  17.550  17.251
68326W        W69191  23.459  16.259  16.694
68327W        W69192  23.282  15.284  14.799
68328W        W69193  22.417  16.100  15.580
68329W        W69194  22.188  17.952  17.017
68330W        W69195  24.983  16.178  15.125
68331W        W69196  25.078  15.094  17.811
68332W        W69197  24.514  17.303  15.774
68333W        W69198  22.112  16.227  17.951
68334W        W69199  25.078  14.691  15.247
68335W        W69200  24.598  17.166  15.258
68336W        W69201  23.500  16.224  15.343
68337W        W69202  24.687  15.028  14.866
68338W        W69203  24.752  15.635  17.052
68339W        W69204  22.461  16.228  16.259
68340W        W69205  22.755  17.167  15.908
68341W        W69206  24.518  15.787  15.873
68342W        W69207  23.541  15.166  16.569
68343W        W69208  25.503  17.077  17.080
68344W        W69209  25.421  15.064  16.641
68345W        W69210  21.960  17.894  16.017
68346W        W69211  22.469  17.081  15.553
68347W        W69212  22.384  14.698  18.106
68348W        W69213  23.503  17.551  18.208
68349W        W69214  25.258  16.519  15.998
68350W        W69215  24.612  16.696  14.878
68351W        W69216  23.907  18.217  17.090
68352W        W69217  24.764  16.939  18.127
68353W        W69218  23.579  14.649  15.407
68354W        W69219  24.292  15.518  16.266
68355W        W69220  21.978  17.105  16.598
68356W        W69221  23.231  15.067  15.239
68357W        W69222  23.035  16.551  18.088
68358W        W69223  24.029  15.532  15.802
68359W        W69224  24.234  16.942  16.924
68360W        W69225  22.388  17.547  17.359
68361W        W69226  22.979  17.530  18.082
68362W        W69227  22.830  15.327  15.096
68363W        W69228  24.347  15.469  15.421
68364W        W69229  24.305  17.577  17.658
68365W        W69230  22.990  16.169  16.257
68366W        W69231  22.645  17.867  17.122
68367W        W69232  25.390  17.984  14.723
68368W        W69233  22.253  16.656  17.719
68369W        W69234  24.248  16.918  16.407
68370W        W69235  22.684  16.567  15.649
68371W        W69236  23.055  17.574  17.044
68372W        W69237  23.433  14.993  16.085
68373W        W69238  22.044  16.977  15.015
68374W        W69239  23.563  15.928  14.885
68375W        W69240  22.209  16.477  15.904
68376W        W69241  23.499  15.119  17.368
68377W        W69242  25.171  14.828  14.795
68378W        W69243  25.264  16.574  17.894
68379W        W69244  23.918  17.831  18.046
68380W        W69245  25.476  16.925  17.568
68381W        W69246  24.884  17.723  18.179
68382W        W69247  22.623  18.179  16.657
68383W        W69248  25.482  16.801  15.531
68384W        W69249  24.012  16.068  16.044
68385W        W69250  23.779  14.680  15.934
68386W        W69251  22.838  17.664  15.771
68387W        W69252  23.337  15.405  16.996
68388W        W69253  23.037  14.774  16.465
68389W        W69254  22.100  17.596  15.013
68390W        W69255  23.916  16.960  15.731
68391W        W69256  22.791  17.755  17.610
68392W        W69257  22.268  16.578  15.306
68393W        W69258  22.153  15.121  16.305
68394W        W69259  23.701  17.086  16.362
68395W        W69260  21.953  14.940  15.382
68396W        W69261  24.617  16.146  17.309
68397W        W69262  24.494  15.532  14.881
68398W        W69263  25.011  17.204  16.529
68399W        W69264  23.672  17.688  16.360
68400W        W69265  23.084  17.792  15.271
68401W        W69266  24.366  14.695  14.701
68402W        W69267  22.166  17.955  16.442
68403W        W69268  24.363  15.713  18.077
68404W        W69269  22.346  15.243  18.076
68405W        W69270  22.077  15.843  15.409
68406W        W69271  22.768  15.832  15.134
68407W        W69272  24.531  16.159  17.951
68408W        W69273  22.874  16.440  16.660
68409W        W69274  24.348  14.726  15.780
68410W        W69275  23.479  18.157  16.283
68411W        W69276  24.693  17.619  17.220
68412W        W69277  24.277  17.768  16.331
68413W        W69278  24.296  16.748  15.925
68414W        W69279  23.758  14.973  14.996
68415W        W69280  25.439  14.601  15.718
68416W        W69281  23.127  16.236  14.881
68417W        W69282  25.293  15.573  15.871
68418W        W69283  23.985  16.743  14.748
68419W        W69284  24.921  16.943  17.496
68420W        W69285  24.575  17.644  14.963
68421W        W69286  23.190  15.319  17.869
68422W        W69287  23.010  15.903  17.110
68423W        W69288  25.102  17.398  17.387
68424W        W69289  24.202  15.348  17.764
68425W        W69290  22.046  15.819  17.541
68426W        W69291  23.806  16.296  17.267
68427W        W69292  22.163  17.054  15.924
68428W        W69293  22.310  16.351  16.814
68429W        W69294  24.627  16.637  17.164
68430W        W69295  24.399  18.017  17.975
68431W        W69296  24.295  15.756  17.528
68432W        W69297  24.572  17.810  15.933
68433W        W69298  23.574  17.530  17.256
68434W        W69299  23.059  17.885  16.525
68435W        W69300  24.864  17.056  16.944
68436W        W69301  23.914  17.128  18.081
68437W        W69302  22.519  17.081  16.420
68438W        W69303  24.865  16.840  16.065
68439W        W69304  24.506  17.906  16.816
68440W        W69305  22.484  17.635  16.686
68441W        W69306  23.505  15.687  17.896
68442W        W69307  23.956  17.853  15.407
68443W        W69308  23.264  17.108  18.045
68444W        W69309  23.390  17.346  15.422
68445W        W69310  22.611  16.086  14.681
68446W        W69311  21.950  18.172  21.580
68447W        W69312  22.326  17.065  21.103
68448W        W69313  25.031  16.795  18.873
68449W        W69314  25.161  17.880  20.900
68450W        W69315  23.079  17.871  18.426
68451W        W69316  23.162  16.023  19.409
68452W        W69317  22.677  15.871  19.573
68453W        W69318  23.668  16.686  19.007
68454W        W69319  23.343  17.778  21.362
68455W        W69320  21.992  15.339  21.325
68456W        W69321  22.754  14.619  21.127
68457W        W69322  24.448  15.007  20.014
68458W        W69323  24.097  15.878  18.584
68459W        W69324  24.667  15.312  21.675
68460W        W69325  22.033  15.104  20.800
68461W        W69326  22.132  17.723  21.821
68462W        W69327  23.654  17.113  18.553
68463W        W69328  22.086  15.896  20.246
68464W        W69329  22.979  15.787  21.483
68465W        W69330  25.438  15.646  19.982
68466W        W69331  25.202  16.689  20.841
68467W        W69332  23.510  16.022  19.868
68468W        W69333  24.056  17.361  20.237
68469W        W69334  22.556  16.795  20.469
68470W        W69335  21.915  16.323  20.040
68471W        W69336  22.951  16.295  21.232
68472W        W69337  25.222  16.078  21.486
68473W        W69338  22.838  17.522  19.931
68474W        W69339  23.959  17.211  21.065
68475W        W69340  23.179  15.851  20.290
68476W        W69341  23.471  16.635  19.933
68477W        W69342  24.468  17.408  21.781
68478W        W69343  23.547  16.728  21.791
68479W        W69344  23.528  16.444  21.269
68480W        W69345  21.937  15.835  21.791
68481W        W69346  24.769  17.370  21.390
68482W        W69347  22.350  14.952  19.388
68483W        W69348  22.877  17.210  20.387
68484W        W69349  25.340  16.993  19.677
68485W        W69350  24.753  15.393  20.244
68486W        W69351  25.038  15.346  18.339
68487W        W69352  25.503  16.147  20.645
68488W        W69353  23.470  17.854  20.398
68489W        W69354  25.244  17.320  18.836
68490W        W69355  22.373  18.106  18.590
68491W        W69356  22.766  18.152  19.266
68492W        W69357  22.563  14.906  20.692
68493W        W69358  25.186  15.924  20.967
68494W        W69359  24.591  16.346  19.426
68495W        W69360  24.557  16.034  18.453
68496W        W69361  23.765  17.178  20.593
68497W        W69362  23.571  15.508  19.792
68498W        W69363  24.171  17.595  20.786
68499W        W69364  25.042  16.386  19.208
68500W        W69365  23.944  15.044  19.224
68501W        W69366  22.601  17.738  18.907
68502W        W69367  21.972  15.237  19.506
68503W        W69368  24.758  15.844  19.980
68504W        W69369  22.216  17.461  19.895
68505W        W69370  23.557  17.811  18.765
68506W        W69371  24.949  15.837  18.229
68507W        W69372  21.972  17.595  20.393
68508W        W69373  22.763  17.167  20.873
68509W        W69374  23.136  16.527  19.492
68510W        W69375  23.158  14.932  20.585
68511W        W69376  25.387  14.694  19.882
68512W        W69377  22.606  16.566  18.350
68513W        W69378  22.261  15.599  18.529
68514W        W69379  22.323  17.555  19.323
68515W        W69380  23.454  17.038  19.571
68516W        W69381  24.786  17.897  21.285
68517W        W69382  23.712  15.539  18.969
68518W        W69383  25.095  17.937  19.741
68519W        W69384  24.772  15.790  21.339
68520W        W69385  25.485  17.446  19.473
68521W        W69386  24.112  16.738  20.957
68522W        W69387  21.878  16.289  19.163
68523W        W69388  22.989  16.704  20.736
68524W        W69389  24.193  15.968  19.114
68525W        W69390  24.070  16.458  19.218
68526W        W69391  22.413  15.878  20.692
68527W        W69392  22.398  15.754  21.614
68528W        W69393  22.288  14.671  19.773
68529W        W69394  24.056  15.018  20.334
68530W        W69395  23.704  15.203  21.497
68531W        W69396  24.059  15.352  18.675
68532W        W69397  25.242  17.745  21.429
68533W        W69398  24.209  14.826  21.468
68534W        W69399  25.228  17.127  21.590
68535W        W69400  24.658  15.294  21.186
68536W        W69401  24.458  15.232  19.456
68537W        W69402  24.851  16.366  21.860
68538W        W69403  22.591  17.942  19.846
68539W        W69404  23.249  15.659  18.832
68540W        W69405  22.818  14.943  21.496
68541W        W69406  24.870  15.427  19.177
68542W        W69407  25.237  15.909  19.122
68543W        W69408  22.980  18.126  21.593
68544W        W69409  22.906  14.662  18.828
68545W        W69410  25.227  15.196  19.863
68546W        W69411  25.377  17.445  18.308
68547W        W69412  22.284  16.648  20.010
68548W        W69413  24.201  15.235  18.240
68549W        W69414  25.335  17.567  19.960
68550W        W69415  25.374  14.761  20.710
68551W        W69416  23.819  15.973  21.264
68552W        W69417  23.912  17.312  18.967
68553W        W69418  24.312  16.606  21.707
68554W        W69419  23.986  14.583  20.016
68555W        W69420  22.598  15.486  20.079
68556W        W69421  22.152  16.686  20.853
68557W        W69422  24.011  17.879  19.559
68558W        W69423  25.205  15.476  20.431
68559W        W69424  23.842  17.823  21.198
68560W        W69425  25.185  16.882  18.403
68561W        W69426  23.620  16.365  19.464
68562W        W69427  25.472  14.876  21.205
68563W        W69428  23.621  16.711  20.799
68564W        W69429  23.838  15.597  20.244
68565W        W69430  24.690  15.895  19.082
68566W        W69431  24.977  15.628  18.724
68567W        W69432  24.786  17.668  19.113
68568W        W69433  24.620  17.271  19.909
68569W        W69434  24.516  16.350  18.887
68570W        W69435  23.949  16.560  19.873
68571W        W69436  24.830  16.348  19.940
68572W        W69437  22.205  15.363  20.364
68573W        W69438  24.983  16.415  21.191
68574W        W69439  25.334  18.033  20.337
68575W        W69440  23.264  17.477  19.739
68576W        W69441  24.271  18.010  21.063
68577W        W69442  24.265  15.340  20.827
68578W        W69443  23.472  18.048  20.888
68579W        W69444  25.169  15.002  19.354
68580W        W69445  24.960  16.321  20.655
68581W        W69446  21.943  15.642  20.693
68582W        W69447  24.803  15.437  19.711
68583W        W69448  25.214  15.588  21.488
68584W        W69449  24.099  17.287  19.706
68585W        W69450  23.355  17.878  19.319
68586W        W69451  23.574  14.712  20.387
68587W        W69452  22.602  17.832  18.235
68588W        W69453  22.976  16.298  18.986
68589W        W69454  23.630  16.927  21.299
68590W        W69455  23.460  15.285  19.289
68591W        W69456  24.816  14.882  19.717
68592W        W69457  24.536  18.164  20.045
68593W        W69458  23.948  17.812  20.385
68594W        W69459  23.344  16.849  20.346
68595W        W69460  25.114  17.572  20.472
68596W        W69461  22.808  15.075  19.241
68597W        W69462  23.330  17.372  20.201
68598W        W69463  22.813  15.303  18.266
68599W        W69464  23.614  15.912  20.660
68600W        W69465  24.462  14.778  20.530
68601W        W69466  21.882  16.621  20.415
68602W        W69467  23.586  16.439  18.573
68603W        W69468  22.854  14.754  18.343
68604W        W69469  23.592  15.835  19.394
68605W        W69470  24.562  14.811  21.093
68606W        W69471  23.150  16.823  21.202
68607W        W69472  23.954  16.605  21.419
68608W        W69473  24.571  16.635  21.312
68609W        W69474  23.855  14.775  21.817
68610W        W69475  23.077  15.391  20.210
68611W        W69476  22.503  15.347  19.608
68612W        W69477  22.289  18.059  19.284
68613W        W69478  23.621  17.389  21.409
68614W        W69479  22.656  16.874  18.768
68615W        W69480  24.336  16.259  19.989
68616W        W69481  24.616  16.058  20.388
68617W        W69482  23.821  16.732  20.322
68618W        W69483  24.291  17.106  18.454
68619W        W69484  23.963  15.127  19.782
68620W        W69485  25.442  15.405  19.050
68621W        W69486  21.936  17.994  21.081
68622W        W69487  22.353  17.220  20.613
68623W        W69488  21.920  18.066  18.845
68624W        W69489  23.819  15.336  20.651
68625W        W69490  23.182  17.359  18.500
68626W        W69491  25.087  17.741  18.686
68627W        W69492  24.062  16.394  18.700
68628W        W69493  22.905  15.585  19.217
68629W        W69494  23.737  15.495  18.269
68630W        W69495  24.321  17.060  21.447
68631W        W69496  24.674  14.966  19.064
68632W        W69497  22.004  14.814  18.512
68633W        W69498  23.290  17.133  20.802
68634W        W69499  23.089  17.049  19.894
68635W        W69500  22.831  17.001  18.292
68636W        W69501  22.072  17.242  19.060
68637W        W69502  22.576  16.312  21.502
68638W        W69503  23.280  14.872  21.688
68639W        W69504  23.989  15.014  21.044
68640W        W69505  23.184  14.782  19.325
68641W        W69506  24.243  14.859  18.830
68642W        W69507  22.188  14.791  20.407
68643W        W69508  22.236  15.754  19.777
68644W        W69509  24.925  14.862  20.183
68645W        W69510  22.347  15.360  18.997
68646W        W69511  24.918  15.048  20.613
68647W        W69512  25.314  16.251  18.298
68648W        W69513  22.606  15.009  20.117
68649W        W69514  23.720  15.581  21.057
68650W        W69515  21.868  15.271  18.535
68651W        W69516  22.654  16.660  21.096
68652W        W69517  24.012  16.058  20.275
68653W        W69518  23.879  18.137  18.571
68654W        W69519  22.025  16.644  18.268
68655W        W69520  22.760  17.055  21.394
68656W        W69521  22.281  16.222  21.025
68657W        W69522  23.272  16.327  20.819
68658W        W69523  25.040  14.686  21.081
68659W        W69524  25.438  16.296  21.072
68660W        W69525  25.426  16.496  18.758
68661W        W69526  24.289  16.828  18.857
68662W        W69527  24.763  18.128  18.552
68663W        W69528  23.940  16.118  21.694
68664W        W69529  22.270  17.085  21.734
68665W        W69530  25.476  15.007  21.686
68666W        W69531  25.194  15.935  20.307
68667W        W69532  23.502  18.065  21.784
68668W        W69533  23.357  14.694  18.511
68669W        W69534  24.896  17.293  18.454
68670W        W69535  22.665  15.386  21.340
68671W        W69536  23.099  17.380  21.202
68672W        W69537  25.225  15.371  21.000
68673W        W69538  24.436  18.030  18.968
68674W        W69539  24.675  16.649  20.335
68675W        W69540  22.925  15.065  21.002
68676W        W69541  23.394  16.134  21.759
68677W        W69542  22.897  17.313  18.953
68678W        W69543  24.652  16.811  19.217
68679W        W69544  22.420  15.437  20.941
68680W        W69545  23.749  17.499  19.405
68681W        W69546  25.499  16.059  19.586
68682W        W69547  23.721  14.692  21.305
68683W        W69548  24.501  17.397  20.384
68684W        W69549  24.804  17.741  20.092
68685W        W69550  24.023  17.543  18.520
68686W        W69551  22.033  17.435  21.362
68687W        W69552  22.776  15.427  20.600
68688W        W69553  22.746  14.775  19.710
68689W        W69554  24.367  15.617  20.402
68690W        W69555  23.165  16.788  18.602
68691W        W69556  25.163  16.730  20.101
68692W        W69557  22.490  17.488  21.524
68693W        W69558  24.877  18.170  19.321
68694W        W69559  22.976  15.190  19.766
68695W        W69560  22.745  16.683  19.856
68696W        W69561  23.058  18.094  20.606
68697W        W69562  25.125  18.190  21.638
68698W        W69563  24.284  16.378  20.571
68699W        W69564  22.133  16.176  18.486
68700W        W69565  25.267  17.834  19.183
68701W        W69566  25.104  15.158  18.802
68702W        W69567  23.243  14.677  21.205
68703W        W69568  24.949  17.479  19.663
68704W        W69569  24.978  16.035  19.568
68705W        W69570  23.095  15.708  19.784
68706W        W69571  23.340  15.970  21.108
68707W        W69572  24.451  17.123  20.971
68708W        W69573  23.101  15.577  21.083
68709W        W69574  23.080  18.043  19.699
68710W        W69575  22.397  18.002  21.333
68711W        W69576  22.509  17.363  18.463
68712W        W69577  25.026  17.121  19.273
68713W        W69578  22.630  15.913  21.159
68714W        W69579  25.403  15.843  18.640
68715W        W69580  23.148  16.900  19.111
68716W        W69581  24.247  16.282  21.192
68717W        W69582  24.138  15.910  20.736
68718W        W69583  22.698  16.282  20.765
68719W        W69584  24.908  18.170  20.594
68720W        W69585  24.699  14.804  21.588
68721W        W69586  22.363  14.954  21.175
68722W        W69587  22.702  15.977  20.228
68723W        W69588  23.071  15.791  18.350
68724W        W69589  21.874  17.550  20.895
68725W        W69590  23.459  16.259  20.338
68726W        W69591  23.282  15.284  18.443
68727W        W69592  22.417  16.100  19.224
68728W        W69593  22.188  17.952  20.661
68729W        W69594  24.983  16.178  18.769
68730W        W69595  25.078  15.094  21.455
68731W        W69596  24.514  17.303  19.418
68732W        W69597  22.112  16.227  21.595
68733W        W69598  25.078  14.691  18.891
68734W        W69599  24.598  17.166  18.902
68735W        W69600  23.500  16.224  18.987
68736W        W69601  24.687  15.028  18.510
68737W        W69602  24.752  15.635  20.696
68738W        W69603  22.461  16.228  19.903
68739W        W69604  22.755  17.167  19.552
68740W        W69605  24.518  15.787  19.517
68741W        W69606  23.541  15.166  20.213
68742W        W69607  25.503  17.077  20.724
68743W        W69608  25.421  15.064  20.285
68744W        W69609  21.960  17.894  19.661
68745W        W69610  22.469  17.081  19.197
68746W        W69611  22.384  14.698  21.750
68747W        W69612  23.503  17.551  21.852
68748W        W69613  25.258  16.519  19.642
68749W        W69614  24.612  16.696  18.522
68750W        W69615  23.907  18.217  20.734
68751W        W69616  24.764  16.939  21.771
68752W        W69617  23.579  14.649  19.051
68753W        W69618  24.292  15.518  19.910
68754W        W69619  21.978  17.105  20.242
68755W        W69620  23.231  15.067  18.883
68756W        W69621  23.035  16.551  21.732
68757W        W69622  24.029  15.532  19.446
68758W        W69623  24.234  16.942  20.568
68759W        W69624  22.388  17.547  21.003
68760W        W69625  22.979  17.530  21.726
68761W        W69626  22.830  15.327  18.740
68762W        W69627  24.347  15.469  19.065
68763W        W69628  24.305  17.577  21.302
68764W        W69629  22.990  16.169  19.901
68765W        W69630  22.645  17.867  20.766
68766W        W69631  25.390  17.984  18.367
68767W        W69632  22.253  16.656  21.363
68768W        W69633  24.248  16.918  20.051
68769W        W69634  22.684  16.567  19.293
68770W        W69635  23.055  17.574  20.688
68771W        W69636  23.433  14.993  19.729
68772W        W69637  22.044  16.977  18.659
68773W        W69638  23.563  15.928  18.529
68774W        W69639  22.209  16.477  19.548
68775W        W69640  23.499  15.119  21.012
68776W        W69641  25.171  14.828  18.439
68777W        W69642  25.264  16.574  21.538
68778W        W69643  23.918  17.831  21.690
68779W        W69644  25.476  16.925  21.212
68780W        W69645  24.884  17.723  21.823
68781W        W69646  22.623  18.179  20.301
68782W        W69647  25.482  16.801  19.175
68783W        W69648  24.012  16.068  19.688
68784W        W69649  23.779  14.680  19.578
68785W        W69650  22.838  17.664  19.415
68786W        W69651  23.337  15.405  20.640
68787W        W69652  23.037  14.774  20.109
68788W        W69653  22.100  17.596  18.657
68789W        W69654  23.916  16.960  19.375
68790W        W69655  22.791  17.755  21.254
68791W        W69656  22.268  16.578  18.950
68792W        W69657  22.153  15.121  19.949
68793W        W69658  23.701  17.086  20.006
68794W        W69659  21.953  14.940  19.026
68795W        W69660  24.617  16.146  20.953
68796W        W69661  24.494  15.532  18.525
68797W        W69662  25.011  17.204  20.173
68798W        W69663  23.672  17.688  20.004
68799W        W69664  23.084  17.792  18.915
68800W        W69665  24.366  14.695  18.345
68801W        W69666  22.166  17.955  20.086
68802W        W69667  24.363  15.713  21.721
68803W        W69668  22.346  15.243  21.720
68804W        W69669  22.077  15.843  19.053
68805W        W69670  22.768  15.832  18.778
68806W        W69671  24.531  16.159  21.595
68807W        W69672  22.874  16.440  20.304
68808W        W69673  24.348  14.726  19.424
68809W        W69674  23.479  18.157  19.927
68810W        W69675  24.693  17.619  20.864
68811W        W69676  24.277  17.768  19.975
68812W        W69677  24.296  16.748  19.569
68813W        W69678  23.758  14.973  18.640
68814W        W69679  25.439  14.601  19.362
68815W        W69680  23.127  16.236  18.525
68816W        W69681  25.293  15.573  19.515
68817W        W69682  23.985  16.743  18.392
68818W        W69683  24.921  16.943  21.140
68819W        W69684  24.575  17.644  18.607
68820W        W69685  23.190  15.319  21.513
68821W        W69686  23.010  15.903  20.754
68822W        W69687  25.102  17.398  21.031
68823W        W69688  24.202  15.348  21.408
68824W        W69689  22.046  15.819  21.185
68825W        W69690  23.806  16.296  20.911
68826W        W69691  22.163  17.054  19.568
68827W        W69692  22.310  16.351  20.458
68828W        W69693  24.627  16.637  20.808
68829W        W69694  24.399  18.017  21.619
68830W        W69695  24.295  15.756  21.172
68831W        W69696  24.572  17.810  19.577
68832W        W69697  23.574  17.530  20.900
68833W        W69698  23.059  17.885  20.169
68834W        W69699  24.864  17.056  20.588
68835W        W69700  23.914  17.128  21.725
68836W        W69701  22.519  17.081  20.064
68837W        W69702  24.865  16.840  19.709
68838W        W69703  24.506  17.906  20.460
68839W        W69704  22.484  17.635  20.330
68840W        W69705  23.505  15.687  21.540
68841W        W69706  23.956  17.853  19.051
68842W        W69707  23.264  17.108  21.689
68843W        W69708  23.390  17.346  19.066
68844W        W69709  22.611  16.086  18.325
68845W        W69710  21.950  18.172  25.225
68846W        W69711  22.326  17.065  24.748
68847W        W69712  25.031  16.795  22.518
68848W        W69713  25.161  17.880  24.545
68849W        W69714  23.079  17.871  22.071
68850W        W69715  23.162  16.023  23.054
68851W        W69716  22.677  15.871  23.218
68852W        W69717  23.668  16.686  22.652
68853W        W69718  23.343  17.778  25.007
68854W        W69719  21.992  15.339  24.970
68855W        W69720  22.754  14.619  24.772
68856W        W69721  24.448  15.007  23.659
68857W        W69722  24.097  15.878  22.229
68858W        W69723  24.667  15.312  25.320
68859W        W69724  22.033  15.104  24.445
68860W        W69725  22.132  17.723  25.466
68861W        W69726  23.654  17.113  22.198
68862W        W69727  22.086  15.896  23.891
68863W        W69728  22.979  15.787  25.128
68864W        W69729  25.438  15.646  23.627
68865W        W69730  25.202  16.689  24.486
68866W        W69731  23.510  16.022  23.513
68867W        W69732  24.056  17.361  23.882
68868W        W69733  22.556  16.795  24.114
68869W        W69734  21.915  16.323  23.685
68870W        W69735  22.951  16.295  24.877
68871W        W69736  25.222  16.078  25.131
68872W        W69737  22.838  17.522  23.576
68873W        W69738  23.959  17.211  24.710
68874W        W69739  23.179  15.851  23.935
68875W        W69740  23.471  16.635  23.578
68876W        W69741  24.468  17.408  25.426
68877W        W69742  23.547  16.728  25.436
68878W        W69743  23.528  16.444  24.914
68879W        W69744  21.937  15.835  25.436
68880W        W69745  24.769  17.370  25.035
68881W        W69746  22.350  14.952  23.033
68882W        W69747  22.877  17.210  24.032
68883W        W69748  25.340  16.993  23.322
68884W        W69749  24.753  15.393  23.889
68885W        W69750  25.038  15.346  21.984
68886W        W69751  25.503  16.147  24.290
68887W        W69752  23.470  17.854  24.043
68888W        W69753  25.244  17.320  22.481
68889W        W69754  22.373  18.106  22.235
68890W        W69755  22.766  18.152  22.911
68891W        W69756  22.563  14.906  24.337
68892W        W69757  25.186  15.924  24.612
68893W        W69758  24.591  16.346  23.071
68894W        W69759  24.557  16.034  22.098
68895W        W69760  23.765  17.178  24.238
68896W        W69761  23.571  15.508  23.437
68897W        W69762  24.171  17.595  24.431
68898W        W69763  25.042  16.386  22.853
68899W        W69764  23.944  15.044  22.869
68900W        W69765  22.601  17.738  22.552
68901W        W69766  21.972  15.237  23.151
68902W        W69767  24.758  15.844  23.625
68903W        W69768  22.216  17.461  23.540
68904W        W69769  23.557  17.811  22.410
68905W        W69770  24.949  15.837  21.874
68906W        W69771  21.972  17.595  24.038
68907W        W69772  22.763  17.167  24.518
68908W        W69773  23.136  16.527  23.137
68909W        W69774  23.158  14.932  24.230
68910W        W69775  25.387  14.694  23.527
68911W        W69776  22.606  16.566  21.995
68912W        W69777  22.261  15.599  22.174
68913W        W69778  22.323  17.555  22.968
68914W        W69779  23.454  17.038  23.216
68915W        W69780  24.786  17.897  24.930
68916W        W69781  23.712  15.539  22.614
68917W        W69782  25.095  17.937  23.386
68918W        W69783  24.772  15.790  24.984
68919W        W69784  25.485  17.446  23.118
68920W        W69785  24.112  16.738  24.602
68921W        W69786  21.878  16.289  22.808
68922W        W69787  22.989  16.704  24.381
68923W        W69788  24.193  15.968  22.759
68924W        W69789  24.070  16.458  22.863
68925W        W69790  22.413  15.878  24.337
68926W        W69791  22.398  15.754  25.259
68927W        W69792  22.288  14.671  23.418
68928W        W69793  24.056  15.018  23.979
68929W        W69794  23.704  15.203  25.142
68930W        W69795  24.059  15.352  22.320
68931W        W69796  25.242  17.745  25.074
68932W        W69797  24.209  14.826  25.113
68933W        W69798  25.228  17.127  25.235
68934W        W69799  24.658  15.294  24.831
68935W        W69800  24.458  15.232  23.101
68936W        W69801  24.851  16.366  25.505
68937W        W69802  22.591  17.942  23.491
68938W        W69803  23.249  15.659  22.477
68939W        W69804  22.818  14.943  25.141
68940W        W69805  24.870  15.427  22.822
68941W        W69806  25.237  15.909  22.767
68942W        W69807  22.980  18.126  25.238
68943W        W69808  22.906  14.662  22.473
68944W        W69809  25.227  15.196  23.508
68945W        W69810  25.377  17.445  21.953
68946W        W69811  22.284  16.648  23.655
68947W        W69812  24.201  15.235  21.885
68948W        W69813  25.335  17.567  23.605
68949W        W69814  25.374  14.761  24.355
68950W        W69815  23.819  15.973  24.909
68951W        W69816  23.912  17.312  22.612
68952W        W69817  24.312  16.606  25.352
68953W        W69818  23.986  14.583  23.661
68954W        W69819  22.598  15.486  23.724
68955W        W69820  22.152  16.686  24.498
68956W        W69821  24.011  17.879  23.204
68957W        W69822  25.205  15.476  24.076
68958W        W69823  23.842  17.823  24.843
68959W        W69824  25.185  16.882  22.048
68960W        W69825  23.620  16.365  23.109
68961W        W69826  25.472  14.876  24.850
68962W        W69827  23.621  16.711  24.444
68963W        W69828  23.838  15.597  23.889
68964W        W69829  24.690  15.895  22.727
68965W        W69830  24.977  15.628  22.369
68966W        W69831  24.786  17.668  22.758
68967W        W69832  24.620  17.271  23.554
68968W        W69833  24.516  16.350  22.532
68969W        W69834  23.949  16.560  23.518
68970W        W69835  24.830  16.348  23.585
68971W        W69836  22.205  15.363  24.009
68972W        W69837  24.983  16.415  24.836
68973W        W69838  25.334  18.033  23.982
68974W        W69839  23.264  17.477  23.384
68975W        W69840  24.271  18.010  24.708
68976W        W69841  24.265  15.340  24.472
68977W        W69842  23.472  18.048  24.533
68978W        W69843  25.169  15.002  22.999
68979W        W69844  24.960  16.321  24.300
68980W        W69845  21.943  15.642  24.338
68981W        W69846  24.803  15.437  23.356
68982W        W69847  25.214  15.588  25.133
68983W        W69848  24.099  17.287  23.351
68984W        W69849  23.355  17.878  22.964
68985W        W69850  22.470  15.058  22.222
68986W        W69851  23.574  14.712  24.032
68987W        W69852  22.602  17.832  21.880
68988W        W69853  22.976  16.298  22.631
68989W        W69854  23.630  16.927  24.944
68990W        W69855  23.460  15.285  22.934
68991W        W69856  24.816  14.882  23.362
68992W        W69857  24.536  18.164  23.690
68993W        W69858  23.948  17.812  24.030
68994W        W69859  23.344  16.849  23.991
68995W        W69860  25.114  17.572  24.117
68996W        W69861  22.808  15.075  22.886
68997W        W69862  23.330  17.372  23.846
68998W        W69863  22.813  15.303  21.911
68999W        W69864  23.614  15.912  24.305
69000W        W69865  24.462  14.778  24.175
69001W        W69866  21.882  16.621  24.060
69002W        W69867  23.586  16.439  22.218
69003W        W69868  22.854  14.754  21.988
69004W        W69869  23.592  15.835  23.039
69005W        W69870  24.562  14.811  24.738
69006W        W69871  23.150  16.823  24.847
69007W        W69872  23.954  16.605  25.064
69008W        W69873  24.571  16.635  24.957
69009W        W69874  23.855  14.775  25.462
69010W        W69875  23.077  15.391  23.855
69011W        W69876  22.503  15.347  23.253
69012W        W69877  22.289  18.059  22.929
69013W        W69878  23.621  17.389  25.054
69014W        W69879  22.656  16.874  22.413
69015W        W69880  24.336  16.259  23.634
69016W        W69881  24.616  16.058  24.033
69017W        W69882  23.821  16.732  23.967
69018W        W69883  24.291  17.106  22.099
69019W        W69884  23.963  15.127  23.427
69020W        W69885  25.442  15.405  22.695
69021W        W69886  21.936  17.994  24.726
69022W        W69887  22.353  17.220  24.258
69023W        W69888  21.920  18.066  22.490
69024W        W69889  23.819  15.336  24.296
69025W        W69890  23.182  17.359  22.145
69026W        W69891  25.087  17.741  22.331
69027W        W69892  24.062  16.394  22.345
69028W        W69893  22.905  15.585  22.862
69029W        W69894  23.737  15.495  21.914
69030W        W69895  24.321  17.060  25.092
69031W        W69896  24.674  14.966  22.709
69032W        W69897  22.004  14.814  22.157
69033W        W69898  23.290  17.133  24.447
69034W        W69899  23.089  17.049  23.539
69035W        W69900  22.831  17.001  21.937
69036W        W69901  22.072  17.242  22.705
69037W        W69902  22.576  16.312  25.147
69038W        W69903  23.280  14.872  25.333
69039W        W69904  23.989  15.014  24.689
69040W        W69905  23.184  14.782  22.970
69041W        W69906  22.188  14.791  24.052
69042W        W69907  22.236  15.754  23.422
69043W        W69908  24.925  14.862  23.828
69044W        W69909  22.347  15.360  22.642
69045W        W69910  24.918  15.048  24.258
69046W        W69911  25.314  16.251  21.943
69047W        W69912  22.606  15.009  23.762
69048W        W69913  23.720  15.581  24.702
69049W        W69914  21.868  15.271  22.180
69050W        W69915  22.654  16.660  24.741
69051W        W69916  24.012  16.058  23.920
69052W        W69917  23.879  18.137  22.216
69053W        W69918  22.025  16.644  21.913
69054W        W69919  22.760  17.055  25.039
69055W        W69920  22.281  16.222  24.670
69056W        W69921  23.272  16.327  24.464
69057W        W69922  25.040  14.686  24.726
69058W        W69923  25.438  16.296  24.717
69059W        W69924  25.426  16.496  22.403
69060W        W69925  24.289  16.828  22.502
69061W        W69926  24.763  18.128  22.197
69062W        W69927  23.940  16.118  25.339
69063W        W69928  22.270  17.085  25.379
69064W        W69929  25.476  15.007  25.331
69065W        W69930  25.194  15.935  23.952
69066W        W69931  23.502  18.065  25.429
69067W        W69932  23.357  14.694  22.156
69068W        W69933  24.896  17.293  22.099
69069W        W69934  22.665  15.386  24.985
69070W        W69935  23.099  17.380  24.847
69071W        W69936  25.225  15.371  24.645
69072W        W69937  24.436  18.030  22.613
69073W        W69938  24.675  16.649  23.980
69074W        W69939  22.925  15.065  24.647
69075W        W69940  23.394  16.134  25.404
69076W        W69941  22.897  17.313  22.598
69077W        W69942  24.652  16.811  22.862
69078W        W69943  22.420  15.437  24.586
69079W        W69944  23.749  17.499  23.050
69080W        W69945  25.499  16.059  23.231
69081W        W69946  23.721  14.692  24.950
69082W        W69947  24.501  17.397  24.029
69083W        W69948  24.804  17.741  23.737
69084W        W69949  24.023  17.543  22.165
69085W        W69950  22.033  17.435  25.007
69086W        W69951  22.776  15.427  24.245
69087W        W69952  22.746  14.775  23.355
69088W        W69953  24.367  15.617  24.047
69089W        W69954  23.165  16.788  22.247
69090W        W69955  25.163  16.730  23.746
69091W        W69956  22.490  17.488  25.169
69092W        W69957  24.877  18.170  22.966
69093W        W69958  22.976  15.190  23.411
69094W        W69959  22.745  16.683  23.501
69095W        W69960  23.058  18.094  24.251
69096W        W69961  25.125  18.190  25.283
69097W        W69962  24.284  16.378  24.216
69098W        W69963  22.133  16.176  22.131
69099W        W69964  25.267  17.834  22.828
69100W        W69965  25.104  15.158  22.447
69101W        W69966  23.243  14.677  24.850
69102W        W69967  24.949  17.479  23.308
69103W        W69968  24.978  16.035  23.213
69104W        W69969  23.095  15.708  23.429
69105W        W69970  23.340  15.970  24.753
69106W        W69971  24.451  17.123  24.616
69107W        W69972  23.101  15.577  24.728
69108W        W69973  23.080  18.043  23.344
69109W        W69974  22.397  18.002  24.978
69110W        W69975  22.509  17.363  22.108
69111W        W69976  25.026  17.121  22.918
69112W        W69977  22.630  15.913  24.804
69113W        W69978  25.403  15.843  22.285
69114W        W69979  23.148  16.900  22.756
69115W        W69980  24.247  16.282  24.837
69116W        W69981  24.138  15.910  24.381
69117W        W69982  22.698  16.282  24.410
69118W        W69983  24.908  18.170  24.239
69119W        W69984  24.699  14.804  25.233
69120W        W69985  22.363  14.954  24.820
69121W        W69986  22.702  15.977  23.873
69122W        W69987  23.071  15.791  21.995
69123W        W69988  21.874  17.550  24.540
69124W        W69989  23.459  16.259  23.983
69125W        W69990  23.282  15.284  22.088
69126W        W69991  22.417  16.100  22.869
69127W        W69992  22.188  17.952  24.306
69128W        W69993  24.983  16.178  22.414
69129W        W69994  25.078  15.094  25.100
69130W        W69995  24.514  17.303  23.063
69131W        W69996  22.112  16.227  25.240
69132W        W69997  25.078  14.691  22.536
69133W        W69998  24.598  17.166  22.547
69134W        W69999  23.500  16.224  22.632
69135W        W70000  24.687  15.028  22.155
69136W        W70001  24.752  15.635  24.341
69137W        W70002  22.461  16.228  23.548
69138W        W70003  22.755  17.167  23.197
69139W        W70004  24.518  15.787  23.162
69140W        W70005  23.541  15.166  23.858
69141W        W70006  25.503  17.077  24.369
69142W        W70007  25.421  15.064  23.930
69143W        W70008  21.960  17.894  23.306
69144W        W70009  22.469  17.081  22.842
69145W        W70010  22.384  14.698  25.395
69146W        W70011  23.503  17.551  25.497
69147W        W70012  25.258  16.519  23.287
69148W        W70013  24.612  16.696  22.167
69149W        W70014  23.907  18.217  24.379
69150W        W70015  24.764  16.939  25.416
69151W        W70016  23.579  14.649  22.696
69152W        W70017  24.292  15.518  23.555
69153W        W70018  21.978  17.105  23.887
69154W        W70019  23.231  15.067  22.528
69155W        W70020  23.035  16.551  25.377
69156W        W70021  24.029  15.532  23.091
69157W        W70022  24.234  16.942  24.213
69158W        W70023  22.388  17.547  24.648
69159W        W70024  22.979  17.530  25.371
69160W        W70025  22.830  15.327  22.385
69161W        W70026  24.347  15.469  22.710
69162W        W70027  24.305  17.577  24.947
69163W        W70028  22.990  16.169  23.546
69164W        W70029  22.645  17.867  24.411
69165W        W70030  25.390  17.984  22.012
69166W        W70031  22.253  16.656  25.008
69167W        W70032  24.248  16.918  23.696
69168W        W70033  22.684  16.567  22.938
69169W        W70034  23.055  17.574  24.333
69170W        W70035  23.433  14.993  23.374
69171W        W70036  22.044  16.977  22.304
69172W        W70037  23.563  15.928  22.174
69173W        W70038  22.209  16.477  23.193
69174W        W70039  23.499  15.119  24.657
69175W        W70040  25.171  14.828  22.084
69176W        W70041  25.264  16.574  25.183
69177W        W70042  23.918  17.831  25.335
69178W        W70043  25.476  16.925  24.857
69179W        W70044  24.884  17.723  25.468
69180W        W70045  22.623  18.179  23.946
69181W        W70046  25.482  16.801  22.820
69182W        W70047  24.012  16.068  23.333
69183W        W70048  23.779  14.680  23.223
69184W        W70049  22.838  17.664  23.060
69185W        W70050  23.337  15.405  24.285
69186W        W70051  23.037  14.774  23.754
69187W        W70052  22.100  17.596  22.302
69188W        W70053  23.916  16.960  23.020
69189W        W70054  22.791  17.755  24.899
69190W        W70055  22.268  16.578  22.595
69191W        W70056  22.153  15.121  23.594
69192W        W70057  23.701  17.086  23.651
69193W        W70058  21.953  14.940  22.671
69194W        W70059  24.617  16.146  24.598
69195W        W70060  24.494  15.532  22.170
69196W        W70061  25.011  17.204  23.818
69197W        W70062  23.672  17.688  23.649
69198W        W70063  23.084  17.792  22.560
69199W        W70064  24.366  14.695  21.990
69200W        W70065  22.166  17.955  23.731
69201W        W70066  24.363  15.713  25.366
69202W        W70067  22.346  15.243  25.365
69203W        W70068  22.077  15.843  22.698
69204W        W70069  22.768  15.832  22.423
69205W        W70070  24.531  16.159  25.240
69206W        W70071  22.874  16.440  23.949
69207W        W70072  24.348  14.726  23.069
69208W        W70073  23.479  18.157  23.572
69209W        W70074  24.693  17.619  24.509
69210W        W70075  24.277  17.768  23.620
69211W        W70076  24.296  16.748  23.214
69212W        W70077  23.758  14.973  22.285
69213W        W70078  25.439  14.601  23.007
69214W        W70079  23.127  16.236  22.170
69215W        W70080  25.293  15.573  23.160
69216W        W70081  23.985  16.743  22.037
69217W        W70082  24.921  16.943  24.785
69218W        W70083  24.575  17.644  22.252
69219W        W70084  23.190  15.319  25.158
69220W        W70085  23.010  15.903  24.399
69221W        W70086  25.102  17.398  24.676
69222W        W70087  24.202  15.348  25.053
69223W        W70088  22.046  15.819  24.830
69224W        W70089  23.806  16.296  24.556
69225W        W70090  22.163  17.054  23.213
69226W        W70091  22.310  16.351  24.103
69227W        W70092  24.627  16.637  24.453
69228W        W70093  24.399  18.017  25.264
69229W        W70094  24.295  15.756  24.817
69230W        W70095  24.572  17.810  23.222
69231W        W70096  23.574  17.530  24.545
69232W        W70097  23.059  17.885  23.814
69233W        W70098  24.864  17.056  24.233
69234W        W70099  23.914  17.128  25.370
69235W        W70100  22.519  17.081  23.709
69236W        W70101  24.865  16.840  23.354
69237W        W70102  24.506  17.906  24.105
69238W        W70103  22.484  17.635  23.975
69239W        W70104  23.505  15.687  25.185
69240W        W70105  23.956  17.853  22.696
69241W        W70106  23.264  17.108  25.334
69242W        W70107  23.390  17.346  22.711
69243W        W70108  22.611  16.086  21.970
69244W        W70109  21.950  18.172  28.869
69245W        W70110  22.326  17.065  28.392
69246W        W70111  25.031  16.795  26.162
69247W        W70112  25.161  17.880  28.189
69248W        W70113  23.079  17.871  25.715
69249W        W70114  23.162  16.023  26.698
69250W        W70115  22.677  15.871  26.862
69251W        W70116  23.668  16.686  26.296
69252W        W70117  23.343  17.778  28.651
69253W        W70118  21.992  15.339  28.614
69254W        W70119  22.754  14.619  28.416
69255W        W70120  24.448  15.007  27.303
69256W        W70121  24.097  15.878  25.873
69257W        W70122  24.667  15.312  28.964
69258W        W70123  22.033  15.104  28.089
69259W        W70124  22.132  17.723  29.110
69260W        W70125  23.654  17.113  25.842
69261W        W70126  22.086  15.896  27.535
69262W        W70127  22.979  15.787  28.772
69263W        W70128  25.438  15.646  27.271
69264W        W70129  25.202  16.689  28.130
69265W        W70130  23.510  16.022  27.157
69266W        W70131  24.056  17.361  27.526
69267W        W70132  22.556  16.795  27.758
69268W        W70133  21.915  16.323  27.329
69269W        W70134  22.951  16.295  28.521
69270W        W70135  25.222  16.078  28.775
69271W        W70136  22.838  17.522  27.220
69272W        W70137  23.959  17.211  28.354
69273W        W70138  23.179  15.851  27.579
69274W        W70139  23.471  16.635  27.222
69275W        W70140  24.468  17.408  29.070
69276W        W70141  23.547  16.728  29.080
69277W        W70142  23.528  16.444  28.558
69278W        W70143  21.937  15.835  29.080
69279W        W70144  24.769  17.370  28.679
69280W        W70145  22.350  14.952  26.677
69281W        W70146  22.877  17.210  27.676
69282W        W70147  25.340  16.993  26.966
69283W        W70148  24.753  15.393  27.533
69284W        W70149  25.038  15.346  25.628
69285W        W70150  25.503  16.147  27.934
69286W        W70151  23.470  17.854  27.687
69287W        W70152  25.244  17.320  26.125
69288W        W70153  22.373  18.106  25.879
69289W        W70154  22.766  18.152  26.555
69290W        W70155  22.563  14.906  27.981
69291W        W70156  25.186  15.924  28.256
69292W        W70157  24.591  16.346  26.715
69293W        W70158  24.557  16.034  25.742
69294W        W70159  23.765  17.178  27.882
69295W        W70160  23.571  15.508  27.081
69296W        W70161  24.171  17.595  28.075
69297W        W70162  25.042  16.386  26.497
69298W        W70163  23.944  15.044  26.513
69299W        W70164  22.601  17.738  26.196
69300W        W70165  21.972  15.237  26.795
69301W        W70166  24.758  15.844  27.269
69302W        W70167  22.216  17.461  27.184
69303W        W70168  23.557  17.811  26.054
69304W        W70169  24.949  15.837  25.518
69305W        W70170  21.972  17.595  27.682
69306W        W70171  22.763  17.167  28.162
69307W        W70172  23.136  16.527  26.781
69308W        W70173  23.158  14.932  27.874
69309W        W70174  25.387  14.694  27.171
69310W        W70175  22.606  16.566  25.639
69311W        W70176  22.261  15.599  25.818
69312W        W70177  22.323  17.555  26.612
69313W        W70178  23.454  17.038  26.860
69314W        W70179  24.786  17.897  28.574
69315W        W70180  23.712  15.539  26.258
69316W        W70181  25.095  17.937  27.030
69317W        W70182  24.772  15.790  28.628
69318W        W70183  25.485  17.446  26.762
69319W        W70184  24.112  16.738  28.246
69320W        W70185  21.878  16.289  26.452
69321W        W70186  22.989  16.704  28.025
69322W        W70187  24.193  15.968  26.403
69323W        W70188  24.070  16.458  26.507
69324W        W70189  22.413  15.878  27.981
69325W        W70190  22.398  15.754  28.903
69326W        W70191  22.288  14.671  27.062
69327W        W70192  24.056  15.018  27.623
69328W        W70193  23.704  15.203  28.786
69329W        W70194  24.059  15.352  25.964
69330W        W70195  25.242  17.745  28.718
69331W        W70196  24.209  14.826  28.757
69332W        W70197  25.228  17.127  28.879
69333W        W70198  24.658  15.294  28.475
69334W        W70199  24.458  15.232  26.745
69335W        W70200  24.851  16.366  29.149
69336W        W70201  22.591  17.942  27.135
69337W        W70202  23.249  15.659  26.121
69338W        W70203  22.818  14.943  28.785
69339W        W70204  24.870  15.427  26.466
69340W        W70205  25.237  15.909  26.411
69341W        W70206  22.980  18.126  28.882
69342W        W70207  22.906  14.662  26.117
69343W        W70208  25.227  15.196  27.152
69344W        W70209  25.377  17.445  25.597
69345W        W70210  22.284  16.648  27.299
69346W        W70211  24.201  15.235  25.529
69347W        W70212  25.335  17.567  27.249
69348W        W70213  25.374  14.761  27.999
69349W        W70214  23.819  15.973  28.553
69350W        W70215  23.912  17.312  26.256
69351W        W70216  24.312  16.606  28.996
69352W        W70217  23.986  14.583  27.305
69353W        W70218  22.598  15.486  27.368
69354W        W70219  22.152  16.686  28.142
69355W        W70220  24.011  17.879  26.848
69356W        W70221  25.205  15.476  27.720
69357W        W70222  23.842  17.823  28.487
69358W        W70223  25.185  16.882  25.692
69359W        W70224  23.620  16.365  26.753
69360W        W70225  25.472  14.876  28.494
69361W        W70226  23.621  16.711  28.088
69362W        W70227  23.838  15.597  27.533
69363W        W70228  24.690  15.895  26.371
69364W        W70229  24.977  15.628  26.013
69365W        W70230  24.786  17.668  26.402
69366W        W70231  24.620  17.271  27.198
69367W        W70232  24.516  16.350  26.176
69368W        W70233  23.949  16.560  27.162
69369W        W70234  24.830  16.348  27.229
69370W        W70235  22.205  15.363  27.653
69371W        W70236  24.983  16.415  28.480
69372W        W70237  25.334  18.033  27.626
69373W        W70238  23.264  17.477  27.028
69374W        W70239  24.271  18.010  28.352
69375W        W70240  24.265  15.340  28.116
69376W        W70241  23.472  18.048  28.177
69377W        W70242  25.169  15.002  26.643
69378W        W70243  24.960  16.321  27.944
69379W        W70244  21.943  15.642  27.982
69380W        W70245  24.803  15.437  27.000
69381W        W70246  25.214  15.588  28.777
69382W        W70247  24.099  17.287  26.995
69383W        W70248  23.355  17.878  26.608
69384W        W70249  22.470  15.058  25.866
69385W        W70250  23.574  14.712  27.676
69386W        W70251  22.602  17.832  25.524
69387W        W70252  22.976  16.298  26.275
69388W        W70253  23.630  16.927  28.588
69389W        W70254  23.460  15.285  26.578
69390W        W70255  24.816  14.882  27.006
69391W        W70256  24.536  18.164  27.334
69392W        W70257  23.948  17.812  27.674
69393W        W70258  23.344  16.849  27.635
69394W        W70259  25.114  17.572  27.761
69395W        W70260  22.808  15.075  26.530
69396W        W70261  23.330  17.372  27.490
69397W        W70262  22.813  15.303  25.555
69398W        W70263  23.614  15.912  27.949
69399W        W70264  24.462  14.778  27.819
69400W        W70265  21.882  16.621  27.704
69401W        W70266  23.586  16.439  25.862
69402W        W70267  22.854  14.754  25.632
69403W        W70268  23.592  15.835  26.683
69404W        W70269  24.562  14.811  28.382
69405W        W70270  23.150  16.823  28.491
69406W        W70271  23.954  16.605  28.708
69407W        W70272  24.571  16.635  28.601
69408W        W70273  23.855  14.775  29.106
69409W        W70274  23.077  15.391  27.499
69410W        W70275  22.503  15.347  26.897
69411W        W70276  22.289  18.059  26.573
69412W        W70277  23.621  17.389  28.698
69413W        W70278  22.656  16.874  26.057
69414W        W70279  24.336  16.259  27.278
69415W        W70280  24.616  16.058  27.677
69416W        W70281  23.821  16.732  27.611
69417W        W70282  24.291  17.106  25.743
69418W        W70283  23.963  15.127  27.071
69419W        W70284  25.442  15.405  26.339
69420W        W70285  21.936  17.994  28.370
69421W        W70286  22.353  17.220  27.902
69422W        W70287  21.920  18.066  26.134
69423W        W70288  23.819  15.336  27.940
69424W        W70289  23.182  17.359  25.789
69425W        W70290  25.087  17.741  25.975
69426W        W70291  24.062  16.394  25.989
69427W        W70292  22.905  15.585  26.506
69428W        W70293  23.737  15.495  25.558
69429W        W70294  24.321  17.060  28.736
69430W        W70295  24.674  14.966  26.353
69431W        W70296  22.004  14.814  25.801
69432W        W70297  23.290  17.133  28.091
69433W        W70298  23.089  17.049  27.183
69434W        W70299  22.831  17.001  25.581
69435W        W70300  22.072  17.242  26.349
69436W        W70301  22.576  16.312  28.791
69437W        W70302  23.280  14.872  28.977
69438W        W70303  23.989  15.014  28.333
69439W        W70304  23.184  14.782  26.614
69440W        W70305  24.243  14.859  26.119
69441W        W70306  22.188  14.791  27.696
69442W        W70307  22.236  15.754  27.066
69443W        W70308  24.925  14.862  27.472
69444W        W70309  22.347  15.360  26.286
69445W        W70310  24.918  15.048  27.902
69446W        W70311  25.314  16.251  25.587
69447W        W70312  22.606  15.009  27.406
69448W        W70313  23.720  15.581  28.346
69449W        W70314  21.868  15.271  25.824
69450W        W70315  22.654  16.660  28.385
69451W        W70316  24.012  16.058  27.564
69452W        W70317  23.879  18.137  25.860
69453W        W70318  22.025  16.644  25.557
69454W        W70319  22.760  17.055  28.683
69455W        W70320  22.281  16.222  28.314
69456W        W70321  23.272  16.327  28.108
69457W        W70322  25.040  14.686  28.370
69458W        W70323  25.438  16.296  28.361
69459W        W70324  25.426  16.496  26.047
69460W        W70325  24.289  16.828  26.146
69461W        W70326  24.763  18.128  25.841
69462W        W70327  23.940  16.118  28.983
69463W        W70328  22.270  17.085  29.023
69464W        W70329  25.476  15.007  28.975
69465W        W70330  25.194  15.935  27.596
69466W        W70331  23.502  18.065  29.073
69467W        W70332  23.357  14.694  25.800
69468W        W70333  24.896  17.293  25.743
69469W        W70334  22.665  15.386  28.629
69470W        W70335  23.099  17.380  28.491
69471W        W70336  25.225  15.371  28.289
69472W        W70337  24.436  18.030  26.257
69473W        W70338  24.675  16.649  27.624
69474W        W70339  22.925  15.065  28.291
69475W        W70340  23.394  16.134  29.048
69476W        W70341  22.897  17.313  26.242
69477W        W70342  24.652  16.811  26.506
69478W        W70343  22.420  15.437  28.230
69479W        W70344  23.749  17.499  26.694
69480W        W70345  25.499  16.059  26.875
69481W        W70346  23.721  14.692  28.594
69482W        W70347  24.501  17.397  27.673
69483W        W70348  24.804  17.741  27.381
69484W        W70349  24.023  17.543  25.809
69485W        W70350  22.033  17.435  28.651
69486W        W70351  22.776  15.427  27.889
69487W        W70352  22.746  14.775  26.999
69488W        W70353  24.367  15.617  27.691
69489W        W70354  23.165  16.788  25.891
69490W        W70355  25.163  16.730  27.390
69491W        W70356  22.490  17.488  28.813
69492W        W70357  24.877  18.170  26.610
69493W        W70358  22.976  15.190  27.055
69494W        W70359  22.745  16.683  27.145
69495W        W70360  23.058  18.094  27.895
69496W        W70361  25.125  18.190  28.927
69497W        W70362  24.284  16.378  27.860
69498W        W70363  22.133  16.176  25.775
69499W        W70364  25.267  17.834  26.472
69500W        W70365  25.104  15.158  26.091
69501W        W70366  23.243  14.677  28.494
69502W        W70367  24.949  17.479  26.952
69503W        W70368  24.978  16.035  26.857
69504W        W70369  23.095  15.708  27.073
69505W        W70370  23.340  15.970  28.397
69506W        W70371  24.451  17.123  28.260
69507W        W70372  23.101  15.577  28.372
69508W        W70373  23.080  18.043  26.988
69509W        W70374  22.397  18.002  28.622
69510W        W70375  22.509  17.363  25.752
69511W        W70376  25.026  17.121  26.562
69512W        W70377  22.630  15.913  28.448
69513W        W70378  25.403  15.843  25.929
69514W        W70379  23.148  16.900  26.400
69515W        W70380  24.247  16.282  28.481
69516W        W70381  24.138  15.910  28.025
69517W        W70382  22.698  16.282  28.054
69518W        W70383  24.908  18.170  27.883
69519W        W70384  24.699  14.804  28.877
69520W        W70385  22.363  14.954  28.464
69521W        W70386  22.702  15.977  27.517
69522W        W70387  23.071  15.791  25.639
69523W        W70388  21.874  17.550  28.184
69524W        W70389  23.459  16.259  27.627
69525W        W70390  23.282  15.284  25.732
69526W        W70391  22.417  16.100  26.513
69527W        W70392  22.188  17.952  27.950
69528W        W70393  24.983  16.178  26.058
69529W        W70394  25.078  15.094  28.744
69530W        W70395  24.514  17.303  26.707
69531W        W70396  22.112  16.227  28.884
69532W        W70397  25.078  14.691  26.180
69533W        W70398  24.598  17.166  26.191
69534W        W70399  23.500  16.224  26.276
69535W        W70400  24.687  15.028  25.799
69536W        W70401  24.752  15.635  27.985
69537W        W70402  22.461  16.228  27.192
69538W        W70403  22.755  17.167  26.841
69539W        W70404  24.518  15.787  26.806
69540W        W70405  23.541  15.166  27.502
69541W        W70406  25.503  17.077  28.013
69542W        W70407  25.421  15.064  27.574
69543W        W70408  21.960  17.894  26.950
69544W        W70409  22.469  17.081  26.486
69545W        W70410  22.384  14.698  29.039
69546W        W70411  23.503  17.551  29.141
69547W        W70412  25.258  16.519  26.931
69548W        W70413  24.612  16.696  25.811
69549W        W70414  23.907  18.217  28.023
69550W        W70415  24.764  16.939  29.060
69551W        W70416  23.579  14.649  26.340
69552W        W70417  24.292  15.518  27.199
69553W        W70418  21.978  17.105  27.531
69554W        W70419  23.231  15.067  26.172
69555W        W70420  23.035  16.551  29.021
69556W        W70421  24.029  15.532  26.735
69557W        W70422  24.234  16.942  27.857
69558W        W70423  22.388  17.547  28.292
69559W        W70424  22.979  17.530  29.015
69560W        W70425  22.830  15.327  26.029
69561W        W70426  24.347  15.469  26.354
69562W        W70427  24.305  17.577  28.591
69563W        W70428  22.990  16.169  27.190
69564W        W70429  22.645  17.867  28.055
69565W        W70430  25.390  17.984  25.656
69566W        W70431  22.253  16.656  28.652
69567W        W70432  24.248  16.918  27.340
69568W        W70433  22.684  16.567  26.582
69569W        W70434  23.055  17.574  27.977
69570W        W70435  23.433  14.993  27.018
69571W        W70436  22.044  16.977  25.948
69572W        W70437  23.563  15.928  25.818
69573W        W70438  22.209  16.477  26.837
69574W        W70439  23.499  15.119  28.301
69575W        W70440  25.171  14.828  25.728
69576W        W70441  25.264  16.574  28.827
69577W        W70442  23.918  17.831  28.979
69578W        W70443  25.476  16.925  28.501
69579W        W70444  24.884  17.723  29.112
69580W        W70445  22.623  18.179  27.590
69581W        W70446  25.482  16.801  26.464
69582W        W70447  24.012  16.068  26.977
69583W        W70448  23.779  14.680  26.867
69584W        W70449  22.838  17.664  26.704
69585W        W70450  23.337  15.405  27.929
69586W        W70451  23.037  14.774  27.398
69587W        W70452  22.100  17.596  25.946
69588W        W70453  23.916  16.960  26.664
69589W        W70454  22.791  17.755  28.543
69590W        W70455  22.268  16.578  26.239
69591W        W70456  22.153  15.121  27.238
69592W        W70457  23.701  17.086  27.295
69593W        W70458  21.953  14.940  26.315
69594W        W70459  24.617  16.146  28.242
69595W        W70460  24.494  15.532  25.814
69596W        W70461  25.011  17.204  27.462
69597W        W70462  23.672  17.688  27.293
69598W        W70463  23.084  17.792  26.204
69599W        W70464  24.366  14.695  25.634
69600W        W70465  22.166  17.955  27.375
69601W        W70466  24.363  15.713  29.010
69602W        W70467  22.346  15.243  29.009
69603W        W70468  22.077  15.843  26.342
69604W        W70469  22.768  15.832  26.067
69605W        W70470  24.531  16.159  28.884
69606W        W70471  22.874  16.440  27.593
69607W        W70472  24.348  14.726  26.713
69608W        W70473  23.479  18.157  27.216
69609W        W70474  24.693  17.619  28.153
69610W        W70475  24.277  17.768  27.264
69611W        W70476  24.296  16.748  26.858
69612W        W70477  23.758  14.973  25.929
69613W        W70478  25.439  14.601  26.651
69614W        W70479  23.127  16.236  25.814
69615W        W70480  25.293  15.573  26.804
69616W        W70481  23.985  16.743  25.681
69617W        W70482  24.921  16.943  28.429
69618W        W70483  24.575  17.644  25.896
69619W        W70484  23.190  15.319  28.802
69620W        W70485  23.010  15.903  28.043
69621W        W70486  25.102  17.398  28.320
69622W        W70487  24.202  15.348  28.697
69623W        W70488  22.046  15.819  28.474
69624W        W70489  23.806  16.296  28.200
69625W        W70490  22.163  17.054  26.857
69626W        W70491  22.310  16.351  27.747
69627W        W70492  24.627  16.637  28.097
69628W        W70493  24.399  18.017  28.908
69629W        W70494  24.295  15.756  28.461
69630W        W70495  24.572  17.810  26.866
69631W        W70496  23.574  17.530  28.189
69632W        W70497  23.059  17.885  27.458
69633W        W70498  24.864  17.056  27.877
69634W        W70499  23.914  17.128  29.014
69635W        W70500  22.519  17.081  27.353
69636W        W70501  24.865  16.840  26.998
69637W        W70502  24.506  17.906  27.749
69638W        W70503  22.484  17.635  27.619
69639W        W70504  23.505  15.687  28.829
69640W        W70505  23.956  17.853  26.340
69641W        W70506  23.264  17.108  28.978
69642W        W70507  23.390  17.346  26.355
69643W        W70508  22.611  16.086  25.614
69644W        W70509  21.950  21.816   3.359
69645W        W70510  22.326  20.709   2.882
69646W        W70511  25.031  20.439   0.652
69647W        W70512  25.161  21.524   2.679
69648W        W70513  23.079  21.515   0.205
69649W        W70514  23.162  19.667   1.188
69650W        W70515  22.677  19.515   1.352
69651W        W70516  23.668  20.330   0.786
69652W        W70517  23.343  21.422   3.141
69653W        W70518  21.992  18.983   3.104
69654W        W70519  22.754  18.263   2.906
69655W        W70520  24.448  18.651   1.793
69656W        W70521  24.097  19.522   0.363
69657W        W70522  24.667  18.956   3.454
69658W        W70523  22.033  18.748   2.579
69659W        W70524  22.132  21.367   3.600
69660W        W70525  23.654  20.757   0.332
69661W        W70526  22.086  19.540   2.025
69662W        W70527  22.979  19.431   3.262
69663W        W70528  25.438  19.290   1.761
69664W        W70529  25.202  20.333   2.620
69665W        W70530  23.510  19.666   1.647
69666W        W70531  24.056  21.005   2.016
69667W        W70532  22.556  20.439   2.248
69668W        W70533  21.915  19.967   1.819
69669W        W70534  22.951  19.939   3.011
69670W        W70535  25.222  19.722   3.265
69671W        W70536  22.838  21.166   1.710
69672W        W70537  23.959  20.855   2.844
69673W        W70538  23.179  19.495   2.069
69674W        W70539  23.471  20.279   1.712
69675W        W70540  24.468  21.052   3.560
69676W        W70541  23.547  20.372   3.570
69677W        W70542  23.528  20.088   3.048
69678W        W70543  21.937  19.479   3.570
69679W        W70544  24.769  21.014   3.169
69680W        W70545  22.350  18.596   1.167
69681W        W70546  22.877  20.854   2.166
69682W        W70547  25.340  20.637   1.456
69683W        W70548  24.753  19.037   2.023
69684W        W70549  25.038  18.990   0.118
69685W        W70550  25.503  19.791   2.424
69686W        W70551  23.470  21.498   2.177
69687W        W70552  25.244  20.964   0.615
69688W        W70553  22.373  21.750   0.369
69689W        W70554  22.766  21.796   1.045
69690W        W70555  22.563  18.550   2.471
69691W        W70556  25.186  19.568   2.746
69692W        W70557  24.591  19.990   1.205
69693W        W70558  24.557  19.678   0.232
69694W        W70559  23.765  20.822   2.372
69695W        W70560  23.571  19.152   1.571
69696W        W70561  24.171  21.239   2.565
69697W        W70562  25.042  20.030   0.987
69698W        W70563  23.944  18.688   1.003
69699W        W70564  22.601  21.382   0.686
69700W        W70565  21.972  18.881   1.285
69701W        W70566  24.758  19.488   1.759
69702W        W70567  22.216  21.105   1.674
69703W        W70568  23.557  21.455   0.544
69704W        W70569  24.949  19.481   0.008
69705W        W70570  21.972  21.239   2.172
69706W        W70571  22.763  20.811   2.652
69707W        W70572  23.136  20.171   1.271
69708W        W70573  23.158  18.576   2.364
69709W        W70574  25.387  18.338   1.661
69710W        W70575  22.606  20.210   0.129
69711W        W70576  22.261  19.243   0.308
69712W        W70577  22.323  21.199   1.102
69713W        W70578  23.454  20.682   1.350
69714W        W70579  24.786  21.541   3.064
69715W        W70580  23.712  19.183   0.748
69716W        W70581  25.095  21.581   1.520
69717W        W70582  24.772  19.434   3.118
69718W        W70583  25.485  21.090   1.252
69719W        W70584  24.112  20.382   2.736
69720W        W70585  21.878  19.933   0.942
69721W        W70586  22.989  20.348   2.515
69722W        W70587  24.193  19.612   0.893
69723W        W70588  24.070  20.102   0.997
69724W        W70589  22.413  19.522   2.471
69725W        W70590  22.398  19.398   3.393
69726W        W70591  22.288  18.315   1.552
69727W        W70592  24.056  18.662   2.113
69728W        W70593  23.704  18.847   3.276
69729W        W70594  24.059  18.996   0.454
69730W        W70595  25.242  21.389   3.208
69731W        W70596  24.209  18.470   3.247
69732W        W70597  25.228  20.771   3.369
69733W        W70598  24.658  18.938   2.965
69734W        W70599  24.458  18.876   1.235
69735W        W70600  24.851  20.010   3.639
69736W        W70601  22.591  21.586   1.625
69737W        W70602  23.249  19.303   0.611
69738W        W70603  22.818  18.587   3.275
69739W        W70604  24.870  19.071   0.956
69740W        W70605  25.237  19.553   0.901
69741W        W70606  22.980  21.770   3.372
69742W        W70607  22.906  18.306   0.607
69743W        W70608  25.227  18.840   1.642
69744W        W70609  25.377  21.089   0.087
69745W        W70610  22.284  20.292   1.789
69746W        W70611  24.201  18.879   0.019
69747W        W70612  25.335  21.211   1.739
69748W        W70613  25.374  18.405   2.489
69749W        W70614  23.819  19.617   3.043
69750W        W70615  23.912  20.956   0.746
69751W        W70616  24.312  20.250   3.486
69752W        W70617  23.986  18.227   1.795
69753W        W70618  22.598  19.130   1.858
69754W        W70619  22.152  20.330   2.632
69755W        W70620  24.011  21.523   1.338
69756W        W70621  25.205  19.120   2.210
69757W        W70622  23.842  21.467   2.977
69758W        W70623  25.185  20.526   0.182
69759W        W70624  23.620  20.009   1.243
69760W        W70625  25.472  18.520   2.984
69761W        W70626  23.621  20.355   2.578
69762W        W70627  23.838  19.241   2.023
69763W        W70628  24.690  19.539   0.861
69764W        W70629  24.977  19.272   0.503
69765W        W70630  24.786  21.312   0.892
69766W        W70631  24.620  20.915   1.688
69767W        W70632  24.516  19.994   0.666
69768W        W70633  23.949  20.204   1.652
69769W        W70634  24.830  19.992   1.719
69770W        W70635  22.205  19.007   2.143
69771W        W70636  24.983  20.059   2.970
69772W        W70637  25.334  21.677   2.116
69773W        W70638  23.264  21.121   1.518
69774W        W70639  24.271  21.654   2.842
69775W        W70640  24.265  18.984   2.606
69776W        W70641  23.472  21.692   2.667
69777W        W70642  25.169  18.646   1.133
69778W        W70643  24.960  19.965   2.434
69779W        W70644  21.943  19.286   2.472
69780W        W70645  24.803  19.081   1.490
69781W        W70646  25.214  19.232   3.267
69782W        W70647  24.099  20.931   1.485
69783W        W70648  23.355  21.522   1.098
69784W        W70649  22.470  18.702   0.356
69785W        W70650  23.574  18.356   2.166
69786W        W70651  22.602  21.476   0.014
69787W        W70652  22.976  19.942   0.765
69788W        W70653  23.630  20.571   3.078
69789W        W70654  23.460  18.929   1.068
69790W        W70655  24.816  18.526   1.496
69791W        W70656  24.536  21.808   1.824
69792W        W70657  23.948  21.456   2.164
69793W        W70658  23.344  20.493   2.125
69794W        W70659  25.114  21.216   2.251
69795W        W70660  22.808  18.719   1.020
69796W        W70661  23.330  21.016   1.980
69797W        W70662  22.813  18.947   0.045
69798W        W70663  23.614  19.556   2.439
69799W        W70664  24.462  18.422   2.309
69800W        W70665  21.882  20.265   2.194
69801W        W70666  23.586  20.083   0.352
69802W        W70667  22.854  18.398   0.122
69803W        W70668  23.592  19.479   1.173
69804W        W70669  24.562  18.455   2.872
69805W        W70670  23.150  20.467   2.981
69806W        W70671  23.954  20.249   3.198
69807W        W70672  24.571  20.279   3.091
69808W        W70673  23.855  18.419   3.596
69809W        W70674  23.077  19.035   1.989
69810W        W70675  22.503  18.991   1.387
69811W        W70676  22.289  21.703   1.063
69812W        W70677  23.621  21.033   3.188
69813W        W70678  22.656  20.518   0.547
69814W        W70679  24.336  19.903   1.768
69815W        W70680  24.616  19.702   2.167
69816W        W70681  23.821  20.376   2.101
69817W        W70682  24.291  20.750   0.233
69818W        W70683  23.963  18.771   1.561
69819W        W70684  25.442  19.049   0.829
69820W        W70685  21.936  21.638   2.860
69821W        W70686  22.353  20.864   2.392
69822W        W70687  21.920  21.710   0.624
69823W        W70688  23.819  18.980   2.430
69824W        W70689  23.182  21.003   0.279
69825W        W70690  25.087  21.385   0.465
69826W        W70691  24.062  20.038   0.479
69827W        W70692  22.905  19.229   0.996
69828W        W70693  23.737  19.139   0.048
69829W        W70694  24.321  20.704   3.226
69830W        W70695  24.674  18.610   0.843
69831W        W70696  22.004  18.458   0.291
69832W        W70697  23.290  20.777   2.581
69833W        W70698  23.089  20.693   1.673
69834W        W70699  22.831  20.645   0.071
69835W        W70700  22.072  20.886   0.839
69836W        W70701  22.576  19.956   3.281
69837W        W70702  23.280  18.516   3.467
69838W        W70703  23.989  18.658   2.823
69839W        W70704  23.184  18.426   1.104
69840W        W70705  24.243  18.503   0.609
69841W        W70706  22.188  18.435   2.186
69842W        W70707  22.236  19.398   1.556
69843W        W70708  24.925  18.506   1.962
69844W        W70709  22.347  19.004   0.776
69845W        W70710  24.918  18.692   2.392
69846W        W70711  25.314  19.895   0.077
69847W        W70712  22.606  18.653   1.896
69848W        W70713  23.720  19.225   2.836
69849W        W70714  21.868  18.915   0.314
69850W        W70715  22.654  20.304   2.875
69851W        W70716  24.012  19.702   2.054
69852W        W70717  23.879  21.781   0.350
69853W        W70718  22.025  20.288   0.047
69854W        W70719  22.760  20.699   3.173
69855W        W70720  22.281  19.866   2.804
69856W        W70721  23.272  19.971   2.598
69857W        W70722  25.040  18.330   2.860
69858W        W70723  25.438  19.940   2.851
69859W        W70724  25.426  20.140   0.537
69860W        W70725  24.289  20.472   0.636
69861W        W70726  24.763  21.772   0.331
69862W        W70727  23.940  19.762   3.473
69863W        W70728  22.270  20.729   3.513
69864W        W70729  25.476  18.651   3.465
69865W        W70730  25.194  19.579   2.086
69866W        W70731  23.502  21.709   3.563
69867W        W70732  23.357  18.338   0.290
69868W        W70733  24.896  20.937   0.233
69869W        W70734  22.665  19.030   3.119
69870W        W70735  23.099  21.024   2.981
69871W        W70736  25.225  19.015   2.779
69872W        W70737  24.436  21.674   0.747
69873W        W70738  24.675  20.293   2.114
69874W        W70739  22.925  18.709   2.781
69875W        W70740  23.394  19.778   3.538
69876W        W70741  22.897  20.957   0.732
69877W        W70742  24.652  20.455   0.996
69878W        W70743  22.420  19.081   2.720
69879W        W70744  23.749  21.143   1.184
69880W        W70745  25.499  19.703   1.365
69881W        W70746  23.721  18.336   3.084
69882W        W70747  24.501  21.041   2.163
69883W        W70748  24.804  21.385   1.871
69884W        W70749  24.023  21.187   0.299
69885W        W70750  22.033  21.079   3.141
69886W        W70751  22.776  19.071   2.379
69887W        W70752  22.746  18.419   1.489
69888W        W70753  24.367  19.261   2.181
69889W        W70754  23.165  20.432   0.381
69890W        W70755  25.163  20.374   1.880
69891W        W70756  22.490  21.132   3.303
69892W        W70757  24.877  21.814   1.100
69893W        W70758  22.976  18.834   1.545
69894W        W70759  22.745  20.327   1.635
69895W        W70760  23.058  21.738   2.385
69896W        W70761  25.125  21.834   3.417
69897W        W70762  24.284  20.022   2.350
69898W        W70763  22.133  19.820   0.265
69899W        W70764  25.267  21.478   0.962
69900W        W70765  25.104  18.802   0.581
69901W        W70766  23.243  18.321   2.984
69902W        W70767  24.949  21.123   1.442
69903W        W70768  24.978  19.679   1.347
69904W        W70769  23.095  19.352   1.563
69905W        W70770  23.340  19.614   2.887
69906W        W70771  24.451  20.767   2.750
69907W        W70772  23.101  19.221   2.862
69908W        W70773  23.080  21.687   1.478
69909W        W70774  22.397  21.646   3.112
69910W        W70775  22.509  21.007   0.242
69911W        W70776  25.026  20.765   1.052
69912W        W70777  22.630  19.557   2.938
69913W        W70778  25.403  19.487   0.419
69914W        W70779  23.148  20.544   0.890
69915W        W70780  24.247  19.926   2.971
69916W        W70781  24.138  19.554   2.515
69917W        W70782  22.698  19.926   2.544
69918W        W70783  24.908  21.814   2.373
69919W        W70784  24.699  18.448   3.367
69920W        W70785  22.363  18.598   2.954
69921W        W70786  22.702  19.621   2.007
69922W        W70787  23.071  19.435   0.129
69923W        W70788  21.874  21.194   2.674
69924W        W70789  23.459  19.903   2.117
69925W        W70790  23.282  18.928   0.222
69926W        W70791  22.417  19.744   1.003
69927W        W70792  22.188  21.596   2.440
69928W        W70793  24.983  19.822   0.548
69929W        W70794  25.078  18.738   3.234
69930W        W70795  24.514  20.947   1.197
69931W        W70796  22.112  19.871   3.374
69932W        W70797  25.078  18.335   0.670
69933W        W70798  24.598  20.810   0.681
69934W        W70799  23.500  19.868   0.766
69935W        W70800  24.687  18.672   0.289
69936W        W70801  24.752  19.279   2.475
69937W        W70802  22.461  19.872   1.682
69938W        W70803  22.755  20.811   1.331
69939W        W70804  24.518  19.431   1.296
69940W        W70805  23.541  18.810   1.992
69941W        W70806  25.503  20.721   2.503
69942W        W70807  25.421  18.708   2.064
69943W        W70808  21.960  21.538   1.440
69944W        W70809  22.469  20.725   0.976
69945W        W70810  22.384  18.342   3.529
69946W        W70811  23.503  21.195   3.631
69947W        W70812  25.258  20.163   1.421
69948W        W70813  24.612  20.340   0.301
69949W        W70814  23.907  21.861   2.513
69950W        W70815  24.764  20.583   3.550
69951W        W70816  23.579  18.293   0.830
69952W        W70817  24.292  19.162   1.689
69953W        W70818  21.978  20.749   2.021
69954W        W70819  23.231  18.711   0.662
69955W        W70820  23.035  20.195   3.511
69956W        W70821  24.029  19.176   1.225
69957W        W70822  24.234  20.586   2.347
69958W        W70823  22.388  21.191   2.782
69959W        W70824  22.979  21.174   3.505
69960W        W70825  22.830  18.971   0.519
69961W        W70826  24.347  19.113   0.844
69962W        W70827  24.305  21.221   3.081
69963W        W70828  22.990  19.813   1.680
69964W        W70829  22.645  21.511   2.545
69965W        W70830  25.390  21.628   0.146
69966W        W70831  22.253  20.300   3.142
69967W        W70832  24.248  20.562   1.830
69968W        W70833  22.684  20.211   1.072
69969W        W70834  23.055  21.218   2.467
69970W        W70835  23.433  18.637   1.508
69971W        W70836  22.044  20.621   0.438
69972W        W70837  23.563  19.572   0.308
69973W        W70838  22.209  20.121   1.327
69974W        W70839  23.499  18.763   2.791
69975W        W70840  25.171  18.472   0.218
69976W        W70841  25.264  20.218   3.317
69977W        W70842  23.918  21.475   3.469
69978W        W70843  25.476  20.569   2.991
69979W        W70844  24.884  21.367   3.602
69980W        W70845  22.623  21.823   2.080
69981W        W70846  25.482  20.445   0.954
69982W        W70847  24.012  19.712   1.467
69983W        W70848  23.779  18.324   1.357
69984W        W70849  22.838  21.308   1.194
69985W        W70850  23.337  19.049   2.419
69986W        W70851  23.037  18.418   1.888
69987W        W70852  22.100  21.240   0.436
69988W        W70853  23.916  20.604   1.154
69989W        W70854  22.791  21.399   3.033
69990W        W70855  22.268  20.222   0.729
69991W        W70856  22.153  18.765   1.728
69992W        W70857  23.701  20.730   1.785
69993W        W70858  21.953  18.584   0.805
69994W        W70859  24.617  19.790   2.732
69995W        W70860  24.494  19.176   0.304
69996W        W70861  25.011  20.848   1.952
69997W        W70862  23.672  21.332   1.783
69998W        W70863  23.084  21.436   0.694
69999W        W70864  24.366  18.339   0.124
70000W        W70865  22.166  21.599   1.865
70001W        W70866  24.363  19.357   3.500
70002W        W70867  22.346  18.887   3.499
70003W        W70868  22.077  19.487   0.832
70004W        W70869  22.768  19.476   0.557
70005W        W70870  24.531  19.803   3.374
70006W        W70871  22.874  20.084   2.083
70007W        W70872  24.348  18.370   1.203
70008W        W70873  23.479  21.801   1.706
70009W        W70874  24.693  21.263   2.643
70010W        W70875  24.277  21.412   1.754
70011W        W70876  24.296  20.392   1.348
70012W        W70877  23.758  18.617   0.419
70013W        W70878  25.439  18.245   1.141
70014W        W70879  23.127  19.880   0.304
70015W        W70880  25.293  19.217   1.294
70016W        W70881  23.985  20.387   0.171
70017W        W70882  24.921  20.587   2.919
70018W        W70883  24.575  21.288   0.386
70019W        W70884  23.190  18.963   3.292
70020W        W70885  23.010  19.547   2.533
70021W        W70886  25.102  21.042   2.810
70022W        W70887  24.202  18.992   3.187
70023W        W70888  22.046  19.463   2.964
70024W        W70889  23.806  19.940   2.690
70025W        W70890  22.163  20.698   1.347
70026W        W70891  22.310  19.995   2.237
70027W        W70892  24.627  20.281   2.587
70028W        W70893  24.399  21.661   3.398
70029W        W70894  24.295  19.400   2.951
70030W        W70895  24.572  21.454   1.356
70031W        W70896  23.574  21.174   2.679
70032W        W70897  23.059  21.529   1.948
70033W        W70898  24.864  20.700   2.367
70034W        W70899  23.914  20.772   3.504
70035W        W70900  22.519  20.725   1.843
70036W        W70901  24.865  20.484   1.488
70037W        W70902  24.506  21.550   2.239
70038W        W70903  22.484  21.279   2.109
70039W        W70904  23.505  19.331   3.319
70040W        W70905  23.956  21.497   0.830
70041W        W70906  23.264  20.752   3.468
70042W        W70907  23.390  20.990   0.845
70043W        W70908  22.611  19.730   0.104
70044W        W70909  21.950  21.816   7.003
70045W        W70910  22.326  20.709   6.526
70046W        W70911  25.031  20.439   4.296
70047W        W70912  25.161  21.524   6.323
70048W        W70913  23.079  21.515   3.849
70049W        W70914  23.162  19.667   4.832
70050W        W70915  22.677  19.515   4.996
70051W        W70916  23.668  20.330   4.430
70052W        W70917  23.343  21.422   6.785
70053W        W70918  21.992  18.983   6.748
70054W        W70919  22.754  18.263   6.550
70055W        W70920  24.448  18.651   5.437
70056W        W70921  24.097  19.522   4.007
70057W        W70922  24.667  18.956   7.098
70058W        W70923  22.033  18.748   6.223
70059W        W70924  22.132  21.367   7.244
70060W        W70925  23.654  20.757   3.976
70061W        W70926  22.086  19.540   5.669
70062W        W70927  22.979  19.431   6.906
70063W        W70928  25.438  19.290   5.405
70064W        W70929  25.202  20.333   6.264
70065W        W70930  23.510  19.666   5.291
70066W        W70931  24.056  21.005   5.660
70067W        W70932  22.556  20.439   5.892
70068W        W70933  21.915  19.967   5.463
70069W        W70934  22.951  19.939   6.655
70070W        W70935  25.222  19.722   6.909
70071W        W70936  22.838  21.166   5.354
70072W        W70937  23.959  20.855   6.488
70073W        W70938  23.179  19.495   5.713
70074W        W70939  23.471  20.279   5.356
70075W        W70940  24.468  21.052   7.204
70076W        W70941  23.547  20.372   7.214
70077W        W70942  23.528  20.088   6.692
70078W        W70943  21.937  19.479   7.214
70079W        W70944  24.769  21.014   6.813
70080W        W70945  22.350  18.596   4.811
70081W        W70946  22.877  20.854   5.810
70082W        W70947  25.340  20.637   5.100
70083W        W70948  24.753  19.037   5.667
70084W        W70949  25.038  18.990   3.762
70085W        W70950  25.503  19.791   6.068
70086W        W70951  23.470  21.498   5.821
70087W        W70952  25.244  20.964   4.259
70088W        W70953  22.373  21.750   4.013
70089W        W70954  22.766  21.796   4.689
70090W        W70955  22.563  18.550   6.115
70091W        W70956  25.186  19.568   6.390
70092W        W70957  24.591  19.990   4.849
70093W        W70958  24.557  19.678   3.876
70094W        W70959  23.765  20.822   6.016
70095W        W70960  23.571  19.152   5.215
70096W        W70961  24.171  21.239   6.209
70097W        W70962  25.042  20.030   4.631
70098W        W70963  23.944  18.688   4.647
70099W        W70964  22.601  21.382   4.330
70100W        W70965  21.972  18.881   4.929
70101W        W70966  24.758  19.488   5.403
70102W        W70967  22.216  21.105   5.318
70103W        W70968  23.557  21.455   4.188
70104W        W70969  24.949  19.481   3.652
70105W        W70970  21.972  21.239   5.816
70106W        W70971  22.763  20.811   6.296
70107W        W70972  23.136  20.171   4.915
70108W        W70973  23.158  18.576   6.008
70109W        W70974  25.387  18.338   5.305
70110W        W70975  22.606  20.210   3.773
70111W        W70976  22.261  19.243   3.952
70112W        W70977  22.323  21.199   4.746
70113W        W70978  23.454  20.682   4.994
70114W        W70979  24.786  21.541   6.708
70115W        W70980  23.712  19.183   4.392
70116W        W70981  25.095  21.581   5.164
70117W        W70982  24.772  19.434   6.762
70118W        W70983  25.485  21.090   4.896
70119W        W70984  24.112  20.382   6.380
70120W        W70985  21.878  19.933   4.586
70121W        W70986  22.989  20.348   6.159
70122W        W70987  24.193  19.612   4.537
70123W        W70988  24.070  20.102   4.641
70124W        W70989  22.413  19.522   6.115
70125W        W70990  22.398  19.398   7.037
70126W        W70991  22.288  18.315   5.196
70127W        W70992  24.056  18.662   5.757
70128W        W70993  23.704  18.847   6.920
70129W        W70994  24.059  18.996   4.098
70130W        W70995  25.242  21.389   6.852
70131W        W70996  24.209  18.470   6.891
70132W        W70997  25.228  20.771   7.013
70133W        W70998  24.658  18.938   6.609
70134W        W70999  24.458  18.876   4.879
70135W        W71000  24.851  20.010   7.283
70136W        W71001  22.591  21.586   5.269
70137W        W71002  23.249  19.303   4.255
70138W        W71003  22.818  18.587   6.919
70139W        W71004  24.870  19.071   4.600
70140W        W71005  25.237  19.553   4.545
70141W        W71006  22.980  21.770   7.016
70142W        W71007  22.906  18.306   4.251
70143W        W71008  25.227  18.840   5.286
70144W        W71009  25.377  21.089   3.731
70145W        W71010  22.284  20.292   5.433
70146W        W71011  24.201  18.879   3.663
70147W        W71012  25.335  21.211   5.383
70148W        W71013  25.374  18.405   6.133
70149W        W71014  23.819  19.617   6.687
70150W        W71015  23.912  20.956   4.390
70151W        W71016  24.312  20.250   7.130
70152W        W71017  23.986  18.227   5.439
70153W        W71018  22.598  19.130   5.502
70154W        W71019  22.152  20.330   6.276
70155W        W71020  24.011  21.523   4.982
70156W        W71021  25.205  19.120   5.854
70157W        W71022  23.842  21.467   6.621
70158W        W71023  25.185  20.526   3.826
70159W        W71024  23.620  20.009   4.887
70160W        W71025  25.472  18.520   6.628
70161W        W71026  23.621  20.355   6.222
70162W        W71027  23.838  19.241   5.667
70163W        W71028  24.690  19.539   4.505
70164W        W71029  24.977  19.272   4.147
70165W        W71030  24.786  21.312   4.536
70166W        W71031  24.620  20.915   5.332
70167W        W71032  24.516  19.994   4.310
70168W        W71033  23.949  20.204   5.296
70169W        W71034  24.830  19.992   5.363
70170W        W71035  22.205  19.007   5.787
70171W        W71036  24.983  20.059   6.614
70172W        W71037  25.334  21.677   5.760
70173W        W71038  23.264  21.121   5.162
70174W        W71039  24.271  21.654   6.486
70175W        W71040  24.265  18.984   6.250
70176W        W71041  23.472  21.692   6.311
70177W        W71042  25.169  18.646   4.777
70178W        W71043  24.960  19.965   6.078
70179W        W71044  21.943  19.286   6.116
70180W        W71045  24.803  19.081   5.134
70181W        W71046  25.214  19.232   6.911
70182W        W71047  24.099  20.931   5.129
70183W        W71048  23.355  21.522   4.742
70184W        W71049  22.470  18.702   4.000
70185W        W71050  23.574  18.356   5.810
70186W        W71051  22.602  21.476   3.658
70187W        W71052  22.976  19.942   4.409
70188W        W71053  23.630  20.571   6.722
70189W        W71054  23.460  18.929   4.712
70190W        W71055  24.816  18.526   5.140
70191W        W71056  24.536  21.808   5.468
70192W        W71057  23.948  21.456   5.808
70193W        W71058  23.344  20.493   5.769
70194W        W71059  25.114  21.216   5.895
70195W        W71060  22.808  18.719   4.664
70196W        W71061  23.330  21.016   5.624
70197W        W71062  22.813  18.947   3.689
70198W        W71063  23.614  19.556   6.083
70199W        W71064  24.462  18.422   5.953
70200W        W71065  21.882  20.265   5.838
70201W        W71066  23.586  20.083   3.996
70202W        W71067  22.854  18.398   3.766
70203W        W71068  23.592  19.479   4.817
70204W        W71069  24.562  18.455   6.516
70205W        W71070  23.150  20.467   6.625
70206W        W71071  23.954  20.249   6.842
70207W        W71072  24.571  20.279   6.735
70208W        W71073  23.855  18.419   7.240
70209W        W71074  23.077  19.035   5.633
70210W        W71075  22.503  18.991   5.031
70211W        W71076  22.289  21.703   4.707
70212W        W71077  23.621  21.033   6.832
70213W        W71078  22.656  20.518   4.191
70214W        W71079  24.336  19.903   5.412
70215W        W71080  24.616  19.702   5.811
70216W        W71081  23.821  20.376   5.745
70217W        W71082  24.291  20.750   3.877
70218W        W71083  23.963  18.771   5.205
70219W        W71084  25.442  19.049   4.473
70220W        W71085  21.936  21.638   6.504
70221W        W71086  22.353  20.864   6.036
70222W        W71087  21.920  21.710   4.268
70223W        W71088  23.819  18.980   6.074
70224W        W71089  23.182  21.003   3.923
70225W        W71090  25.087  21.385   4.109
70226W        W71091  24.062  20.038   4.123
70227W        W71092  22.905  19.229   4.640
70228W        W71093  23.737  19.139   3.692
70229W        W71094  24.321  20.704   6.870
70230W        W71095  24.674  18.610   4.487
70231W        W71096  22.004  18.458   3.935
70232W        W71097  23.290  20.777   6.225
70233W        W71098  23.089  20.693   5.317
70234W        W71099  22.831  20.645   3.715
70235W        W71100  22.072  20.886   4.483
70236W        W71101  22.576  19.956   6.925
70237W        W71102  23.280  18.516   7.111
70238W        W71103  23.989  18.658   6.467
70239W        W71104  23.184  18.426   4.748
70240W        W71105  24.243  18.503   4.253
70241W        W71106  22.188  18.435   5.830
70242W        W71107  22.236  19.398   5.200
70243W        W71108  24.925  18.506   5.606
70244W        W71109  22.347  19.004   4.420
70245W        W71110  24.918  18.692   6.036
70246W        W71111  25.314  19.895   3.721
70247W        W71112  22.606  18.653   5.540
70248W        W71113  23.720  19.225   6.480
70249W        W71114  21.868  18.915   3.958
70250W        W71115  22.654  20.304   6.519
70251W        W71116  24.012  19.702   5.698
70252W        W71117  23.879  21.781   3.994
70253W        W71118  22.025  20.288   3.691
70254W        W71119  22.760  20.699   6.817
70255W        W71120  22.281  19.866   6.448
70256W        W71121  23.272  19.971   6.242
70257W        W71122  25.040  18.330   6.504
70258W        W71123  25.438  19.940   6.495
70259W        W71124  25.426  20.140   4.181
70260W        W71125  24.289  20.472   4.280
70261W        W71126  24.763  21.772   3.975
70262W        W71127  23.940  19.762   7.117
70263W        W71128  22.270  20.729   7.157
70264W        W71129  25.476  18.651   7.109
70265W        W71130  25.194  19.579   5.730
70266W        W71131  23.502  21.709   7.207
70267W        W71132  23.357  18.338   3.934
70268W        W71133  24.896  20.937   3.877
70269W        W71134  22.665  19.030   6.763
70270W        W71135  23.099  21.024   6.625
70271W        W71136  25.225  19.015   6.423
70272W        W71137  24.436  21.674   4.391
70273W        W71138  24.675  20.293   5.758
70274W        W71139  22.925  18.709   6.425
70275W        W71140  23.394  19.778   7.182
70276W        W71141  22.897  20.957   4.376
70277W        W71142  24.652  20.455   4.640
70278W        W71143  22.420  19.081   6.364
70279W        W71144  23.749  21.143   4.828
70280W        W71145  25.499  19.703   5.009
70281W        W71146  23.721  18.336   6.728
70282W        W71147  24.501  21.041   5.807
70283W        W71148  24.804  21.385   5.515
70284W        W71149  24.023  21.187   3.943
70285W        W71150  22.033  21.079   6.785
70286W        W71151  22.776  19.071   6.023
70287W        W71152  22.746  18.419   5.133
70288W        W71153  24.367  19.261   5.825
70289W        W71154  23.165  20.432   4.025
70290W        W71155  25.163  20.374   5.524
70291W        W71156  22.490  21.132   6.947
70292W        W71157  24.877  21.814   4.744
70293W        W71158  22.976  18.834   5.189
70294W        W71159  22.745  20.327   5.279
70295W        W71160  23.058  21.738   6.029
70296W        W71161  25.125  21.834   7.061
70297W        W71162  24.284  20.022   5.994
70298W        W71163  22.133  19.820   3.909
70299W        W71164  25.267  21.478   4.606
70300W        W71165  25.104  18.802   4.225
70301W        W71166  23.243  18.321   6.628
70302W        W71167  24.949  21.123   5.086
70303W        W71168  24.978  19.679   4.991
70304W        W71169  23.095  19.352   5.207
70305W        W71170  23.340  19.614   6.531
70306W        W71171  24.451  20.767   6.394
70307W        W71172  23.101  19.221   6.506
70308W        W71173  23.080  21.687   5.122
70309W        W71174  22.397  21.646   6.756
70310W        W71175  22.509  21.007   3.886
70311W        W71176  25.026  20.765   4.696
70312W        W71177  22.630  19.557   6.582
70313W        W71178  25.403  19.487   4.063
70314W        W71179  23.148  20.544   4.534
70315W        W71180  24.247  19.926   6.615
70316W        W71181  24.138  19.554   6.159
70317W        W71182  22.698  19.926   6.188
70318W        W71183  24.908  21.814   6.017
70319W        W71184  24.699  18.448   7.011
70320W        W71185  22.363  18.598   6.598
70321W        W71186  22.702  19.621   5.651
70322W        W71187  23.071  19.435   3.773
70323W        W71188  21.874  21.194   6.318
70324W        W71189  23.459  19.903   5.761
70325W        W71190  23.282  18.928   3.866
70326W        W71191  22.417  19.744   4.647
70327W        W71192  22.188  21.596   6.084
70328W        W71193  24.983  19.822   4.192
70329W        W71194  25.078  18.738   6.878
70330W        W71195  24.514  20.947   4.841
70331W        W71196  22.112  19.871   7.018
70332W        W71197  25.078  18.335   4.314
70333W        W71198  24.598  20.810   4.325
70334W        W71199  23.500  19.868   4.410
70335W        W71200  24.687  18.672   3.933
70336W        W71201  24.752  19.279   6.119
70337W        W71202  22.461  19.872   5.326
70338W        W71203  22.755  20.811   4.975
70339W        W71204  24.518  19.431   4.940
70340W        W71205  23.541  18.810   5.636
70341W        W71206  25.503  20.721   6.147
70342W        W71207  25.421  18.708   5.708
70343W        W71208  21.960  21.538   5.084
70344W        W71209  22.469  20.725   4.620
70345W        W71210  22.384  18.342   7.173
70346W        W71211  23.503  21.195   7.275
70347W        W71212  25.258  20.163   5.065
70348W        W71213  24.612  20.340   3.945
70349W        W71214  23.907  21.861   6.157
70350W        W71215  24.764  20.583   7.194
70351W        W71216  23.579  18.293   4.474
70352W        W71217  24.292  19.162   5.333
70353W        W71218  21.978  20.749   5.665
70354W        W71219  23.231  18.711   4.306
70355W        W71220  23.035  20.195   7.155
70356W        W71221  24.029  19.176   4.869
70357W        W71222  24.234  20.586   5.991
70358W        W71223  22.388  21.191   6.426
70359W        W71224  22.979  21.174   7.149
70360W        W71225  22.830  18.971   4.163
70361W        W71226  24.347  19.113   4.488
70362W        W71227  24.305  21.221   6.725
70363W        W71228  22.990  19.813   5.324
70364W        W71229  22.645  21.511   6.189
70365W        W71230  25.390  21.628   3.790
70366W        W71231  22.253  20.300   6.786
70367W        W71232  24.248  20.562   5.474
70368W        W71233  22.684  20.211   4.716
70369W        W71234  23.055  21.218   6.111
70370W        W71235  23.433  18.637   5.152
70371W        W71236  22.044  20.621   4.082
70372W        W71237  23.563  19.572   3.952
70373W        W71238  22.209  20.121   4.971
70374W        W71239  23.499  18.763   6.435
70375W        W71240  25.171  18.472   3.862
70376W        W71241  25.264  20.218   6.961
70377W        W71242  23.918  21.475   7.113
70378W        W71243  25.476  20.569   6.635
70379W        W71244  24.884  21.367   7.246
70380W        W71245  22.623  21.823   5.724
70381W        W71246  25.482  20.445   4.598
70382W        W71247  24.012  19.712   5.111
70383W        W71248  23.779  18.324   5.001
70384W        W71249  22.838  21.308   4.838
70385W        W71250  23.337  19.049   6.063
70386W        W71251  23.037  18.418   5.532
70387W        W71252  22.100  21.240   4.080
70388W        W71253  23.916  20.604   4.798
70389W        W71254  22.791  21.399   6.677
70390W        W71255  22.268  20.222   4.373
70391W        W71256  22.153  18.765   5.372
70392W        W71257  23.701  20.730   5.429
70393W        W71258  21.953  18.584   4.449
70394W        W71259  24.617  19.790   6.376
70395W        W71260  24.494  19.176   3.948
70396W        W71261  25.011  20.848   5.596
70397W        W71262  23.672  21.332   5.427
70398W        W71263  23.084  21.436   4.338
70399W        W71264  24.366  18.339   3.768
70400W        W71265  22.166  21.599   5.509
70401W        W71266  24.363  19.357   7.144
70402W        W71267  22.346  18.887   7.143
70403W        W71268  22.077  19.487   4.476
70404W        W71269  22.768  19.476   4.201
70405W        W71270  24.531  19.803   7.018
70406W        W71271  22.874  20.084   5.727
70407W        W71272  24.348  18.370   4.847
70408W        W71273  23.479  21.801   5.350
70409W        W71274  24.693  21.263   6.287
70410W        W71275  24.277  21.412   5.398
70411W        W71276  24.296  20.392   4.992
70412W        W71277  23.758  18.617   4.063
70413W        W71278  25.439  18.245   4.785
70414W        W71279  23.127  19.880   3.948
70415W        W71280  25.293  19.217   4.938
70416W        W71281  23.985  20.387   3.815
70417W        W71282  24.921  20.587   6.563
70418W        W71283  24.575  21.288   4.030
70419W        W71284  23.190  18.963   6.936
70420W        W71285  23.010  19.547   6.177
70421W        W71286  25.102  21.042   6.454
70422W        W71287  24.202  18.992   6.831
70423W        W71288  22.046  19.463   6.608
70424W        W71289  23.806  19.940   6.334
70425W        W71290  22.163  20.698   4.991
70426W        W71291  22.310  19.995   5.881
70427W        W71292  24.627  20.281   6.231
70428W        W71293  24.399  21.661   7.042
70429W        W71294  24.295  19.400   6.595
70430W        W71295  24.572  21.454   5.000
70431W        W71296  23.574  21.174   6.323
70432W        W71297  23.059  21.529   5.592
70433W        W71298  24.864  20.700   6.011
70434W        W71299  23.914  20.772   7.148
70435W        W71300  22.519  20.725   5.487
70436W        W71301  24.865  20.484   5.132
70437W        W71302  24.506  21.550   5.883
70438W        W71303  22.484  21.279   5.753
70439W        W71304  23.505  19.331   6.963
70440W        W71305  23.956  21.497   4.474
70441W        W71306  23.264  20.752   7.112
70442W        W71307  23.390  20.990   4.489
70443W        W71308  22.611  19.730   3.748
70444W        W71309  21.950  21.816  10.648
70445W        W71310  22.326  20.709  10.171
70446W        W71311  25.031  20.439   7.941
70447W        W71312  25.161  21.524   9.968
70448W        W71313  23.079  21.515   7.494
70449W        W71314  23.162  19.667   8.477
70450W        W71315  22.677  19.515   8.641
70451W        W71316  23.668  20.330   8.075
70452W        W71317  23.343  21.422  10.430
70453W        W71318  21.992  18.983  10.393
70454W        W71319  22.754  18.263  10.195
70455W        W71320  24.448  18.651   9.082
70456W        W71321  24.097  19.522   7.652
70457W        W71322  24.667  18.956  10.743
70458W        W71323  22.033  18.748   9.868
70459W        W71324  22.132  21.367  10.889
70460W        W71325  23.654  20.757   7.621
70461W        W71326  22.086  19.540   9.314
70462W        W71327  22.979  19.431  10.551
70463W        W71328  25.438  19.290   9.050
70464W        W71329  25.202  20.333   9.909
70465W        W71330  23.510  19.666   8.936
70466W        W71331  24.056  21.005   9.305
70467W        W71332  22.556  20.439   9.537
70468W        W71333  21.915  19.967   9.108
70469W        W71334  22.951  19.939  10.300
70470W        W71335  25.222  19.722  10.554
70471W        W71336  22.838  21.166   8.999
70472W        W71337  23.959  20.855  10.133
70473W        W71338  23.179  19.495   9.358
70474W        W71339  23.471  20.279   9.001
70475W        W71340  24.468  21.052  10.849
70476W        W71341  23.547  20.372  10.859
70477W        W71342  23.528  20.088  10.337
70478W        W71343  21.937  19.479  10.859
70479W        W71344  24.769  21.014  10.458
70480W        W71345  22.350  18.596   8.456
70481W        W71346  22.877  20.854   9.455
70482W        W71347  25.340  20.637   8.745
70483W        W71348  24.753  19.037   9.312
70484W        W71349  25.038  18.990   7.407
70485W        W71350  25.503  19.791   9.713
70486W        W71351  23.470  21.498   9.466
70487W        W71352  25.244  20.964   7.904
70488W        W71353  22.373  21.750   7.658
70489W        W71354  22.766  21.796   8.334
70490W        W71355  22.563  18.550   9.760
70491W        W71356  25.186  19.568  10.035
70492W        W71357  24.591  19.990   8.494
70493W        W71358  24.557  19.678   7.521
70494W        W71359  23.765  20.822   9.661
70495W        W71360  23.571  19.152   8.860
70496W        W71361  24.171  21.239   9.854
70497W        W71362  25.042  20.030   8.276
70498W        W71363  23.944  18.688   8.292
70499W        W71364  22.601  21.382   7.975
70500W        W71365  21.972  18.881   8.574
70501W        W71366  24.758  19.488   9.048
70502W        W71367  22.216  21.105   8.963
70503W        W71368  23.557  21.455   7.833
70504W        W71369  24.949  19.481   7.297
70505W        W71370  21.972  21.239   9.461
70506W        W71371  22.763  20.811   9.941
70507W        W71372  23.136  20.171   8.560
70508W        W71373  23.158  18.576   9.653
70509W        W71374  25.387  18.338   8.950
70510W        W71375  22.606  20.210   7.418
70511W        W71376  22.261  19.243   7.597
70512W        W71377  22.323  21.199   8.391
70513W        W71378  23.454  20.682   8.639
70514W        W71379  24.786  21.541  10.353
70515W        W71380  23.712  19.183   8.037
70516W        W71381  25.095  21.581   8.809
70517W        W71382  24.772  19.434  10.407
70518W        W71383  25.485  21.090   8.541
70519W        W71384  24.112  20.382  10.025
70520W        W71385  21.878  19.933   8.231
70521W        W71386  22.989  20.348   9.804
70522W        W71387  24.193  19.612   8.182
70523W        W71388  24.070  20.102   8.286
70524W        W71389  22.413  19.522   9.760
70525W        W71390  22.398  19.398  10.682
70526W        W71391  22.288  18.315   8.841
70527W        W71392  24.056  18.662   9.402
70528W        W71393  23.704  18.847  10.565
70529W        W71394  24.059  18.996   7.743
70530W        W71395  25.242  21.389  10.497
70531W        W71396  24.209  18.470  10.536
70532W        W71397  25.228  20.771  10.658
70533W        W71398  24.658  18.938  10.254
70534W        W71399  24.458  18.876   8.524
70535W        W71400  24.851  20.010  10.928
70536W        W71401  22.591  21.586   8.914
70537W        W71402  23.249  19.303   7.900
70538W        W71403  22.818  18.587  10.564
70539W        W71404  24.870  19.071   8.245
70540W        W71405  25.237  19.553   8.190
70541W        W71406  22.980  21.770  10.661
70542W        W71407  22.906  18.306   7.896
70543W        W71408  25.227  18.840   8.931
70544W        W71409  25.377  21.089   7.376
70545W        W71410  22.284  20.292   9.078
70546W        W71411  24.201  18.879   7.308
70547W        W71412  25.335  21.211   9.028
70548W        W71413  25.374  18.405   9.778
70549W        W71414  23.819  19.617  10.332
70550W        W71415  23.912  20.956   8.035
70551W        W71416  24.312  20.250  10.775
70552W        W71417  23.986  18.227   9.084
70553W        W71418  22.598  19.130   9.147
70554W        W71419  22.152  20.330   9.921
70555W        W71420  24.011  21.523   8.627
70556W        W71421  25.205  19.120   9.499
70557W        W71422  23.842  21.467  10.266
70558W        W71423  25.185  20.526   7.471
70559W        W71424  23.620  20.009   8.532
70560W        W71425  25.472  18.520  10.273
70561W        W71426  23.621  20.355   9.867
70562W        W71427  23.838  19.241   9.312
70563W        W71428  24.690  19.539   8.150
70564W        W71429  24.977  19.272   7.792
70565W        W71430  24.786  21.312   8.181
70566W        W71431  24.620  20.915   8.977
70567W        W71432  24.516  19.994   7.955
70568W        W71433  23.949  20.204   8.941
70569W        W71434  24.830  19.992   9.008
70570W        W71435  22.205  19.007   9.432
70571W        W71436  24.983  20.059  10.259
70572W        W71437  25.334  21.677   9.405
70573W        W71438  23.264  21.121   8.807
70574W        W71439  24.271  21.654  10.131
70575W        W71440  24.265  18.984   9.895
70576W        W71441  23.472  21.692   9.956
70577W        W71442  25.169  18.646   8.422
70578W        W71443  24.960  19.965   9.723
70579W        W71444  21.943  19.286   9.761
70580W        W71445  24.803  19.081   8.779
70581W        W71446  25.214  19.232  10.556
70582W        W71447  24.099  20.931   8.774
70583W        W71448  23.355  21.522   8.387
70584W        W71449  22.470  18.702   7.645
70585W        W71450  23.574  18.356   9.455
70586W        W71451  22.602  21.476   7.303
70587W        W71452  22.976  19.942   8.054
70588W        W71453  23.630  20.571  10.367
70589W        W71454  23.460  18.929   8.357
70590W        W71455  24.816  18.526   8.785
70591W        W71456  24.536  21.808   9.113
70592W        W71457  23.948  21.456   9.453
70593W        W71458  23.344  20.493   9.414
70594W        W71459  25.114  21.216   9.540
70595W        W71460  22.808  18.719   8.309
70596W        W71461  23.330  21.016   9.269
70597W        W71462  22.813  18.947   7.334
70598W        W71463  23.614  19.556   9.728
70599W        W71464  24.462  18.422   9.598
70600W        W71465  21.882  20.265   9.483
70601W        W71466  23.586  20.083   7.641
70602W        W71467  22.854  18.398   7.411
70603W        W71468  23.592  19.479   8.462
70604W        W71469  24.562  18.455  10.161
70605W        W71470  23.150  20.467  10.270
70606W        W71471  23.954  20.249  10.487
70607W        W71472  24.571  20.279  10.380
70608W        W71473  23.855  18.419  10.885
70609W        W71474  23.077  19.035   9.278
70610W        W71475  22.503  18.991   8.676
70611W        W71476  22.289  21.703   8.352
70612W        W71477  23.621  21.033  10.477
70613W        W71478  22.656  20.518   7.836
70614W        W71479  24.336  19.903   9.057
70615W        W71480  24.616  19.702   9.456
70616W        W71481  23.821  20.376   9.390
70617W        W71482  24.291  20.750   7.522
70618W        W71483  23.963  18.771   8.850
70619W        W71484  25.442  19.049   8.118
70620W        W71485  21.936  21.638  10.149
70621W        W71486  22.353  20.864   9.681
70622W        W71487  21.920  21.710   7.913
70623W        W71488  23.819  18.980   9.719
70624W        W71489  23.182  21.003   7.568
70625W        W71490  25.087  21.385   7.754
70626W        W71491  24.062  20.038   7.768
70627W        W71492  22.905  19.229   8.285
70628W        W71493  23.737  19.139   7.337
70629W        W71494  24.321  20.704  10.515
70630W        W71495  24.674  18.610   8.132
70631W        W71496  22.004  18.458   7.580
70632W        W71497  23.290  20.777   9.870
70633W        W71498  23.089  20.693   8.962
70634W        W71499  22.831  20.645   7.360
70635W        W71500  22.072  20.886   8.128
70636W        W71501  22.576  19.956  10.570
70637W        W71502  23.280  18.516  10.756
70638W        W71503  23.989  18.658  10.112
70639W        W71504  23.184  18.426   8.393
70640W        W71505  24.243  18.503   7.898
70641W        W71506  22.188  18.435   9.475
70642W        W71507  22.236  19.398   8.845
70643W        W71508  24.925  18.506   9.251
70644W        W71509  22.347  19.004   8.065
70645W        W71510  24.918  18.692   9.681
70646W        W71511  25.314  19.895   7.366
70647W        W71512  22.606  18.653   9.185
70648W        W71513  23.720  19.225  10.125
70649W        W71514  21.868  18.915   7.603
70650W        W71515  22.654  20.304  10.164
70651W        W71516  24.012  19.702   9.343
70652W        W71517  23.879  21.781   7.639
70653W        W71518  22.025  20.288   7.336
70654W        W71519  22.760  20.699  10.462
70655W        W71520  22.281  19.866  10.093
70656W        W71521  23.272  19.971   9.887
70657W        W71522  25.040  18.330  10.149
70658W        W71523  25.438  19.940  10.140
70659W        W71524  25.426  20.140   7.826
70660W        W71525  24.289  20.472   7.925
70661W        W71526  24.763  21.772   7.620
70662W        W71527  23.940  19.762  10.762
70663W        W71528  22.270  20.729  10.802
70664W        W71529  25.476  18.651  10.754
70665W        W71530  25.194  19.579   9.375
70666W        W71531  23.502  21.709  10.852
70667W        W71532  23.357  18.338   7.579
70668W        W71533  24.896  20.937   7.522
70669W        W71534  22.665  19.030  10.408
70670W        W71535  23.099  21.024  10.270
70671W        W71536  25.225  19.015  10.068
70672W        W71537  24.436  21.674   8.036
70673W        W71538  24.675  20.293   9.403
70674W        W71539  22.925  18.709  10.070
70675W        W71540  23.394  19.778  10.827
70676W        W71541  22.897  20.957   8.021
70677W        W71542  24.652  20.455   8.285
70678W        W71543  22.420  19.081  10.009
70679W        W71544  23.749  21.143   8.473
70680W        W71545  25.499  19.703   8.654
70681W        W71546  23.721  18.336  10.373
70682W        W71547  24.501  21.041   9.452
70683W        W71548  24.804  21.385   9.160
70684W        W71549  24.023  21.187   7.588
70685W        W71550  22.033  21.079  10.430
70686W        W71551  22.776  19.071   9.668
70687W        W71552  22.746  18.419   8.778
70688W        W71553  24.367  19.261   9.470
70689W        W71554  23.165  20.432   7.670
70690W        W71555  25.163  20.374   9.169
70691W        W71556  22.490  21.132  10.592
70692W        W71557  24.877  21.814   8.389
70693W        W71558  22.976  18.834   8.834
70694W        W71559  22.745  20.327   8.924
70695W        W71560  23.058  21.738   9.674
70696W        W71561  25.125  21.834  10.706
70697W        W71562  24.284  20.022   9.639
70698W        W71563  22.133  19.820   7.554
70699W        W71564  25.267  21.478   8.251
70700W        W71565  25.104  18.802   7.870
70701W        W71566  23.243  18.321  10.273
70702W        W71567  24.949  21.123   8.731
70703W        W71568  24.978  19.679   8.636
70704W        W71569  23.095  19.352   8.852
70705W        W71570  23.340  19.614  10.176
70706W        W71571  24.451  20.767  10.039
70707W        W71572  23.101  19.221  10.151
70708W        W71573  23.080  21.687   8.767
70709W        W71574  22.397  21.646  10.401
70710W        W71575  22.509  21.007   7.531
70711W        W71576  25.026  20.765   8.341
70712W        W71577  22.630  19.557  10.227
70713W        W71578  25.403  19.487   7.708
70714W        W71579  23.148  20.544   8.179
70715W        W71580  24.247  19.926  10.260
70716W        W71581  24.138  19.554   9.804
70717W        W71582  22.698  19.926   9.833
70718W        W71583  24.908  21.814   9.662
70719W        W71584  24.699  18.448  10.656
70720W        W71585  22.363  18.598  10.243
70721W        W71586  22.702  19.621   9.296
70722W        W71587  23.071  19.435   7.418
70723W        W71588  21.874  21.194   9.963
70724W        W71589  23.459  19.903   9.406
70725W        W71590  23.282  18.928   7.511
70726W        W71591  22.417  19.744   8.292
70727W        W71592  22.188  21.596   9.729
70728W        W71593  24.983  19.822   7.837
70729W        W71594  25.078  18.738  10.523
70730W        W71595  24.514  20.947   8.486
70731W        W71596  22.112  19.871  10.663
70732W        W71597  25.078  18.335   7.959
70733W        W71598  24.598  20.810   7.970
70734W        W71599  23.500  19.868   8.055
70735W        W71600  24.687  18.672   7.578
70736W        W71601  24.752  19.279   9.764
70737W        W71602  22.461  19.872   8.971
70738W        W71603  22.755  20.811   8.620
70739W        W71604  24.518  19.431   8.585
70740W        W71605  23.541  18.810   9.281
70741W        W71606  25.503  20.721   9.792
70742W        W71607  25.421  18.708   9.353
70743W        W71608  21.960  21.538   8.729
70744W        W71609  22.469  20.725   8.265
70745W        W71610  22.384  18.342  10.818
70746W        W71611  23.503  21.195  10.920
70747W        W71612  25.258  20.163   8.710
70748W        W71613  24.612  20.340   7.590
70749W        W71614  23.907  21.861   9.802
70750W        W71615  24.764  20.583  10.839
70751W        W71616  23.579  18.293   8.119
70752W        W71617  24.292  19.162   8.978
70753W        W71618  21.978  20.749   9.310
70754W        W71619  23.231  18.711   7.951
70755W        W71620  23.035  20.195  10.800
70756W        W71621  24.029  19.176   8.514
70757W        W71622  24.234  20.586   9.636
70758W        W71623  22.388  21.191  10.071
70759W        W71624  22.979  21.174  10.794
70760W        W71625  22.830  18.971   7.808
70761W        W71626  24.347  19.113   8.133
70762W        W71627  24.305  21.221  10.370
70763W        W71628  22.990  19.813   8.969
70764W        W71629  22.645  21.511   9.834
70765W        W71630  25.390  21.628   7.435
70766W        W71631  22.253  20.300  10.431
70767W        W71632  24.248  20.562   9.119
70768W        W71633  22.684  20.211   8.361
70769W        W71634  23.055  21.218   9.756
70770W        W71635  23.433  18.637   8.797
70771W        W71636  22.044  20.621   7.727
70772W        W71637  23.563  19.572   7.597
70773W        W71638  22.209  20.121   8.616
70774W        W71639  23.499  18.763  10.080
70775W        W71640  25.171  18.472   7.507
70776W        W71641  25.264  20.218  10.606
70777W        W71642  23.918  21.475  10.758
70778W        W71643  25.476  20.569  10.280
70779W        W71644  24.884  21.367  10.891
70780W        W71645  22.623  21.823   9.369
70781W        W71646  25.482  20.445   8.243
70782W        W71647  24.012  19.712   8.756
70783W        W71648  23.779  18.324   8.646
70784W        W71649  22.838  21.308   8.483
70785W        W71650  23.337  19.049   9.708
70786W        W71651  23.037  18.418   9.177
70787W        W71652  22.100  21.240   7.725
70788W        W71653  23.916  20.604   8.443
70789W        W71654  22.791  21.399  10.322
70790W        W71655  22.268  20.222   8.018
70791W        W71656  22.153  18.765   9.017
70792W        W71657  23.701  20.730   9.074
70793W        W71658  21.953  18.584   8.094
70794W        W71659  24.617  19.790  10.021
70795W        W71660  24.494  19.176   7.593
70796W        W71661  25.011  20.848   9.241
70797W        W71662  23.672  21.332   9.072
70798W        W71663  23.084  21.436   7.983
70799W        W71664  24.366  18.339   7.413
70800W        W71665  22.166  21.599   9.154
70801W        W71666  24.363  19.357  10.789
70802W        W71667  22.346  18.887  10.788
70803W        W71668  22.077  19.487   8.121
70804W        W71669  22.768  19.476   7.846
70805W        W71670  24.531  19.803  10.663
70806W        W71671  22.874  20.084   9.372
70807W        W71672  24.348  18.370   8.492
70808W        W71673  23.479  21.801   8.995
70809W        W71674  24.693  21.263   9.932
70810W        W71675  24.277  21.412   9.043
70811W        W71676  24.296  20.392   8.637
70812W        W71677  23.758  18.617   7.708
70813W        W71678  25.439  18.245   8.430
70814W        W71679  23.127  19.880   7.593
70815W        W71680  25.293  19.217   8.583
70816W        W71681  23.985  20.387   7.460
70817W        W71682  24.921  20.587  10.208
70818W        W71683  24.575  21.288   7.675
70819W        W71684  23.190  18.963  10.581
70820W        W71685  23.010  19.547   9.822
70821W        W71686  25.102  21.042  10.099
70822W        W71687  24.202  18.992  10.476
70823W        W71688  22.046  19.463  10.253
70824W        W71689  23.806  19.940   9.979
70825W        W71690  22.163  20.698   8.636
70826W        W71691  22.310  19.995   9.526
70827W        W71692  24.627  20.281   9.876
70828W        W71693  24.399  21.661  10.687
70829W        W71694  24.295  19.400  10.240
70830W        W71695  24.572  21.454   8.645
70831W        W71696  23.574  21.174   9.968
70832W        W71697  23.059  21.529   9.237
70833W        W71698  24.864  20.700   9.656
70834W        W71699  23.914  20.772  10.793
70835W        W71700  22.519  20.725   9.132
70836W        W71701  24.865  20.484   8.777
70837W        W71702  24.506  21.550   9.528
70838W        W71703  22.484  21.279   9.398
70839W        W71704  23.505  19.331  10.608
70840W        W71705  23.956  21.497   8.119
70841W        W71706  23.264  20.752  10.757
70842W        W71707  23.390  20.990   8.134
70843W        W71708  22.611  19.730   7.393
70844W        W71709  21.950  21.816  14.292
70845W        W71710  22.326  20.709  13.815
70846W        W71711  25.031  20.439  11.585
70847W        W71712  25.161  21.524  13.612
70848W        W71713  23.079  21.515  11.138
70849W        W71714  23.162  19.667  12.121
70850W        W71715  22.677  19.515  12.285
70851W        W71716  23.668  20.330  11.719
70852W        W71717  23.343  21.422  14.074
70853W        W71718  21.992  18.983  14.037
70854W        W71719  22.754  18.263  13.839
70855W        W71720  24.448  18.651  12.726
70856W        W71721  24.097  19.522  11.296
70857W        W71722  24.667  18.956  14.387
70858W        W71723  22.033  18.748  13.512
70859W        W71724  22.132  21.367  14.533
70860W        W71725  23.654  20.757  11.265
70861W        W71726  22.086  19.540  12.958
70862W        W71727  22.979  19.431  14.195
70863W        W71728  25.438  19.290  12.694
70864W        W71729  25.202  20.333  13.553
70865W        W71730  23.510  19.666  12.580
70866W        W71731  24.056  21.005  12.949
70867W        W71732  22.556  20.439  13.181
70868W        W71733  21.915  19.967  12.752
70869W        W71734  22.951  19.939  13.944
70870W        W71735  25.222  19.722  14.198
70871W        W71736  22.838  21.166  12.643
70872W        W71737  23.959  20.855  13.777
70873W        W71738  23.179  19.495  13.002
70874W        W71739  23.471  20.279  12.645
70875W        W71740  24.468  21.052  14.493
70876W        W71741  23.547  20.372  14.503
70877W        W71742  23.528  20.088  13.981
70878W        W71743  21.937  19.479  14.503
70879W        W71744  24.769  21.014  14.102
70880W        W71745  22.350  18.596  12.100
70881W        W71746  22.877  20.854  13.099
70882W        W71747  25.340  20.637  12.389
70883W        W71748  24.753  19.037  12.956
70884W        W71749  25.038  18.990  11.051
70885W        W71750  25.503  19.791  13.357
70886W        W71751  23.470  21.498  13.110
70887W        W71752  25.244  20.964  11.548
70888W        W71753  22.373  21.750  11.302
70889W        W71754  22.766  21.796  11.978
70890W        W71755  22.563  18.550  13.404
70891W        W71756  25.186  19.568  13.679
70892W        W71757  24.591  19.990  12.138
70893W        W71758  24.557  19.678  11.165
70894W        W71759  23.765  20.822  13.305
70895W        W71760  23.571  19.152  12.504
70896W        W71761  24.171  21.239  13.498
70897W        W71762  25.042  20.030  11.920
70898W        W71763  23.944  18.688  11.936
70899W        W71764  22.601  21.382  11.619
70900W        W71765  21.972  18.881  12.218
70901W        W71766  24.758  19.488  12.692
70902W        W71767  22.216  21.105  12.607
70903W        W71768  23.557  21.455  11.477
70904W        W71769  24.949  19.481  10.941
70905W        W71770  21.972  21.239  13.105
70906W        W71771  22.763  20.811  13.585
70907W        W71772  23.136  20.171  12.204
70908W        W71773  23.158  18.576  13.297
70909W        W71774  25.387  18.338  12.594
70910W        W71775  22.606  20.210  11.062
70911W        W71776  22.261  19.243  11.241
70912W        W71777  22.323  21.199  12.035
70913W        W71778  23.454  20.682  12.283
70914W        W71779  24.786  21.541  13.997
70915W        W71780  23.712  19.183  11.681
70916W        W71781  25.095  21.581  12.453
70917W        W71782  24.772  19.434  14.051
70918W        W71783  25.485  21.090  12.185
70919W        W71784  24.112  20.382  13.669
70920W        W71785  21.878  19.933  11.875
70921W        W71786  22.989  20.348  13.448
70922W        W71787  24.193  19.612  11.826
70923W        W71788  24.070  20.102  11.930
70924W        W71789  22.413  19.522  13.404
70925W        W71790  22.398  19.398  14.326
70926W        W71791  22.288  18.315  12.485
70927W        W71792  24.056  18.662  13.046
70928W        W71793  24.059  18.996  11.387
70929W        W71794  25.242  21.389  14.141
70930W        W71795  24.209  18.470  14.180
70931W        W71796  25.228  20.771  14.302
70932W        W71797  24.658  18.938  13.898
70933W        W71798  24.458  18.876  12.168
70934W        W71799  24.851  20.010  14.572
70935W        W71800  22.591  21.586  12.558
70936W        W71801  23.249  19.303  11.544
70937W        W71802  22.818  18.587  14.208
70938W        W71803  24.870  19.071  11.889
70939W        W71804  25.237  19.553  11.834
70940W        W71805  22.980  21.770  14.305
70941W        W71806  22.906  18.306  11.540
70942W        W71807  25.227  18.840  12.575
70943W        W71808  25.377  21.089  11.020
70944W        W71809  22.284  20.292  12.722
70945W        W71810  24.201  18.879  10.952
70946W        W71811  25.335  21.211  12.672
70947W        W71812  25.374  18.405  13.422
70948W        W71813  23.819  19.617  13.976
70949W        W71814  23.912  20.956  11.679
70950W        W71815  24.312  20.250  14.419
70951W        W71816  23.986  18.227  12.728
70952W        W71817  22.598  19.130  12.791
70953W        W71818  22.152  20.330  13.565
70954W        W71819  24.011  21.523  12.271
70955W        W71820  25.205  19.120  13.143
70956W        W71821  23.842  21.467  13.910
70957W        W71822  25.185  20.526  11.115
70958W        W71823  23.620  20.009  12.176
70959W        W71824  25.472  18.520  13.917
70960W        W71825  23.621  20.355  13.511
70961W        W71826  23.838  19.241  12.956
70962W        W71827  24.690  19.539  11.794
70963W        W71828  24.977  19.272  11.436
70964W        W71829  24.786  21.312  11.825
70965W        W71830  24.620  20.915  12.621
70966W        W71831  24.516  19.994  11.599
70967W        W71832  23.949  20.204  12.585
70968W        W71833  24.830  19.992  12.652
70969W        W71834  22.205  19.007  13.076
70970W        W71835  24.983  20.059  13.903
70971W        W71836  25.334  21.677  13.049
70972W        W71837  23.264  21.121  12.451
70973W        W71838  24.271  21.654  13.775
70974W        W71839  24.265  18.984  13.539
70975W        W71840  23.472  21.692  13.600
70976W        W71841  25.169  18.646  12.066
70977W        W71842  24.960  19.965  13.367
70978W        W71843  21.943  19.286  13.405
70979W        W71844  24.803  19.081  12.423
70980W        W71845  25.214  19.232  14.200
70981W        W71846  24.099  20.931  12.418
70982W        W71847  23.355  21.522  12.031
70983W        W71848  22.470  18.702  11.289
70984W        W71849  23.574  18.356  13.099
70985W        W71850  22.602  21.476  10.947
70986W        W71851  22.976  19.942  11.698
70987W        W71852  23.630  20.571  14.011
70988W        W71853  23.460  18.929  12.001
70989W        W71854  24.816  18.526  12.429
70990W        W71855  24.536  21.808  12.757
70991W        W71856  23.948  21.456  13.097
70992W        W71857  23.344  20.493  13.058
70993W        W71858  25.114  21.216  13.184
70994W        W71859  22.808  18.719  11.953
70995W        W71860  23.330  21.016  12.913
70996W        W71861  22.813  18.947  10.978
70997W        W71862  23.614  19.556  13.372
70998W        W71863  24.462  18.422  13.242
70999W        W71864  21.882  20.265  13.127
71000W        W71865  23.586  20.083  11.285
71001W        W71866  22.854  18.398  11.055
71002W        W71867  23.592  19.479  12.106
71003W        W71868  24.562  18.455  13.805
71004W        W71869  23.150  20.467  13.914
71005W        W71870  23.954  20.249  14.131
71006W        W71871  24.571  20.279  14.024
71007W        W71872  23.855  18.419  14.529
71008W        W71873  23.077  19.035  12.922
71009W        W71874  22.503  18.991  12.320
71010W        W71875  22.289  21.703  11.996
71011W        W71876  23.621  21.033  14.121
71012W        W71877  22.656  20.518  11.480
71013W        W71878  24.336  19.903  12.701
71014W        W71879  24.616  19.702  13.100
71015W        W71880  23.821  20.376  13.034
71016W        W71881  24.291  20.750  11.166
71017W        W71882  23.963  18.771  12.494
71018W        W71883  25.442  19.049  11.762
71019W        W71884  21.936  21.638  13.793
71020W        W71885  22.353  20.864  13.325
71021W        W71886  21.920  21.710  11.557
71022W        W71887  23.819  18.980  13.363
71023W        W71888  23.182  21.003  11.212
71024W        W71889  25.087  21.385  11.398
71025W        W71890  24.062  20.038  11.412
71026W        W71891  22.905  19.229  11.929
71027W        W71892  23.737  19.139  10.981
71028W        W71893  24.321  20.704  14.159
71029W        W71894  24.674  18.610  11.776
71030W        W71895  22.004  18.458  11.224
71031W        W71896  23.290  20.777  13.514
71032W        W71897  23.089  20.693  12.606
71033W        W71898  22.831  20.645  11.004
71034W        W71899  22.072  20.886  11.772
71035W        W71900  22.576  19.956  14.214
71036W        W71901  23.280  18.516  14.400
71037W        W71902  23.989  18.658  13.756
71038W        W71903  23.184  18.426  12.037
71039W        W71904  24.243  18.503  11.542
71040W        W71905  22.188  18.435  13.119
71041W        W71906  22.236  19.398  12.489
71042W        W71907  24.925  18.506  12.895
71043W        W71908  22.347  19.004  11.709
71044W        W71909  24.918  18.692  13.325
71045W        W71910  25.314  19.895  11.010
71046W        W71911  22.606  18.653  12.829
71047W        W71912  23.720  19.225  13.769
71048W        W71913  21.868  18.915  11.247
71049W        W71914  22.654  20.304  13.808
71050W        W71915  24.012  19.702  12.987
71051W        W71916  23.879  21.781  11.283
71052W        W71917  22.025  20.288  10.980
71053W        W71918  22.760  20.699  14.106
71054W        W71919  22.281  19.866  13.737
71055W        W71920  23.272  19.971  13.531
71056W        W71921  25.040  18.330  13.793
71057W        W71922  25.438  19.940  13.784
71058W        W71923  25.426  20.140  11.470
71059W        W71924  24.289  20.472  11.569
71060W        W71925  24.763  21.772  11.264
71061W        W71926  23.940  19.762  14.406
71062W        W71927  22.270  20.729  14.446
71063W        W71928  25.476  18.651  14.398
71064W        W71929  25.194  19.579  13.019
71065W        W71930  23.502  21.709  14.496
71066W        W71931  23.357  18.338  11.223
71067W        W71932  24.896  20.937  11.166
71068W        W71933  22.665  19.030  14.052
71069W        W71934  23.099  21.024  13.914
71070W        W71935  25.225  19.015  13.712
71071W        W71936  24.436  21.674  11.680
71072W        W71937  24.675  20.293  13.047
71073W        W71938  22.925  18.709  13.714
71074W        W71939  23.394  19.778  14.471
71075W        W71940  22.897  20.957  11.665
71076W        W71941  24.652  20.455  11.929
71077W        W71942  22.420  19.081  13.653
71078W        W71943  23.749  21.143  12.117
71079W        W71944  25.499  19.703  12.298
71080W        W71945  23.721  18.336  14.017
71081W        W71946  24.501  21.041  13.096
71082W        W71947  24.804  21.385  12.804
71083W        W71948  24.023  21.187  11.232
71084W        W71949  22.033  21.079  14.074
71085W        W71950  22.776  19.071  13.312
71086W        W71951  22.746  18.419  12.422
71087W        W71952  24.367  19.261  13.114
71088W        W71953  23.165  20.432  11.314
71089W        W71954  25.163  20.374  12.813
71090W        W71955  22.490  21.132  14.236
71091W        W71956  24.877  21.814  12.033
71092W        W71957  22.976  18.834  12.478
71093W        W71958  22.745  20.327  12.568
71094W        W71959  23.058  21.738  13.318
71095W        W71960  25.125  21.834  14.350
71096W        W71961  24.284  20.022  13.283
71097W        W71962  22.133  19.820  11.198
71098W        W71963  25.267  21.478  11.895
71099W        W71964  25.104  18.802  11.514
71100W        W71965  23.243  18.321  13.917
71101W        W71966  24.949  21.123  12.375
71102W        W71967  24.978  19.679  12.280
71103W        W71968  23.095  19.352  12.496
71104W        W71969  23.340  19.614  13.820
71105W        W71970  24.451  20.767  13.683
71106W        W71971  23.101  19.221  13.795
71107W        W71972  23.080  21.687  12.411
71108W        W71973  22.397  21.646  14.045
71109W        W71974  22.509  21.007  11.175
71110W        W71975  25.026  20.765  11.985
71111W        W71976  22.630  19.557  13.871
71112W        W71977  25.403  19.487  11.352
71113W        W71978  23.148  20.544  11.823
71114W        W71979  24.247  19.926  13.904
71115W        W71980  24.138  19.554  13.448
71116W        W71981  22.698  19.926  13.477
71117W        W71982  24.908  21.814  13.306
71118W        W71983  24.699  18.448  14.300
71119W        W71984  22.363  18.598  13.887
71120W        W71985  22.702  19.621  12.940
71121W        W71986  23.071  19.435  11.062
71122W        W71987  21.874  21.194  13.607
71123W        W71988  23.459  19.903  13.050
71124W        W71989  23.282  18.928  11.155
71125W        W71990  22.417  19.744  11.936
71126W        W71991  22.188  21.596  13.373
71127W        W71992  24.983  19.822  11.481
71128W        W71993  25.078  18.738  14.167
71129W        W71994  24.514  20.947  12.130
71130W        W71995  22.112  19.871  14.307
71131W        W71996  25.078  18.335  11.603
71132W        W71997  24.598  20.810  11.614
71133W        W71998  23.500  19.868  11.699
71134W        W71999  24.687  18.672  11.222
71135W        W72000  24.752  19.279  13.408
71136W        W72001  22.461  19.872  12.615
71137W        W72002  22.755  20.811  12.264
71138W        W72003  24.518  19.431  12.229
71139W        W72004  23.541  18.810  12.925
71140W        W72005  25.503  20.721  13.436
71141W        W72006  25.421  18.708  12.997
71142W        W72007  21.960  21.538  12.373
71143W        W72008  22.469  20.725  11.909
71144W        W72009  22.384  18.342  14.462
71145W        W72010  23.503  21.195  14.564
71146W        W72011  25.258  20.163  12.354
71147W        W72012  24.612  20.340  11.234
71148W        W72013  23.907  21.861  13.446
71149W        W72014  24.764  20.583  14.483
71150W        W72015  23.579  18.293  11.763
71151W        W72016  24.292  19.162  12.622
71152W        W72017  21.978  20.749  12.954
71153W        W72018  23.231  18.711  11.595
71154W        W72019  23.035  20.195  14.444
71155W        W72020  24.029  19.176  12.158
71156W        W72021  24.234  20.586  13.280
71157W        W72022  22.388  21.191  13.715
71158W        W72023  22.979  21.174  14.438
71159W        W72024  22.830  18.971  11.452
71160W        W72025  24.347  19.113  11.777
71161W        W72026  24.305  21.221  14.014
71162W        W72027  22.990  19.813  12.613
71163W        W72028  22.645  21.511  13.478
71164W        W72029  25.390  21.628  11.079
71165W        W72030  22.253  20.300  14.075
71166W        W72031  24.248  20.562  12.763
71167W        W72032  22.684  20.211  12.005
71168W        W72033  23.055  21.218  13.400
71169W        W72034  23.433  18.637  12.441
71170W        W72035  22.044  20.621  11.371
71171W        W72036  23.563  19.572  11.241
71172W        W72037  22.209  20.121  12.260
71173W        W72038  23.499  18.763  13.724
71174W        W72039  25.171  18.472  11.151
71175W        W72040  25.264  20.218  14.250
71176W        W72041  23.918  21.475  14.402
71177W        W72042  25.476  20.569  13.924
71178W        W72043  24.884  21.367  14.535
71179W        W72044  22.623  21.823  13.013
71180W        W72045  25.482  20.445  11.887
71181W        W72046  24.012  19.712  12.400
71182W        W72047  23.779  18.324  12.290
71183W        W72048  22.838  21.308  12.127
71184W        W72049  23.337  19.049  13.352
71185W        W72050  23.037  18.418  12.821
71186W        W72051  22.100  21.240  11.369
71187W        W72052  23.916  20.604  12.087
71188W        W72053  22.791  21.399  13.966
71189W        W72054  22.268  20.222  11.662
71190W        W72055  22.153  18.765  12.661
71191W        W72056  23.701  20.730  12.718
71192W        W72057  21.953  18.584  11.738
71193W        W72058  24.617  19.790  13.665
71194W        W72059  24.494  19.176  11.237
71195W        W72060  25.011  20.848  12.885
71196W        W72061  23.672  21.332  12.716
71197W        W72062  23.084  21.436  11.627
71198W        W72063  24.366  18.339  11.057
71199W        W72064  22.166  21.599  12.798
71200W        W72065  24.363  19.357  14.433
71201W        W72066  22.346  18.887  14.432
71202W        W72067  22.077  19.487  11.765
71203W        W72068  22.768  19.476  11.490
71204W        W72069  24.531  19.803  14.307
71205W        W72070  22.874  20.084  13.016
71206W        W72071  24.348  18.370  12.136
71207W        W72072  23.479  21.801  12.639
71208W        W72073  24.693  21.263  13.576
71209W        W72074  24.277  21.412  12.687
71210W        W72075  24.296  20.392  12.281
71211W        W72076  23.758  18.617  11.352
71212W        W72077  25.439  18.245  12.074
71213W        W72078  23.127  19.880  11.237
71214W        W72079  25.293  19.217  12.227
71215W        W72080  23.985  20.387  11.104
71216W        W72081  24.921  20.587  13.852
71217W        W72082  24.575  21.288  11.319
71218W        W72083  23.190  18.963  14.225
71219W        W72084  23.010  19.547  13.466
71220W        W72085  25.102  21.042  13.743
71221W        W72086  24.202  18.992  14.120
71222W        W72087  22.046  19.463  13.897
71223W        W72088  23.806  19.940  13.623
71224W        W72089  22.163  20.698  12.280
71225W        W72090  22.310  19.995  13.170
71226W        W72091  24.627  20.281  13.520
71227W        W72092  24.399  21.661  14.331
71228W        W72093  24.295  19.400  13.884
71229W        W72094  24.572  21.454  12.289
71230W        W72095  23.574  21.174  13.612
71231W        W72096  23.059  21.529  12.881
71232W        W72097  24.864  20.700  13.300
71233W        W72098  23.914  20.772  14.437
71234W        W72099  22.519  20.725  12.776
71235W        W72100  24.865  20.484  12.421
71236W        W72101  24.506  21.550  13.172
71237W        W72102  22.484  21.279  13.042
71238W        W72103  23.505  19.331  14.252
71239W        W72104  23.956  21.497  11.763
71240W        W72105  23.264  20.752  14.401
71241W        W72106  23.390  20.990  11.778
71242W        W72107  22.611  19.730  11.037
71243W        W72108  21.950  21.816  17.936
71244W        W72109  22.326  20.709  17.459
71245W        W72110  25.031  20.439  15.229
71246W        W72111  25.161  21.524  17.256
71247W        W72112  23.079  21.515  14.782
71248W        W72113  23.162  19.667  15.765
71249W        W72114  22.677  19.515  15.929
71250W        W72115  23.668  20.330  15.363
71251W        W72116  23.343  21.422  17.718
71252W        W72117  21.992  18.983  17.681
71253W        W72118  22.754  18.263  17.483
71254W        W72119  24.448  18.651  16.370
71255W        W72120  24.097  19.522  14.940
71256W        W72121  24.667  18.956  18.031
71257W        W72122  22.033  18.748  17.156
71258W        W72123  22.132  21.367  18.177
71259W        W72124  23.654  20.757  14.909
71260W        W72125  22.086  19.540  16.602
71261W        W72126  22.979  19.431  17.839
71262W        W72127  25.438  19.290  16.338
71263W        W72128  25.202  20.333  17.197
71264W        W72129  23.510  19.666  16.224
71265W        W72130  24.056  21.005  16.593
71266W        W72131  22.556  20.439  16.825
71267W        W72132  21.915  19.967  16.396
71268W        W72133  22.951  19.939  17.588
71269W        W72134  25.222  19.722  17.842
71270W        W72135  22.838  21.166  16.287
71271W        W72136  23.959  20.855  17.421
71272W        W72137  23.179  19.495  16.646
71273W        W72138  23.471  20.279  16.289
71274W        W72139  24.468  21.052  18.137
71275W        W72140  23.547  20.372  18.147
71276W        W72141  23.528  20.088  17.625
71277W        W72142  21.937  19.479  18.147
71278W        W72143  24.769  21.014  17.746
71279W        W72144  22.350  18.596  15.744
71280W        W72145  22.877  20.854  16.743
71281W        W72146  25.340  20.637  16.033
71282W        W72147  24.753  19.037  16.600
71283W        W72148  25.038  18.990  14.695
71284W        W72149  25.503  19.791  17.001
71285W        W72150  23.470  21.498  16.754
71286W        W72151  25.244  20.964  15.192
71287W        W72152  22.373  21.750  14.946
71288W        W72153  22.766  21.796  15.622
71289W        W72154  22.563  18.550  17.048
71290W        W72155  25.186  19.568  17.323
71291W        W72156  24.591  19.990  15.782
71292W        W72157  24.557  19.678  14.809
71293W        W72158  23.765  20.822  16.949
71294W        W72159  23.571  19.152  16.148
71295W        W72160  24.171  21.239  17.142
71296W        W72161  25.042  20.030  15.564
71297W        W72162  23.944  18.688  15.580
71298W        W72163  22.601  21.382  15.263
71299W        W72164  21.972  18.881  15.862
71300W        W72165  24.758  19.488  16.336
71301W        W72166  22.216  21.105  16.251
71302W        W72167  23.557  21.455  15.121
71303W        W72168  24.949  19.481  14.585
71304W        W72169  21.972  21.239  16.749
71305W        W72170  22.763  20.811  17.229
71306W        W72171  23.136  20.171  15.848
71307W        W72172  23.158  18.576  16.941
71308W        W72173  25.387  18.338  16.238
71309W        W72174  22.606  20.210  14.706
71310W        W72175  22.261  19.243  14.885
71311W        W72176  22.323  21.199  15.679
71312W        W72177  23.454  20.682  15.927
71313W        W72178  24.786  21.541  17.641
71314W        W72179  23.712  19.183  15.325
71315W        W72180  25.095  21.581  16.097
71316W        W72181  24.772  19.434  17.695
71317W        W72182  25.485  21.090  15.829
71318W        W72183  24.112  20.382  17.313
71319W        W72184  21.878  19.933  15.519
71320W        W72185  22.989  20.348  17.092
71321W        W72186  24.193  19.612  15.470
71322W        W72187  24.070  20.102  15.574
71323W        W72188  22.413  19.522  17.048
71324W        W72189  22.398  19.398  17.970
71325W        W72190  22.288  18.315  16.129
71326W        W72191  24.056  18.662  16.690
71327W        W72192  23.704  18.847  17.853
71328W        W72193  24.059  18.996  15.031
71329W        W72194  25.242  21.389  17.785
71330W        W72195  24.209  18.470  17.824
71331W        W72196  25.228  20.771  17.946
71332W        W72197  24.658  18.938  17.542
71333W        W72198  24.458  18.876  15.812
71334W        W72199  24.851  20.010  18.216
71335W        W72200  22.591  21.586  16.202
71336W        W72201  23.249  19.303  15.188
71337W        W72202  22.818  18.587  17.852
71338W        W72203  24.870  19.071  15.533
71339W        W72204  25.237  19.553  15.478
71340W        W72205  22.980  21.770  17.949
71341W        W72206  22.906  18.306  15.184
71342W        W72207  25.227  18.840  16.219
71343W        W72208  25.377  21.089  14.664
71344W        W72209  22.284  20.292  16.366
71345W        W72210  24.201  18.879  14.596
71346W        W72211  25.335  21.211  16.316
71347W        W72212  25.374  18.405  17.066
71348W        W72213  23.819  19.617  17.620
71349W        W72214  23.912  20.956  15.323
71350W        W72215  24.312  20.250  18.063
71351W        W72216  23.986  18.227  16.372
71352W        W72217  22.598  19.130  16.435
71353W        W72218  22.152  20.330  17.209
71354W        W72219  24.011  21.523  15.915
71355W        W72220  25.205  19.120  16.787
71356W        W72221  23.842  21.467  17.554
71357W        W72222  25.185  20.526  14.759
71358W        W72223  23.620  20.009  15.820
71359W        W72224  25.472  18.520  17.561
71360W        W72225  23.621  20.355  17.155
71361W        W72226  23.838  19.241  16.600
71362W        W72227  24.690  19.539  15.438
71363W        W72228  24.977  19.272  15.080
71364W        W72229  24.786  21.312  15.469
71365W        W72230  24.620  20.915  16.265
71366W        W72231  24.516  19.994  15.243
71367W        W72232  23.949  20.204  16.229
71368W        W72233  24.830  19.992  16.296
71369W        W72234  22.205  19.007  16.720
71370W        W72235  24.983  20.059  17.547
71371W        W72236  25.334  21.677  16.693
71372W        W72237  23.264  21.121  16.095
71373W        W72238  24.271  21.654  17.419
71374W        W72239  24.265  18.984  17.183
71375W        W72240  23.472  21.692  17.244
71376W        W72241  25.169  18.646  15.710
71377W        W72242  24.960  19.965  17.011
71378W        W72243  21.943  19.286  17.049
71379W        W72244  24.803  19.081  16.067
71380W        W72245  25.214  19.232  17.844
71381W        W72246  24.099  20.931  16.062
71382W        W72247  23.355  21.522  15.675
71383W        W72248  22.470  18.702  14.933
71384W        W72249  23.574  18.356  16.743
71385W        W72250  22.602  21.476  14.591
71386W        W72251  22.976  19.942  15.342
71387W        W72252  23.630  20.571  17.655
71388W        W72253  23.460  18.929  15.645
71389W        W72254  24.816  18.526  16.073
71390W        W72255  24.536  21.808  16.401
71391W        W72256  23.948  21.456  16.741
71392W        W72257  23.344  20.493  16.702
71393W        W72258  25.114  21.216  16.828
71394W        W72259  22.808  18.719  15.597
71395W        W72260  23.330  21.016  16.557
71396W        W72261  22.813  18.947  14.622
71397W        W72262  23.614  19.556  17.016
71398W        W72263  24.462  18.422  16.886
71399W        W72264  21.882  20.265  16.771
71400W        W72265  23.586  20.083  14.929
71401W        W72266  22.854  18.398  14.699
71402W        W72267  23.592  19.479  15.750
71403W        W72268  24.562  18.455  17.449
71404W        W72269  23.150  20.467  17.558
71405W        W72270  23.954  20.249  17.775
71406W        W72271  24.571  20.279  17.668
71407W        W72272  23.855  18.419  18.173
71408W        W72273  23.077  19.035  16.566
71409W        W72274  22.503  18.991  15.964
71410W        W72275  22.289  21.703  15.640
71411W        W72276  23.621  21.033  17.765
71412W        W72277  22.656  20.518  15.124
71413W        W72278  24.336  19.903  16.345
71414W        W72279  24.616  19.702  16.744
71415W        W72280  23.821  20.376  16.678
71416W        W72281  24.291  20.750  14.810
71417W        W72282  23.963  18.771  16.138
71418W        W72283  25.442  19.049  15.406
71419W        W72284  21.936  21.638  17.437
71420W        W72285  22.353  20.864  16.969
71421W        W72286  21.920  21.710  15.201
71422W        W72287  23.819  18.980  17.007
71423W        W72288  23.182  21.003  14.856
71424W        W72289  25.087  21.385  15.042
71425W        W72290  24.062  20.038  15.056
71426W        W72291  22.905  19.229  15.573
71427W        W72292  23.737  19.139  14.625
71428W        W72293  24.321  20.704  17.803
71429W        W72294  24.674  18.610  15.420
71430W        W72295  22.004  18.458  14.868
71431W        W72296  23.290  20.777  17.158
71432W        W72297  23.089  20.693  16.250
71433W        W72298  22.831  20.645  14.648
71434W        W72299  22.072  20.886  15.416
71435W        W72300  22.576  19.956  17.858
71436W        W72301  23.280  18.516  18.044
71437W        W72302  23.989  18.658  17.400
71438W        W72303  23.184  18.426  15.681
71439W        W72304  24.243  18.503  15.186
71440W        W72305  22.188  18.435  16.763
71441W        W72306  22.236  19.398  16.133
71442W        W72307  24.925  18.506  16.539
71443W        W72308  22.347  19.004  15.353
71444W        W72309  24.918  18.692  16.969
71445W        W72310  25.314  19.895  14.654
71446W        W72311  22.606  18.653  16.473
71447W        W72312  23.720  19.225  17.413
71448W        W72313  21.868  18.915  14.891
71449W        W72314  22.654  20.304  17.452
71450W        W72315  24.012  19.702  16.631
71451W        W72316  23.879  21.781  14.927
71452W        W72317  22.025  20.288  14.624
71453W        W72318  22.760  20.699  17.750
71454W        W72319  22.281  19.866  17.381
71455W        W72320  23.272  19.971  17.175
71456W        W72321  25.040  18.330  17.437
71457W        W72322  25.438  19.940  17.428
71458W        W72323  25.426  20.140  15.114
71459W        W72324  24.289  20.472  15.213
71460W        W72325  24.763  21.772  14.908
71461W        W72326  23.940  19.762  18.050
71462W        W72327  22.270  20.729  18.090
71463W        W72328  25.476  18.651  18.042
71464W        W72329  25.194  19.579  16.663
71465W        W72330  23.502  21.709  18.140
71466W        W72331  23.357  18.338  14.867
71467W        W72332  24.896  20.937  14.810
71468W        W72333  22.665  19.030  17.696
71469W        W72334  23.099  21.024  17.558
71470W        W72335  25.225  19.015  17.356
71471W        W72336  24.436  21.674  15.324
71472W        W72337  24.675  20.293  16.691
71473W        W72338  22.925  18.709  17.358
71474W        W72339  23.394  19.778  18.115
71475W        W72340  22.897  20.957  15.309
71476W        W72341  24.652  20.455  15.573
71477W        W72342  22.420  19.081  17.297
71478W        W72343  23.749  21.143  15.761
71479W        W72344  25.499  19.703  15.942
71480W        W72345  23.721  18.336  17.661
71481W        W72346  24.501  21.041  16.740
71482W        W72347  24.804  21.385  16.448
71483W        W72348  24.023  21.187  14.876
71484W        W72349  22.033  21.079  17.718
71485W        W72350  22.776  19.071  16.956
71486W        W72351  22.746  18.419  16.066
71487W        W72352  24.367  19.261  16.758
71488W        W72353  23.165  20.432  14.958
71489W        W72354  25.163  20.374  16.457
71490W        W72355  22.490  21.132  17.880
71491W        W72356  24.877  21.814  15.677
71492W        W72357  22.976  18.834  16.122
71493W        W72358  22.745  20.327  16.212
71494W        W72359  23.058  21.738  16.962
71495W        W72360  25.125  21.834  17.994
71496W        W72361  24.284  20.022  16.927
71497W        W72362  22.133  19.820  14.842
71498W        W72363  25.267  21.478  15.539
71499W        W72364  25.104  18.802  15.158
71500W        W72365  23.243  18.321  17.561
71501W        W72366  24.949  21.123  16.019
71502W        W72367  24.978  19.679  15.924
71503W        W72368  23.095  19.352  16.140
71504W        W72369  23.340  19.614  17.464
71505W        W72370  24.451  20.767  17.327
71506W        W72371  23.101  19.221  17.439
71507W        W72372  23.080  21.687  16.055
71508W        W72373  22.397  21.646  17.689
71509W        W72374  22.509  21.007  14.819
71510W        W72375  25.026  20.765  15.629
71511W        W72376  22.630  19.557  17.515
71512W        W72377  25.403  19.487  14.996
71513W        W72378  23.148  20.544  15.467
71514W        W72379  24.247  19.926  17.548
71515W        W72380  24.138  19.554  17.092
71516W        W72381  22.698  19.926  17.121
71517W        W72382  24.908  21.814  16.950
71518W        W72383  24.699  18.448  17.944
71519W        W72384  22.363  18.598  17.531
71520W        W72385  22.702  19.621  16.584
71521W        W72386  23.071  19.435  14.706
71522W        W72387  21.874  21.194  17.251
71523W        W72388  23.459  19.903  16.694
71524W        W72389  23.282  18.928  14.799
71525W        W72390  22.417  19.744  15.580
71526W        W72391  22.188  21.596  17.017
71527W        W72392  24.983  19.822  15.125
71528W        W72393  25.078  18.738  17.811
71529W        W72394  24.514  20.947  15.774
71530W        W72395  22.112  19.871  17.951
71531W        W72396  25.078  18.335  15.247
71532W        W72397  24.598  20.810  15.258
71533W        W72398  23.500  19.868  15.343
71534W        W72399  24.687  18.672  14.866
71535W        W72400  24.752  19.279  17.052
71536W        W72401  22.461  19.872  16.259
71537W        W72402  22.755  20.811  15.908
71538W        W72403  24.518  19.431  15.873
71539W        W72404  23.541  18.810  16.569
71540W        W72405  25.503  20.721  17.080
71541W        W72406  25.421  18.708  16.641
71542W        W72407  21.960  21.538  16.017
71543W        W72408  22.469  20.725  15.553
71544W        W72409  22.384  18.342  18.106
71545W        W72410  23.503  21.195  18.208
71546W        W72411  25.258  20.163  15.998
71547W        W72412  24.612  20.340  14.878
71548W        W72413  23.907  21.861  17.090
71549W        W72414  24.764  20.583  18.127
71550W        W72415  23.579  18.293  15.407
71551W        W72416  24.292  19.162  16.266
71552W        W72417  21.978  20.749  16.598
71553W        W72418  23.231  18.711  15.239
71554W        W72419  23.035  20.195  18.088
71555W        W72420  24.029  19.176  15.802
71556W        W72421  24.234  20.586  16.924
71557W        W72422  22.388  21.191  17.359
71558W        W72423  22.979  21.174  18.082
71559W        W72424  22.830  18.971  15.096
71560W        W72425  24.347  19.113  15.421
71561W        W72426  24.305  21.221  17.658
71562W        W72427  22.990  19.813  16.257
71563W        W72428  22.645  21.511  17.122
71564W        W72429  25.390  21.628  14.723
71565W        W72430  22.253  20.300  17.719
71566W        W72431  24.248  20.562  16.407
71567W        W72432  22.684  20.211  15.649
71568W        W72433  23.055  21.218  17.044
71569W        W72434  23.433  18.637  16.085
71570W        W72435  22.044  20.621  15.015
71571W        W72436  23.563  19.572  14.885
71572W        W72437  22.209  20.121  15.904
71573W        W72438  23.499  18.763  17.368
71574W        W72439  25.171  18.472  14.795
71575W        W72440  25.264  20.218  17.894
71576W        W72441  23.918  21.475  18.046
71577W        W72442  25.476  20.569  17.568
71578W        W72443  24.884  21.367  18.179
71579W        W72444  22.623  21.823  16.657
71580W        W72445  25.482  20.445  15.531
71581W        W72446  24.012  19.712  16.044
71582W        W72447  23.779  18.324  15.934
71583W        W72448  22.838  21.308  15.771
71584W        W72449  23.337  19.049  16.996
71585W        W72450  23.037  18.418  16.465
71586W        W72451  22.100  21.240  15.013
71587W        W72452  23.916  20.604  15.731
71588W        W72453  22.791  21.399  17.610
71589W        W72454  22.268  20.222  15.306
71590W        W72455  22.153  18.765  16.305
71591W        W72456  23.701  20.730  16.362
71592W        W72457  21.953  18.584  15.382
71593W        W72458  24.617  19.790  17.309
71594W        W72459  24.494  19.176  14.881
71595W        W72460  25.011  20.848  16.529
71596W        W72461  23.672  21.332  16.360
71597W        W72462  23.084  21.436  15.271
71598W        W72463  24.366  18.339  14.701
71599W        W72464  22.166  21.599  16.442
71600W        W72465  24.363  19.357  18.077
71601W        W72466  22.346  18.887  18.076
71602W        W72467  22.077  19.487  15.409
71603W        W72468  22.768  19.476  15.134
71604W        W72469  24.531  19.803  17.951
71605W        W72470  22.874  20.084  16.660
71606W        W72471  24.348  18.370  15.780
71607W        W72472  23.479  21.801  16.283
71608W        W72473  24.693  21.263  17.220
71609W        W72474  24.277  21.412  16.331
71610W        W72475  24.296  20.392  15.925
71611W        W72476  23.758  18.617  14.996
71612W        W72477  25.439  18.245  15.718
71613W        W72478  23.127  19.880  14.881
71614W        W72479  25.293  19.217  15.871
71615W        W72480  23.985  20.387  14.748
71616W        W72481  24.921  20.587  17.496
71617W        W72482  24.575  21.288  14.963
71618W        W72483  23.190  18.963  17.869
71619W        W72484  23.010  19.547  17.110
71620W        W72485  25.102  21.042  17.387
71621W        W72486  24.202  18.992  17.764
71622W        W72487  22.046  19.463  17.541
71623W        W72488  23.806  19.940  17.267
71624W        W72489  22.163  20.698  15.924
71625W        W72490  22.310  19.995  16.814
71626W        W72491  24.627  20.281  17.164
71627W        W72492  24.399  21.661  17.975
71628W        W72493  24.295  19.400  17.528
71629W        W72494  24.572  21.454  15.933
71630W        W72495  23.574  21.174  17.256
71631W        W72496  23.059  21.529  16.525
71632W        W72497  24.864  20.700  16.944
71633W        W72498  23.914  20.772  18.081
71634W        W72499  22.519  20.725  16.420
71635W        W72500  24.865  20.484  16.065
71636W        W72501  24.506  21.550  16.816
71637W        W72502  22.484  21.279  16.686
71638W        W72503  23.505  19.331  17.896
71639W        W72504  23.956  21.497  15.407
71640W        W72505  23.264  20.752  18.045
71641W        W72506  23.390  20.990  15.422
71642W        W72507  22.611  19.730  14.681
71643W        W72508  21.950  21.816  21.580
71644W        W72509  22.326  20.709  21.103
71645W        W72510  25.031  20.439  18.873
71646W        W72511  25.161  21.524  20.900
71647W        W72512  23.079  21.515  18.426
71648W        W72513  23.162  19.667  19.409
71649W        W72514  22.677  19.515  19.573
71650W        W72515  23.668  20.330  19.007
71651W        W72516  23.343  21.422  21.362
71652W        W72517  21.992  18.983  21.325
71653W        W72518  22.754  18.263  21.127
71654W        W72519  24.448  18.651  20.014
71655W        W72520  24.097  19.522  18.584
71656W        W72521  24.667  18.956  21.675
71657W        W72522  22.033  18.748  20.800
71658W        W72523  22.132  21.367  21.821
71659W        W72524  23.654  20.757  18.553
71660W        W72525  22.086  19.540  20.246
71661W        W72526  22.979  19.431  21.483
71662W        W72527  25.438  19.290  19.982
71663W        W72528  25.202  20.333  20.841
71664W        W72529  23.510  19.666  19.868
71665W        W72530  24.056  21.005  20.237
71666W        W72531  22.556  20.439  20.469
71667W        W72532  21.915  19.967  20.040
71668W        W72533  22.951  19.939  21.232
71669W        W72534  25.222  19.722  21.486
71670W        W72535  22.838  21.166  19.931
71671W        W72536  23.959  20.855  21.065
71672W        W72537  23.179  19.495  20.290
71673W        W72538  23.471  20.279  19.933
71674W        W72539  24.468  21.052  21.781
71675W        W72540  23.547  20.372  21.791
71676W        W72541  23.528  20.088  21.269
71677W        W72542  21.937  19.479  21.791
71678W        W72543  24.769  21.014  21.390
71679W        W72544  22.350  18.596  19.388
71680W        W72545  22.877  20.854  20.387
71681W        W72546  25.340  20.637  19.677
71682W        W72547  24.753  19.037  20.244
71683W        W72548  25.038  18.990  18.339
71684W        W72549  25.503  19.791  20.645
71685W        W72550  23.470  21.498  20.398
71686W        W72551  25.244  20.964  18.836
71687W        W72552  22.373  21.750  18.590
71688W        W72553  22.766  21.796  19.266
71689W        W72554  22.563  18.550  20.692
71690W        W72555  25.186  19.568  20.967
71691W        W72556  24.591  19.990  19.426
71692W        W72557  24.557  19.678  18.453
71693W        W72558  23.765  20.822  20.593
71694W        W72559  23.571  19.152  19.792
71695W        W72560  24.171  21.239  20.786
71696W        W72561  25.042  20.030  19.208
71697W        W72562  23.944  18.688  19.224
71698W        W72563  22.601  21.382  18.907
71699W        W72564  21.972  18.881  19.506
71700W        W72565  24.758  19.488  19.980
71701W        W72566  22.216  21.105  19.895
71702W        W72567  23.557  21.455  18.765
71703W        W72568  24.949  19.481  18.229
71704W        W72569  21.972  21.239  20.393
71705W        W72570  22.763  20.811  20.873
71706W        W72571  23.136  20.171  19.492
71707W        W72572  23.158  18.576  20.585
71708W        W72573  25.387  18.338  19.882
71709W        W72574  22.606  20.210  18.350
71710W        W72575  22.261  19.243  18.529
71711W        W72576  22.323  21.199  19.323
71712W        W72577  23.454  20.682  19.571
71713W        W72578  24.786  21.541  21.285
71714W        W72579  23.712  19.183  18.969
71715W        W72580  25.095  21.581  19.741
71716W        W72581  24.772  19.434  21.339
71717W        W72582  25.485  21.090  19.473
71718W        W72583  24.112  20.382  20.957
71719W        W72584  21.878  19.933  19.163
71720W        W72585  22.989  20.348  20.736
71721W        W72586  24.193  19.612  19.114
71722W        W72587  24.070  20.102  19.218
71723W        W72588  22.413  19.522  20.692
71724W        W72589  22.398  19.398  21.614
71725W        W72590  22.288  18.315  19.773
71726W        W72591  24.056  18.662  20.334
71727W        W72592  23.704  18.847  21.497
71728W        W72593  24.059  18.996  18.675
71729W        W72594  25.242  21.389  21.429
71730W        W72595  24.209  18.470  21.468
71731W        W72596  25.228  20.771  21.590
71732W        W72597  24.658  18.938  21.186
71733W        W72598  24.458  18.876  19.456
71734W        W72599  24.851  20.010  21.860
71735W        W72600  22.591  21.586  19.846
71736W        W72601  23.249  19.303  18.832
71737W        W72602  22.818  18.587  21.496
71738W        W72603  24.870  19.071  19.177
71739W        W72604  25.237  19.553  19.122
71740W        W72605  22.980  21.770  21.593
71741W        W72606  22.906  18.306  18.828
71742W        W72607  25.227  18.840  19.863
71743W        W72608  25.377  21.089  18.308
71744W        W72609  22.284  20.292  20.010
71745W        W72610  24.201  18.879  18.240
71746W        W72611  25.335  21.211  19.960
71747W        W72612  25.374  18.405  20.710
71748W        W72613  23.819  19.617  21.264
71749W        W72614  23.912  20.956  18.967
71750W        W72615  24.312  20.250  21.707
71751W        W72616  23.986  18.227  20.016
71752W        W72617  22.152  20.330  20.853
71753W        W72618  24.011  21.523  19.559
71754W        W72619  25.205  19.120  20.431
71755W        W72620  23.842  21.467  21.198
71756W        W72621  25.185  20.526  18.403
71757W        W72622  23.620  20.009  19.464
71758W        W72623  25.472  18.520  21.205
71759W        W72624  23.621  20.355  20.799
71760W        W72625  23.838  19.241  20.244
71761W        W72626  24.690  19.539  19.082
71762W        W72627  24.977  19.272  18.724
71763W        W72628  24.786  21.312  19.113
71764W        W72629  24.620  20.915  19.909
71765W        W72630  24.516  19.994  18.887
71766W        W72631  23.949  20.204  19.873
71767W        W72632  24.830  19.992  19.940
71768W        W72633  22.205  19.007  20.364
71769W        W72634  24.983  20.059  21.191
71770W        W72635  25.334  21.677  20.337
71771W        W72636  23.264  21.121  19.739
71772W        W72637  24.271  21.654  21.063
71773W        W72638  24.265  18.984  20.827
71774W        W72639  23.472  21.692  20.888
71775W        W72640  25.169  18.646  19.354
71776W        W72641  24.960  19.965  20.655
71777W        W72642  21.943  19.286  20.693
71778W        W72643  24.803  19.081  19.711
71779W        W72644  25.214  19.232  21.488
71780W        W72645  24.099  20.931  19.706
71781W        W72646  23.355  21.522  19.319
71782W        W72647  22.470  18.702  18.577
71783W        W72648  23.574  18.356  20.387
71784W        W72649  22.602  21.476  18.235
71785W        W72650  22.976  19.942  18.986
71786W        W72651  23.630  20.571  21.299
71787W        W72652  23.460  18.929  19.289
71788W        W72653  24.816  18.526  19.717
71789W        W72654  24.536  21.808  20.045
71790W        W72655  23.948  21.456  20.385
71791W        W72656  23.344  20.493  20.346
71792W        W72657  25.114  21.216  20.472
71793W        W72658  22.808  18.719  19.241
71794W        W72659  23.330  21.016  20.201
71795W        W72660  22.813  18.947  18.266
71796W        W72661  23.614  19.556  20.660
71797W        W72662  24.462  18.422  20.530
71798W        W72663  21.882  20.265  20.415
71799W        W72664  23.586  20.083  18.573
71800W        W72665  22.854  18.398  18.343
71801W        W72666  23.592  19.479  19.394
71802W        W72667  24.562  18.455  21.093
71803W        W72668  23.150  20.467  21.202
71804W        W72669  23.954  20.249  21.419
71805W        W72670  24.571  20.279  21.312
71806W        W72671  23.855  18.419  21.817
71807W        W72672  23.077  19.035  20.210
71808W        W72673  22.503  18.991  19.608
71809W        W72674  22.289  21.703  19.284
71810W        W72675  23.621  21.033  21.409
71811W        W72676  22.656  20.518  18.768
71812W        W72677  24.336  19.903  19.989
71813W        W72678  24.616  19.702  20.388
71814W        W72679  23.821  20.376  20.322
71815W        W72680  24.291  20.750  18.454
71816W        W72681  23.963  18.771  19.782
71817W        W72682  25.442  19.049  19.050
71818W        W72683  21.936  21.638  21.081
71819W        W72684  22.353  20.864  20.613
71820W        W72685  21.920  21.710  18.845
71821W        W72686  23.819  18.980  20.651
71822W        W72687  23.182  21.003  18.500
71823W        W72688  25.087  21.385  18.686
71824W        W72689  24.062  20.038  18.700
71825W        W72690  22.905  19.229  19.217
71826W        W72691  23.737  19.139  18.269
71827W        W72692  24.321  20.704  21.447
71828W        W72693  24.674  18.610  19.064
71829W        W72694  22.004  18.458  18.512
71830W        W72695  23.290  20.777  20.802
71831W        W72696  23.089  20.693  19.894
71832W        W72697  22.831  20.645  18.292
71833W        W72698  22.072  20.886  19.060
71834W        W72699  22.576  19.956  21.502
71835W        W72700  23.280  18.516  21.688
71836W        W72701  23.989  18.658  21.044
71837W        W72702  23.184  18.426  19.325
71838W        W72703  24.243  18.503  18.830
71839W        W72704  22.188  18.435  20.407
71840W        W72705  22.236  19.398  19.777
71841W        W72706  24.925  18.506  20.183
71842W        W72707  22.347  19.004  18.997
71843W        W72708  24.918  18.692  20.613
71844W        W72709  25.314  19.895  18.298
71845W        W72710  22.606  18.653  20.117
71846W        W72711  23.720  19.225  21.057
71847W        W72712  21.868  18.915  18.535
71848W        W72713  22.654  20.304  21.096
71849W        W72714  24.012  19.702  20.275
71850W        W72715  23.879  21.781  18.571
71851W        W72716  22.025  20.288  18.268
71852W        W72717  22.760  20.699  21.394
71853W        W72718  22.281  19.866  21.025
71854W        W72719  23.272  19.971  20.819
71855W        W72720  25.040  18.330  21.081
71856W        W72721  25.438  19.940  21.072
71857W        W72722  25.426  20.140  18.758
71858W        W72723  24.289  20.472  18.857
71859W        W72724  24.763  21.772  18.552
71860W        W72725  23.940  19.762  21.694
71861W        W72726  22.270  20.729  21.734
71862W        W72727  25.476  18.651  21.686
71863W        W72728  25.194  19.579  20.307
71864W        W72729  23.502  21.709  21.784
71865W        W72730  23.357  18.338  18.511
71866W        W72731  24.896  20.937  18.454
71867W        W72732  22.665  19.030  21.340
71868W        W72733  23.099  21.024  21.202
71869W        W72734  25.225  19.015  21.000
71870W        W72735  24.436  21.674  18.968
71871W        W72736  24.675  20.293  20.335
71872W        W72737  22.925  18.709  21.002
71873W        W72738  23.394  19.778  21.759
71874W        W72739  22.897  20.957  18.953
71875W        W72740  24.652  20.455  19.217
71876W        W72741  22.420  19.081  20.941
71877W        W72742  23.749  21.143  19.405
71878W        W72743  25.499  19.703  19.586
71879W        W72744  23.721  18.336  21.305
71880W        W72745  24.501  21.041  20.384
71881W        W72746  24.804  21.385  20.092
71882W        W72747  24.023  21.187  18.520
71883W        W72748  22.033  21.079  21.362
71884W        W72749  22.776  19.071  20.600
71885W        W72750  22.746  18.419  19.710
71886W        W72751  24.367  19.261  20.402
71887W        W72752  23.165  20.432  18.602
71888W        W72753  25.163  20.374  20.101
71889W        W72754  22.490  21.132  21.524
71890W        W72755  24.877  21.814  19.321
71891W        W72756  22.976  18.834  19.766
71892W        W72757  22.745  20.327  19.856
71893W        W72758  23.058  21.738  20.606
71894W        W72759  25.125  21.834  21.638
71895W        W72760  24.284  20.022  20.571
71896W        W72761  22.133  19.820  18.486
71897W        W72762  25.267  21.478  19.183
71898W        W72763  25.104  18.802  18.802
71899W        W72764  23.243  18.321  21.205
71900W        W72765  24.949  21.123  19.663
71901W        W72766  24.978  19.679  19.568
71902W        W72767  23.095  19.352  19.784
71903W        W72768  23.340  19.614  21.108
71904W        W72769  24.451  20.767  20.971
71905W        W72770  23.101  19.221  21.083
71906W        W72771  23.080  21.687  19.699
71907W        W72772  22.397  21.646  21.333
71908W        W72773  22.509  21.007  18.463
71909W        W72774  25.026  20.765  19.273
71910W        W72775  22.630  19.557  21.159
71911W        W72776  25.403  19.487  18.640
71912W        W72777  23.148  20.544  19.111
71913W        W72778  24.247  19.926  21.192
71914W        W72779  24.138  19.554  20.736
71915W        W72780  22.698  19.926  20.765
71916W        W72781  24.908  21.814  20.594
71917W        W72782  24.699  18.448  21.588
71918W        W72783  22.363  18.598  21.175
71919W        W72784  22.702  19.621  20.228
71920W        W72785  23.071  19.435  18.350
71921W        W72786  21.874  21.194  20.895
71922W        W72787  23.459  19.903  20.338
71923W        W72788  23.282  18.928  18.443
71924W        W72789  22.417  19.744  19.224
71925W        W72790  22.188  21.596  20.661
71926W        W72791  24.983  19.822  18.769
71927W        W72792  25.078  18.738  21.455
71928W        W72793  24.514  20.947  19.418
71929W        W72794  22.112  19.871  21.595
71930W        W72795  25.078  18.335  18.891
71931W        W72796  24.598  20.810  18.902
71932W        W72797  23.500  19.868  18.987
71933W        W72798  24.687  18.672  18.510
71934W        W72799  24.752  19.279  20.696
71935W        W72800  22.461  19.872  19.903
71936W        W72801  22.755  20.811  19.552
71937W        W72802  24.518  19.431  19.517
71938W        W72803  23.541  18.810  20.213
71939W        W72804  25.503  20.721  20.724
71940W        W72805  25.421  18.708  20.285
71941W        W72806  21.960  21.538  19.661
71942W        W72807  22.469  20.725  19.197
71943W        W72808  22.384  18.342  21.750
71944W        W72809  23.503  21.195  21.852
71945W        W72810  25.258  20.163  19.642
71946W        W72811  24.612  20.340  18.522
71947W        W72812  23.907  21.861  20.734
71948W        W72813  24.764  20.583  21.771
71949W        W72814  23.579  18.293  19.051
71950W        W72815  24.292  19.162  19.910
71951W        W72816  21.978  20.749  20.242
71952W        W72817  23.231  18.711  18.883
71953W        W72818  23.035  20.195  21.732
71954W        W72819  24.029  19.176  19.446
71955W        W72820  24.234  20.586  20.568
71956W        W72821  22.388  21.191  21.003
71957W        W72822  22.979  21.174  21.726
71958W        W72823  22.830  18.971  18.740
71959W        W72824  24.347  19.113  19.065
71960W        W72825  24.305  21.221  21.302
71961W        W72826  22.990  19.813  19.901
71962W        W72827  22.645  21.511  20.766
71963W        W72828  25.390  21.628  18.367
71964W        W72829  22.253  20.300  21.363
71965W        W72830  24.248  20.562  20.051
71966W        W72831  22.684  20.211  19.293
71967W        W72832  23.055  21.218  20.688
71968W        W72833  23.433  18.637  19.729
71969W        W72834  22.044  20.621  18.659
71970W        W72835  23.563  19.572  18.529
71971W        W72836  22.209  20.121  19.548
71972W        W72837  23.499  18.763  21.012
71973W        W72838  25.171  18.472  18.439
71974W        W72839  25.264  20.218  21.538
71975W        W72840  23.918  21.475  21.690
71976W        W72841  25.476  20.569  21.212
71977W        W72842  24.884  21.367  21.823
71978W        W72843  22.623  21.823  20.301
71979W        W72844  25.482  20.445  19.175
71980W        W72845  24.012  19.712  19.688
71981W        W72846  23.779  18.324  19.578
71982W        W72847  22.838  21.308  19.415
71983W        W72848  23.337  19.049  20.640
71984W        W72849  23.037  18.418  20.109
71985W        W72850  22.100  21.240  18.657
71986W        W72851  23.916  20.604  19.375
71987W        W72852  22.791  21.399  21.254
71988W        W72853  22.268  20.222  18.950
71989W        W72854  22.153  18.765  19.949
71990W        W72855  23.701  20.730  20.006
71991W        W72856  21.953  18.584  19.026
71992W        W72857  24.617  19.790  20.953
71993W        W72858  24.494  19.176  18.525
71994W        W72859  25.011  20.848  20.173
71995W        W72860  23.672  21.332  20.004
71996W        W72861  23.084  21.436  18.915
71997W        W72862  24.366  18.339  18.345
71998W        W72863  22.166  21.599  20.086
71999W        W72864  24.363  19.357  21.721
72000W        W72865  22.346  18.887  21.720
72001W        W72866  22.077  19.487  19.053
72002W        W72867  22.768  19.476  18.778
72003W        W72868  24.531  19.803  21.595
72004W        W72869  22.874  20.084  20.304
72005W        W72870  24.348  18.370  19.424
72006W        W72871  23.479  21.801  19.927
72007W        W72872  24.693  21.263  20.864
72008W        W72873  24.277  21.412  19.975
72009W        W72874  24.296  20.392  19.569
72010W        W72875  23.758  18.617  18.640
72011W        W72876  25.439  18.245  19.362
72012W        W72877  23.127  19.880  18.525
72013W        W72878  25.293  19.217  19.515
72014W        W72879  23.985  20.387  18.392
72015W        W72880  24.921  20.587  21.140
72016W        W72881  24.575  21.288  18.607
72017W        W72882  23.190  18.963  21.513
72018W        W72883  23.010  19.547  20.754
72019W        W72884  25.102  21.042  21.031
72020W        W72885  24.202  18.992  21.408
72021W        W72886  22.046  19.463  21.185
72022W        W72887  23.806  19.940  20.911
72023W        W72888  22.163  20.698  19.568
72024W        W72889  22.310  19.995  20.458
72025W        W72890  24.627  20.281  20.808
72026W        W72891  24.399  21.661  21.619
72027W        W72892  24.295  19.400  21.172
72028W        W72893  24.572  21.454  19.577
72029W        W72894  23.574  21.174  20.900
72030W        W72895  23.059  21.529  20.169
72031W        W72896  24.864  20.700  20.588
72032W        W72897  23.914  20.772  21.725
72033W        W72898  22.519  20.725  20.064
72034W        W72899  24.865  20.484  19.709
72035W        W72900  24.506  21.550  20.460
72036W        W72901  22.484  21.279  20.330
72037W        W72902  23.505  19.331  21.540
72038W        W72903  23.956  21.497  19.051
72039W        W72904  23.264  20.752  21.689
72040W        W72905  23.390  20.990  19.066
72041W        W72906  22.611  19.730  18.325
72042W        W72907  21.950  21.816  25.225
72043W        W72908  22.326  20.709  24.748
72044W        W72909  25.031  20.439  22.518
72045W        W72910  25.161  21.524  24.545
72046W        W72911  23.079  21.515  22.071
72047W        W72912  23.162  19.667  23.054
72048W        W72913  22.677  19.515  23.218
72049W        W72914  23.668  20.330  22.652
72050W        W72915  23.343  21.422  25.007
72051W        W72916  21.992  18.983  24.970
72052W        W72917  22.754  18.263  24.772
72053W        W72918  24.448  18.651  23.659
72054W        W72919  24.097  19.522  22.229
72055W        W72920  24.667  18.956  25.320
72056W        W72921  22.033  18.748  24.445
72057W        W72922  22.132  21.367  25.466
72058W        W72923  23.654  20.757  22.198
72059W        W72924  22.086  19.540  23.891
72060W        W72925  22.979  19.431  25.128
72061W        W72926  25.438  19.290  23.627
72062W        W72927  25.202  20.333  24.486
72063W        W72928  23.510  19.666  23.513
72064W        W72929  24.056  21.005  23.882
72065W        W72930  22.556  20.439  24.114
72066W        W72931  21.915  19.967  23.685
72067W        W72932  22.951  19.939  24.877
72068W        W72933  25.222  19.722  25.131
72069W        W72934  22.838  21.166  23.576
72070W        W72935  23.959  20.855  24.710
72071W        W72936  23.179  19.495  23.935
72072W        W72937  23.471  20.279  23.578
72073W        W72938  24.468  21.052  25.426
72074W        W72939  23.547  20.372  25.436
72075W        W72940  23.528  20.088  24.914
72076W        W72941  21.937  19.479  25.436
72077W        W72942  24.769  21.014  25.035
72078W        W72943  22.350  18.596  23.033
72079W        W72944  22.877  20.854  24.032
72080W        W72945  25.340  20.637  23.322
72081W        W72946  24.753  19.037  23.889
72082W        W72947  25.038  18.990  21.984
72083W        W72948  25.503  19.791  24.290
72084W        W72949  23.470  21.498  24.043
72085W        W72950  25.244  20.964  22.481
72086W        W72951  22.373  21.750  22.235
72087W        W72952  22.766  21.796  22.911
72088W        W72953  22.563  18.550  24.337
72089W        W72954  25.186  19.568  24.612
72090W        W72955  24.591  19.990  23.071
72091W        W72956  24.557  19.678  22.098
72092W        W72957  23.765  20.822  24.238
72093W        W72958  23.571  19.152  23.437
72094W        W72959  24.171  21.239  24.431
72095W        W72960  25.042  20.030  22.853
72096W        W72961  23.944  18.688  22.869
72097W        W72962  22.601  21.382  22.552
72098W        W72963  21.972  18.881  23.151
72099W        W72964  24.758  19.488  23.625
72100W        W72965  22.216  21.105  23.540
72101W        W72966  23.557  21.455  22.410
72102W        W72967  24.949  19.481  21.874
72103W        W72968  21.972  21.239  24.038
72104W        W72969  22.763  20.811  24.518
72105W        W72970  23.136  20.171  23.137
72106W        W72971  23.158  18.576  24.230
72107W        W72972  25.387  18.338  23.527
72108W        W72973  22.606  20.210  21.995
72109W        W72974  22.261  19.243  22.174
72110W        W72975  22.323  21.199  22.968
72111W        W72976  23.454  20.682  23.216
72112W        W72977  24.786  21.541  24.930
72113W        W72978  23.712  19.183  22.614
72114W        W72979  25.095  21.581  23.386
72115W        W72980  24.772  19.434  24.984
72116W        W72981  25.485  21.090  23.118
72117W        W72982  24.112  20.382  24.602
72118W        W72983  21.878  19.933  22.808
72119W        W72984  22.989  20.348  24.381
72120W        W72985  24.193  19.612  22.759
72121W        W72986  24.070  20.102  22.863
72122W        W72987  22.413  19.522  24.337
72123W        W72988  22.398  19.398  25.259
72124W        W72989  22.288  18.315  23.418
72125W        W72990  24.056  18.662  23.979
72126W        W72991  23.704  18.847  25.142
72127W        W72992  24.059  18.996  22.320
72128W        W72993  25.242  21.389  25.074
72129W        W72994  24.209  18.470  25.113
72130W        W72995  25.228  20.771  25.235
72131W        W72996  24.658  18.938  24.831
72132W        W72997  24.458  18.876  23.101
72133W        W72998  24.851  20.010  25.505
72134W        W72999  22.591  21.586  23.491
72135W        W73000  23.249  19.303  22.477
72136W        W73001  22.818  18.587  25.141
72137W        W73002  24.870  19.071  22.822
72138W        W73003  25.237  19.553  22.767
72139W        W73004  22.980  21.770  25.238
72140W        W73005  22.906  18.306  22.473
72141W        W73006  25.227  18.840  23.508
72142W        W73007  25.377  21.089  21.953
72143W        W73008  22.284  20.292  23.655
72144W        W73009  24.201  18.879  21.885
72145W        W73010  25.335  21.211  23.605
72146W        W73011  25.374  18.405  24.355
72147W        W73012  23.819  19.617  24.909
72148W        W73013  23.912  20.956  22.612
72149W        W73014  24.312  20.250  25.352
72150W        W73015  23.986  18.227  23.661
72151W        W73016  22.598  19.130  23.724
72152W        W73017  22.152  20.330  24.498
72153W        W73018  24.011  21.523  23.204
72154W        W73019  25.205  19.120  24.076
72155W        W73020  23.842  21.467  24.843
72156W        W73021  25.185  20.526  22.048
72157W        W73022  23.620  20.009  23.109
72158W        W73023  25.472  18.520  24.850
72159W        W73024  23.621  20.355  24.444
72160W        W73025  23.838  19.241  23.889
72161W        W73026  24.690  19.539  22.727
72162W        W73027  24.977  19.272  22.369
72163W        W73028  24.786  21.312  22.758
72164W        W73029  24.620  20.915  23.554
72165W        W73030  24.516  19.994  22.532
72166W        W73031  23.949  20.204  23.518
72167W        W73032  24.830  19.992  23.585
72168W        W73033  22.205  19.007  24.009
72169W        W73034  24.983  20.059  24.836
72170W        W73035  25.334  21.677  23.982
72171W        W73036  23.264  21.121  23.384
72172W        W73037  24.271  21.654  24.708
72173W        W73038  24.265  18.984  24.472
72174W        W73039  23.472  21.692  24.533
72175W        W73040  25.169  18.646  22.999
72176W        W73041  24.960  19.965  24.300
72177W        W73042  21.943  19.286  24.338
72178W        W73043  24.803  19.081  23.356
72179W        W73044  25.214  19.232  25.133
72180W        W73045  24.099  20.931  23.351
72181W        W73046  23.355  21.522  22.964
72182W        W73047  22.470  18.702  22.222
72183W        W73048  23.574  18.356  24.032
72184W        W73049  22.602  21.476  21.880
72185W        W73050  22.976  19.942  22.631
72186W        W73051  23.630  20.571  24.944
72187W        W73052  23.460  18.929  22.934
72188W        W73053  24.816  18.526  23.362
72189W        W73054  24.536  21.808  23.690
72190W        W73055  23.948  21.456  24.030
72191W        W73056  23.344  20.493  23.991
72192W        W73057  25.114  21.216  24.117
72193W        W73058  22.808  18.719  22.886
72194W        W73059  23.330  21.016  23.846
72195W        W73060  22.813  18.947  21.911
72196W        W73061  23.614  19.556  24.305
72197W        W73062  24.462  18.422  24.175
72198W        W73063  21.882  20.265  24.060
72199W        W73064  23.586  20.083  22.218
72200W        W73065  22.854  18.398  21.988
72201W        W73066  23.592  19.479  23.039
72202W        W73067  24.562  18.455  24.738
72203W        W73068  23.150  20.467  24.847
72204W        W73069  23.954  20.249  25.064
72205W        W73070  24.571  20.279  24.957
72206W        W73071  23.855  18.419  25.462
72207W        W73072  23.077  19.035  23.855
72208W        W73073  22.503  18.991  23.253
72209W        W73074  22.289  21.703  22.929
72210W        W73075  23.621  21.033  25.054
72211W        W73076  22.656  20.518  22.413
72212W        W73077  24.336  19.903  23.634
72213W        W73078  24.616  19.702  24.033
72214W        W73079  23.821  20.376  23.967
72215W        W73080  24.291  20.750  22.099
72216W        W73081  23.963  18.771  23.427
72217W        W73082  25.442  19.049  22.695
72218W        W73083  21.936  21.638  24.726
72219W        W73084  22.353  20.864  24.258
72220W        W73085  21.920  21.710  22.490
72221W        W73086  23.819  18.980  24.296
72222W        W73087  23.182  21.003  22.145
72223W        W73088  25.087  21.385  22.331
72224W        W73089  24.062  20.038  22.345
72225W        W73090  22.905  19.229  22.862
72226W        W73091  23.737  19.139  21.914
72227W        W73092  24.321  20.704  25.092
72228W        W73093  24.674  18.610  22.709
72229W        W73094  22.004  18.458  22.157
72230W        W73095  23.290  20.777  24.447
72231W        W73096  23.089  20.693  23.539
72232W        W73097  22.831  20.645  21.937
72233W        W73098  22.072  20.886  22.705
72234W        W73099  22.576  19.956  25.147
72235W        W73100  23.280  18.516  25.333
72236W        W73101  23.989  18.658  24.689
72237W        W73102  23.184  18.426  22.970
72238W        W73103  24.243  18.503  22.475
72239W        W73104  22.188  18.435  24.052
72240W        W73105  22.236  19.398  23.422
72241W        W73106  24.925  18.506  23.828
72242W        W73107  22.347  19.004  22.642
72243W        W73108  24.918  18.692  24.258
72244W        W73109  25.314  19.895  21.943
72245W        W73110  22.606  18.653  23.762
72246W        W73111  23.720  19.225  24.702
72247W        W73112  21.868  18.915  22.180
72248W        W73113  22.654  20.304  24.741
72249W        W73114  24.012  19.702  23.920
72250W        W73115  23.879  21.781  22.216
72251W        W73116  22.025  20.288  21.913
72252W        W73117  22.760  20.699  25.039
72253W        W73118  22.281  19.866  24.670
72254W        W73119  23.272  19.971  24.464
72255W        W73120  25.040  18.330  24.726
72256W        W73121  25.438  19.940  24.717
72257W        W73122  25.426  20.140  22.403
72258W        W73123  24.289  20.472  22.502
72259W        W73124  24.763  21.772  22.197
72260W        W73125  23.940  19.762  25.339
72261W        W73126  22.270  20.729  25.379
72262W        W73127  25.476  18.651  25.331
72263W        W73128  25.194  19.579  23.952
72264W        W73129  23.502  21.709  25.429
72265W        W73130  23.357  18.338  22.156
72266W        W73131  24.896  20.937  22.099
72267W        W73132  22.665  19.030  24.985
72268W        W73133  23.099  21.024  24.847
72269W        W73134  25.225  19.015  24.645
72270W        W73135  24.436  21.674  22.613
72271W        W73136  24.675  20.293  23.980
72272W        W73137  22.925  18.709  24.647
72273W        W73138  23.394  19.778  25.404
72274W        W73139  22.897  20.957  22.598
72275W        W73140  24.652  20.455  22.862
72276W        W73141  22.420  19.081  24.586
72277W        W73142  23.749  21.143  23.050
72278W        W73143  25.499  19.703  23.231
72279W        W73144  23.721  18.336  24.950
72280W        W73145  24.501  21.041  24.029
72281W        W73146  24.804  21.385  23.737
72282W        W73147  24.023  21.187  22.165
72283W        W73148  22.033  21.079  25.007
72284W        W73149  22.776  19.071  24.245
72285W        W73150  22.746  18.419  23.355
72286W        W73151  24.367  19.261  24.047
72287W        W73152  23.165  20.432  22.247
72288W        W73153  25.163  20.374  23.746
72289W        W73154  22.490  21.132  25.169
72290W        W73155  24.877  21.814  22.966
72291W        W73156  22.976  18.834  23.411
72292W        W73157  22.745  20.327  23.501
72293W        W73158  23.058  21.738  24.251
72294W        W73159  25.125  21.834  25.283
72295W        W73160  24.284  20.022  24.216
72296W        W73161  22.133  19.820  22.131
72297W        W73162  25.267  21.478  22.828
72298W        W73163  25.104  18.802  22.447
72299W        W73164  23.243  18.321  24.850
72300W        W73165  24.949  21.123  23.308
72301W        W73166  24.978  19.679  23.213
72302W        W73167  23.095  19.352  23.429
72303W        W73168  23.340  19.614  24.753
72304W        W73169  24.451  20.767  24.616
72305W        W73170  23.101  19.221  24.728
72306W        W73171  23.080  21.687  23.344
72307W        W73172  22.397  21.646  24.978
72308W        W73173  22.509  21.007  22.108
72309W        W73174  25.026  20.765  22.918
72310W        W73175  22.630  19.557  24.804
72311W        W73176  25.403  19.487  22.285
72312W        W73177  23.148  20.544  22.756
72313W        W73178  24.247  19.926  24.837
72314W        W73179  24.138  19.554  24.381
72315W        W73180  22.698  19.926  24.410
72316W        W73181  24.908  21.814  24.239
72317W        W73182  24.699  18.448  25.233
72318W        W73183  22.363  18.598  24.820
72319W        W73184  22.702  19.621  23.873
72320W        W73185  23.071  19.435  21.995
72321W        W73186  21.874  21.194  24.540
72322W        W73187  23.459  19.903  23.983
72323W        W73188  23.282  18.928  22.088
72324W        W73189  22.417  19.744  22.869
72325W        W73190  22.188  21.596  24.306
72326W        W73191  24.983  19.822  22.414
72327W        W73192  25.078  18.738  25.100
72328W        W73193  24.514  20.947  23.063
72329W        W73194  22.112  19.871  25.240
72330W        W73195  25.078  18.335  22.536
72331W        W73196  24.598  20.810  22.547
72332W        W73197  23.500  19.868  22.632
72333W        W73198  24.687  18.672  22.155
72334W        W73199  24.752  19.279  24.341
72335W        W73200  22.461  19.872  23.548
72336W        W73201  22.755  20.811  23.197
72337W        W73202  24.518  19.431  23.162
72338W        W73203  23.541  18.810  23.858
72339W        W73204  25.503  20.721  24.369
72340W        W73205  25.421  18.708  23.930
72341W        W73206  21.960  21.538  23.306
72342W        W73207  22.469  20.725  22.842
72343W        W73208  22.384  18.342  25.395
72344W        W73209  23.503  21.195  25.497
72345W        W73210  25.258  20.163  23.287
72346W        W73211  24.612  20.340  22.167
72347W        W73212  23.907  21.861  24.379
72348W        W73213  24.764  20.583  25.416
72349W        W73214  23.579  18.293  22.696
72350W        W73215  24.292  19.162  23.555
72351W        W73216  21.978  20.749  23.887
72352W        W73217  23.231  18.711  22.528
72353W        W73218  23.035  20.195  25.377
72354W        W73219  24.029  19.176  23.091
72355W        W73220  24.234  20.586  24.213
72356W        W73221  22.388  21.191  24.648
72357W        W73222  22.979  21.174  25.371
72358W        W73223  22.830  18.971  22.385
72359W        W73224  24.347  19.113  22.710
72360W        W73225  24.305  21.221  24.947
72361W        W73226  22.990  19.813  23.546
72362W        W73227  22.645  21.511  24.411
72363W        W73228  25.390  21.628  22.012
72364W        W73229  22.253  20.300  25.008
72365W        W73230  24.248  20.562  23.696
72366W        W73231  22.684  20.211  22.938
72367W        W73232  23.055  21.218  24.333
72368W        W73233  23.433  18.637  23.374
72369W        W73234  22.044  20.621  22.304
72370W        W73235  23.563  19.572  22.174
72371W        W73236  22.209  20.121  23.193
72372W        W73237  23.499  18.763  24.657
72373W        W73238  25.171  18.472  22.084
72374W        W73239  25.264  20.218  25.183
72375W        W73240  23.918  21.475  25.335
72376W        W73241  25.476  20.569  24.857
72377W        W73242  24.884  21.367  25.468
72378W        W73243  22.623  21.823  23.946
72379W        W73244  25.482  20.445  22.820
72380W        W73245  24.012  19.712  23.333
72381W        W73246  23.779  18.324  23.223
72382W        W73247  22.838  21.308  23.060
72383W        W73248  23.337  19.049  24.285
72384W        W73249  23.037  18.418  23.754
72385W        W73250  22.100  21.240  22.302
72386W        W73251  23.916  20.604  23.020
72387W        W73252  22.791  21.399  24.899
72388W        W73253  22.268  20.222  22.595
72389W        W73254  22.153  18.765  23.594
72390W        W73255  23.701  20.730  23.651
72391W        W73256  21.953  18.584  22.671
72392W        W73257  24.617  19.790  24.598
72393W        W73258  24.494  19.176  22.170
72394W        W73259  25.011  20.848  23.818
72395W        W73260  23.672  21.332  23.649
72396W        W73261  23.084  21.436  22.560
72397W        W73262  24.366  18.339  21.990
72398W        W73263  22.166  21.599  23.731
72399W        W73264  24.363  19.357  25.366
72400W        W73265  22.346  18.887  25.365
72401W        W73266  22.077  19.487  22.698
72402W        W73267  22.768  19.476  22.423
72403W        W73268  24.531  19.803  25.240
72404W        W73269  22.874  20.084  23.949
72405W        W73270  24.348  18.370  23.069
72406W        W73271  23.479  21.801  23.572
72407W        W73272  24.693  21.263  24.509
72408W        W73273  24.277  21.412  23.620
72409W        W73274  24.296  20.392  23.214
72410W        W73275  23.758  18.617  22.285
72411W        W73276  25.439  18.245  23.007
72412W        W73277  23.127  19.880  22.170
72413W        W73278  25.293  19.217  23.160
72414W        W73279  23.985  20.387  22.037
72415W        W73280  24.921  20.587  24.785
72416W        W73281  24.575  21.288  22.252
72417W        W73282  23.190  18.963  25.158
72418W        W73283  23.010  19.547  24.399
72419W        W73284  25.102  21.042  24.676
72420W        W73285  24.202  18.992  25.053
72421W        W73286  22.046  19.463  24.830
72422W        W73287  23.806  19.940  24.556
72423W        W73288  22.163  20.698  23.213
72424W        W73289  22.310  19.995  24.103
72425W        W73290  24.627  20.281  24.453
72426W        W73291  24.399  21.661  25.264
72427W        W73292  24.295  19.400  24.817
72428W        W73293  24.572  21.454  23.222
72429W        W73294  23.574  21.174  24.545
72430W        W73295  23.059  21.529  23.814
72431W        W73296  24.864  20.700  24.233
72432W        W73297  23.914  20.772  25.370
72433W        W73298  22.519  20.725  23.709
72434W        W73299  24.865  20.484  23.354
72435W        W73300  24.506  21.550  24.105
72436W        W73301  22.484  21.279  23.975
72437W        W73302  23.505  19.331  25.185
72438W        W73303  23.956  21.497  22.696
72439W        W73304  23.264  20.752  25.334
72440W        W73305  23.390  20.990  22.711
72441W        W73306  22.611  19.730  21.970
72442W        W73307  21.950  21.816  28.869
72443W        W73308  22.326  20.709  28.392
72444W        W73309  25.031  20.439  26.162
72445W        W73310  25.161  21.524  28.189
72446W        W73311  23.079  21.515  25.715
72447W        W73312  23.162  19.667  26.698
72448W        W73313  22.677  19.515  26.862
72449W        W73314  23.668  20.330  26.296
72450W        W73315  23.343  21.422  28.651
72451W        W73316  21.992  18.983  28.614
72452W        W73317  22.754  18.263  28.416
72453W        W73318  24.448  18.651  27.303
72454W        W73319  24.097  19.522  25.873
72455W        W73320  24.667  18.956  28.964
72456W        W73321  22.033  18.748  28.089
72457W        W73322  22.132  21.367  29.110
72458W        W73323  23.654  20.757  25.842
72459W        W73324  22.086  19.540  27.535
72460W        W73325  22.979  19.431  28.772
72461W        W73326  25.438  19.290  27.271
72462W        W73327  25.202  20.333  28.130
72463W        W73328  23.510  19.666  27.157
72464W        W73329  24.056  21.005  27.526
72465W        W73330  22.556  20.439  27.758
72466W        W73331  21.915  19.967  27.329
72467W        W73332  22.951  19.939  28.521
72468W        W73333  25.222  19.722  28.775
72469W        W73334  22.838  21.166  27.220
72470W        W73335  23.959  20.855  28.354
72471W        W73336  23.179  19.495  27.579
72472W        W73337  23.471  20.279  27.222
72473W        W73338  24.468  21.052  29.070
72474W        W73339  23.547  20.372  29.080
72475W        W73340  23.528  20.088  28.558
72476W        W73341  21.937  19.479  29.080
72477W        W73342  24.769  21.014  28.679
72478W        W73343  22.350  18.596  26.677
72479W        W73344  22.877  20.854  27.676
72480W        W73345  25.340  20.637  26.966
72481W        W73346  24.753  19.037  27.533
72482W        W73347  25.038  18.990  25.628
72483W        W73348  25.503  19.791  27.934
72484W        W73349  23.470  21.498  27.687
72485W        W73350  25.244  20.964  26.125
72486W        W73351  22.373  21.750  25.879
72487W        W73352  22.766  21.796  26.555
72488W        W73353  22.563  18.550  27.981
72489W        W73354  25.186  19.568  28.256
72490W        W73355  24.591  19.990  26.715
72491W        W73356  24.557  19.678  25.742
72492W        W73357  23.765  20.822  27.882
72493W        W73358  23.571  19.152  27.081
72494W        W73359  24.171  21.239  28.075
72495W        W73360  25.042  20.030  26.497
72496W        W73361  23.944  18.688  26.513
72497W        W73362  22.601  21.382  26.196
72498W        W73363  21.972  18.881  26.795
72499W        W73364  24.758  19.488  27.269
72500W        W73365  22.216  21.105  27.184
72501W        W73366  23.557  21.455  26.054
72502W        W73367  24.949  19.481  25.518
72503W        W73368  21.972  21.239  27.682
72504W        W73369  22.763  20.811  28.162
72505W        W73370  23.136  20.171  26.781
72506W        W73371  23.158  18.576  27.874
72507W        W73372  25.387  18.338  27.171
72508W        W73373  22.606  20.210  25.639
72509W        W73374  22.261  19.243  25.818
72510W        W73375  22.323  21.199  26.612
72511W        W73376  23.454  20.682  26.860
72512W        W73377  24.786  21.541  28.574
72513W        W73378  23.712  19.183  26.258
72514W        W73379  25.095  21.581  27.030
72515W        W73380  24.772  19.434  28.628
72516W        W73381  25.485  21.090  26.762
72517W        W73382  24.112  20.382  28.246
72518W        W73383  21.878  19.933  26.452
72519W        W73384  22.989  20.348  28.025
72520W        W73385  24.193  19.612  26.403
72521W        W73386  24.070  20.102  26.507
72522W        W73387  22.413  19.522  27.981
72523W        W73388  22.398  19.398  28.903
72524W        W73389  22.288  18.315  27.062
72525W        W73390  24.056  18.662  27.623
72526W        W73391  23.704  18.847  28.786
72527W        W73392  24.059  18.996  25.964
72528W        W73393  25.242  21.389  28.718
72529W        W73394  24.209  18.470  28.757
72530W        W73395  25.228  20.771  28.879
72531W        W73396  24.658  18.938  28.475
72532W        W73397  24.458  18.876  26.745
72533W        W73398  24.851  20.010  29.149
72534W        W73399  22.591  21.586  27.135
72535W        W73400  23.249  19.303  26.121
72536W        W73401  22.818  18.587  28.785
72537W        W73402  24.870  19.071  26.466
72538W        W73403  25.237  19.553  26.411
72539W        W73404  22.980  21.770  28.882
72540W        W73405  22.906  18.306  26.117
72541W        W73406  25.227  18.840  27.152
72542W        W73407  25.377  21.089  25.597
72543W        W73408  22.284  20.292  27.299
72544W        W73409  24.201  18.879  25.529
72545W        W73410  25.335  21.211  27.249
72546W        W73411  25.374  18.405  27.999
72547W        W73412  23.819  19.617  28.553
72548W        W73413  23.912  20.956  26.256
72549W        W73414  24.312  20.250  28.996
72550W        W73415  23.986  18.227  27.305
72551W        W73416  22.598  19.130  27.368
72552W        W73417  22.152  20.330  28.142
72553W        W73418  24.011  21.523  26.848
72554W        W73419  25.205  19.120  27.720
72555W        W73420  23.842  21.467  28.487
72556W        W73421  25.185  20.526  25.692
72557W        W73422  23.620  20.009  26.753
72558W        W73423  25.472  18.520  28.494
72559W        W73424  23.621  20.355  28.088
72560W        W73425  23.838  19.241  27.533
72561W        W73426  24.690  19.539  26.371
72562W        W73427  24.977  19.272  26.013
72563W        W73428  24.786  21.312  26.402
72564W        W73429  24.620  20.915  27.198
72565W        W73430  24.516  19.994  26.176
72566W        W73431  23.949  20.204  27.162
72567W        W73432  24.830  19.992  27.229
72568W        W73433  22.205  19.007  27.653
72569W        W73434  24.983  20.059  28.480
72570W        W73435  25.334  21.677  27.626
72571W        W73436  23.264  21.121  27.028
72572W        W73437  24.271  21.654  28.352
72573W        W73438  24.265  18.984  28.116
72574W        W73439  23.472  21.692  28.177
72575W        W73440  25.169  18.646  26.643
72576W        W73441  24.960  19.965  27.944
72577W        W73442  21.943  19.286  27.982
72578W        W73443  24.803  19.081  27.000
72579W        W73444  25.214  19.232  28.777
72580W        W73445  24.099  20.931  26.995
72581W        W73446  23.355  21.522  26.608
72582W        W73447  22.470  18.702  25.866
72583W        W73448  23.574  18.356  27.676
72584W        W73449  22.602  21.476  25.524
72585W        W73450  22.976  19.942  26.275
72586W        W73451  23.630  20.571  28.588
72587W        W73452  23.460  18.929  26.578
72588W        W73453  24.816  18.526  27.006
72589W        W73454  24.536  21.808  27.334
72590W        W73455  23.948  21.456  27.674
72591W        W73456  23.344  20.493  27.635
72592W        W73457  25.114  21.216  27.761
72593W        W73458  22.808  18.719  26.530
72594W        W73459  23.330  21.016  27.490
72595W        W73460  22.813  18.947  25.555
72596W        W73461  23.614  19.556  27.949
72597W        W73462  24.462  18.422  27.819
72598W        W73463  21.882  20.265  27.704
72599W        W73464  23.586  20.083  25.862
72600W        W73465  22.854  18.398  25.632
72601W        W73466  23.592  19.479  26.683
72602W        W73467  24.562  18.455  28.382
72603W        W73468  23.150  20.467  28.491
72604W        W73469  23.954  20.249  28.708
72605W        W73470  24.571  20.279  28.601
72606W        W73471  23.855  18.419  29.106
72607W        W73472  23.077  19.035  27.499
72608W        W73473  22.503  18.991  26.897
72609W        W73474  22.289  21.703  26.573
72610W        W73475  22.656  20.518  26.057
72611W        W73476  24.336  19.903  27.278
72612W        W73477  24.616  19.702  27.677
72613W        W73478  23.821  20.376  27.611
72614W        W73479  24.291  20.750  25.743
72615W        W73480  23.963  18.771  27.071
72616W        W73481  25.442  19.049  26.339
72617W        W73482  21.936  21.638  28.370
72618W        W73483  22.353  20.864  27.902
72619W        W73484  21.920  21.710  26.134
72620W        W73485  23.819  18.980  27.940
72621W        W73486  23.182  21.003  25.789
72622W        W73487  25.087  21.385  25.975
72623W        W73488  24.062  20.038  25.989
72624W        W73489  22.905  19.229  26.506
72625W        W73490  23.737  19.139  25.558
72626W        W73491  24.321  20.704  28.736
72627W        W73492  24.674  18.610  26.353
72628W        W73493  22.004  18.458  25.801
72629W        W73494  23.290  20.777  28.091
72630W        W73495  23.089  20.693  27.183
72631W        W73496  22.831  20.645  25.581
72632W        W73497  22.072  20.886  26.349
72633W        W73498  22.576  19.956  28.791
72634W        W73499  23.280  18.516  28.977
72635W        W73500  23.989  18.658  28.333
72636W        W73501  23.184  18.426  26.614
72637W        W73502  24.243  18.503  26.119
72638W        W73503  22.188  18.435  27.696
72639W        W73504  22.236  19.398  27.066
72640W        W73505  24.925  18.506  27.472
72641W        W73506  22.347  19.004  26.286
72642W        W73507  24.918  18.692  27.902
72643W        W73508  25.314  19.895  25.587
72644W        W73509  22.606  18.653  27.406
72645W        W73510  23.720  19.225  28.346
72646W        W73511  21.868  18.915  25.824
72647W        W73512  22.654  20.304  28.385
72648W        W73513  24.012  19.702  27.564
72649W        W73514  23.879  21.781  25.860
72650W        W73515  22.025  20.288  25.557
72651W        W73516  22.760  20.699  28.683
72652W        W73517  22.281  19.866  28.314
72653W        W73518  23.272  19.971  28.108
72654W        W73519  25.040  18.330  28.370
72655W        W73520  25.438  19.940  28.361
72656W        W73521  25.426  20.140  26.047
72657W        W73522  24.289  20.472  26.146
72658W        W73523  24.763  21.772  25.841
72659W        W73524  23.940  19.762  28.983
72660W        W73525  22.270  20.729  29.023
72661W        W73526  25.476  18.651  28.975
72662W        W73527  25.194  19.579  27.596
72663W        W73528  23.502  21.709  29.073
72664W        W73529  23.357  18.338  25.800
72665W        W73530  24.896  20.937  25.743
72666W        W73531  22.665  19.030  28.629
72667W        W73532  25.225  19.015  28.289
72668W        W73533  24.436  21.674  26.257
72669W        W73534  24.675  20.293  27.624
72670W        W73535  22.925  18.709  28.291
72671W        W73536  23.394  19.778  29.048
72672W        W73537  22.897  20.957  26.242
72673W        W73538  24.652  20.455  26.506
72674W        W73539  22.420  19.081  28.230
72675W        W73540  23.749  21.143  26.694
72676W        W73541  25.499  19.703  26.875
72677W        W73542  23.721  18.336  28.594
72678W        W73543  24.501  21.041  27.673
72679W        W73544  24.804  21.385  27.381
72680W        W73545  24.023  21.187  25.809
72681W        W73546  22.033  21.079  28.651
72682W        W73547  22.776  19.071  27.889
72683W        W73548  22.746  18.419  26.999
72684W        W73549  24.367  19.261  27.691
72685W        W73550  23.165  20.432  25.891
72686W        W73551  25.163  20.374  27.390
72687W        W73552  22.490  21.132  28.813
72688W        W73553  24.877  21.814  26.610
72689W        W73554  22.976  18.834  27.055
72690W        W73555  22.745  20.327  27.145
72691W        W73556  23.058  21.738  27.895
72692W        W73557  25.125  21.834  28.927
72693W        W73558  24.284  20.022  27.860
72694W        W73559  22.133  19.820  25.775
72695W        W73560  25.267  21.478  26.472
72696W        W73561  25.104  18.802  26.091
72697W        W73562  23.243  18.321  28.494
72698W        W73563  24.949  21.123  26.952
72699W        W73564  24.978  19.679  26.857
72700W        W73565  23.095  19.352  27.073
72701W        W73566  23.340  19.614  28.397
72702W        W73567  24.451  20.767  28.260
72703W        W73568  23.101  19.221  28.372
72704W        W73569  23.080  21.687  26.988
72705W        W73570  22.397  21.646  28.622
72706W        W73571  22.509  21.007  25.752
72707W        W73572  25.026  20.765  26.562
72708W        W73573  22.630  19.557  28.448
72709W        W73574  25.403  19.487  25.929
72710W        W73575  23.148  20.544  26.400
72711W        W73576  24.247  19.926  28.481
72712W        W73577  24.138  19.554  28.025
72713W        W73578  22.698  19.926  28.054
72714W        W73579  24.908  21.814  27.883
72715W        W73580  24.699  18.448  28.877
72716W        W73581  22.363  18.598  28.464
72717W        W73582  22.702  19.621  27.517
72718W        W73583  23.071  19.435  25.639
72719W        W73584  21.874  21.194  28.184
72720W        W73585  23.459  19.903  27.627
72721W        W73586  23.282  18.928  25.732
72722W        W73587  22.417  19.744  26.513
72723W        W73588  22.188  21.596  27.950
72724W        W73589  24.983  19.822  26.058
72725W        W73590  25.078  18.738  28.744
72726W        W73591  24.514  20.947  26.707
72727W        W73592  22.112  19.871  28.884
72728W        W73593  25.078  18.335  26.180
72729W        W73594  24.598  20.810  26.191
72730W        W73595  23.500  19.868  26.276
72731W        W73596  24.687  18.672  25.799
72732W        W73597  24.752  19.279  27.985
72733W        W73598  22.461  19.872  27.192
72734W        W73599  22.755  20.811  26.841
72735W        W73600  24.518  19.431  26.806
72736W        W73601  23.541  18.810  27.502
72737W        W73602  25.503  20.721  28.013
72738W        W73603  25.421  18.708  27.574
72739W        W73604  21.960  21.538  26.950
72740W        W73605  22.469  20.725  26.486
72741W        W73606  22.384  18.342  29.039
72742W        W73607  23.503  21.195  29.141
72743W        W73608  25.258  20.163  26.931
72744W        W73609  24.612  20.340  25.811
72745W        W73610  23.907  21.861  28.023
72746W        W73611  24.764  20.583  29.060
72747W        W73612  23.579  18.293  26.340
72748W        W73613  24.292  19.162  27.199
72749W        W73614  21.978  20.749  27.531
72750W        W73615  23.231  18.711  26.172
72751W        W73616  23.035  20.195  29.021
72752W        W73617  24.029  19.176  26.735
72753W        W73618  24.234  20.586  27.857
72754W        W73619  22.388  21.191  28.292
72755W        W73620  22.979  21.174  29.015
72756W        W73621  22.830  18.971  26.029
72757W        W73622  24.347  19.113  26.354
72758W        W73623  24.305  21.221  28.591
72759W        W73624  22.990  19.813  27.190
72760W        W73625  22.645  21.511  28.055
72761W        W73626  25.390  21.628  25.656
72762W        W73627  22.253  20.300  28.652
72763W        W73628  24.248  20.562  27.340
72764W        W73629  22.684  20.211  26.582
72765W        W73630  23.055  21.218  27.977
72766W        W73631  23.433  18.637  27.018
72767W        W73632  22.044  20.621  25.948
72768W        W73633  23.563  19.572  25.818
72769W        W73634  22.209  20.121  26.837
72770W        W73635  23.499  18.763  28.301
72771W        W73636  25.171  18.472  25.728
72772W        W73637  25.264  20.218  28.827
72773W        W73638  23.918  21.475  28.979
72774W        W73639  25.476  20.569  28.501
72775W        W73640  24.884  21.367  29.112
72776W        W73641  22.623  21.823  27.590
72777W        W73642  25.482  20.445  26.464
72778W        W73643  24.012  19.712  26.977
72779W        W73644  23.779  18.324  26.867
72780W        W73645  22.838  21.308  26.704
72781W        W73646  23.337  19.049  27.929
72782W        W73647  23.037  18.418  27.398
72783W        W73648  22.100  21.240  25.946
72784W        W73649  23.916  20.604  26.664
72785W        W73650  22.791  21.399  28.543
72786W        W73651  22.268  20.222  26.239
72787W        W73652  22.153  18.765  27.238
72788W        W73653  23.701  20.730  27.295
72789W        W73654  21.953  18.584  26.315
72790W        W73655  24.617  19.790  28.242
72791W        W73656  24.494  19.176  25.814
72792W        W73657  25.011  20.848  27.462
72793W        W73658  23.672  21.332  27.293
72794W        W73659  23.084  21.436  26.204
72795W        W73660  24.366  18.339  25.634
72796W        W73661  22.166  21.599  27.375
72797W        W73662  24.363  19.357  29.010
72798W        W73663  22.346  18.887  29.009
72799W        W73664  22.077  19.487  26.342
72800W        W73665  22.768  19.476  26.067
72801W        W73666  24.531  19.803  28.884
72802W        W73667  22.874  20.084  27.593
72803W        W73668  24.348  18.370  26.713
72804W        W73669  23.479  21.801  27.216
72805W        W73670  24.693  21.263  28.153
72806W        W73671  24.277  21.412  27.264
72807W        W73672  24.296  20.392  26.858
72808W        W73673  23.758  18.617  25.929
72809W        W73674  25.439  18.245  26.651
72810W        W73675  23.127  19.880  25.814
72811W        W73676  25.293  19.217  26.804
72812W        W73677  23.985  20.387  25.681
72813W        W73678  24.921  20.587  28.429
72814W        W73679  24.575  21.288  25.896
72815W        W73680  23.190  18.963  28.802
72816W        W73681  23.010  19.547  28.043
72817W        W73682  25.102  21.042  28.320
72818W        W73683  24.202  18.992  28.697
72819W        W73684  22.046  19.463  28.474
72820W        W73685  23.806  19.940  28.200
72821W        W73686  22.163  20.698  26.857
72822W        W73687  22.310  19.995  27.747
72823W        W73688  24.627  20.281  28.097
72824W        W73689  24.399  21.661  28.908
72825W        W73690  24.295  19.400  28.461
72826W        W73691  24.572  21.454  26.866
72827W        W73692  23.574  21.174  28.189
72828W        W73693  23.059  21.529  27.458
72829W        W73694  24.864  20.700  27.877
72830W        W73695  22.519  20.725  27.353
72831W        W73696  24.865  20.484  26.998
72832W        W73697  24.506  21.550  27.749
72833W        W73698  22.484  21.279  27.619
72834W        W73699  23.505  19.331  28.829
72835W        W73700  23.956  21.497  26.340
72836W        W73701  23.264  20.752  28.978
72837W        W73702  23.390  20.990  26.355
72838W        W73703  22.611  19.730  25.614
72839W        W73704  21.950  25.461   3.359
72840W        W73705  22.326  24.354   2.882
72841W        W73706  25.031  24.084   0.652
72842W        W73707  25.161  25.169   2.679
72843W        W73708  23.079  25.160   0.205
72844W        W73709  23.162  23.312   1.188
72845W        W73710  22.677  23.160   1.352
72846W        W73711  23.668  23.975   0.786
72847W        W73712  23.343  25.067   3.141
72848W        W73713  21.992  22.628   3.104
72849W        W73714  22.754  21.908   2.906
72850W        W73715  24.448  22.296   1.793
72851W        W73716  24.097  23.167   0.363
72852W        W73717  24.667  22.601   3.454
72853W        W73718  22.033  22.393   2.579
72854W        W73719  22.132  25.012   3.600
72855W        W73720  23.654  24.402   0.332
72856W        W73721  22.086  23.185   2.025
72857W        W73722  22.979  23.076   3.262
72858W        W73723  25.438  22.935   1.761
72859W        W73724  25.202  23.978   2.620
72860W        W73725  23.510  23.311   1.647
72861W        W73726  24.056  24.650   2.016
72862W        W73727  22.556  24.084   2.248
72863W        W73728  21.915  23.612   1.819
72864W        W73729  22.951  23.584   3.011
72865W        W73730  25.222  23.367   3.265
72866W        W73731  22.838  24.811   1.710
72867W        W73732  23.959  24.500   2.844
72868W        W73733  23.179  23.140   2.069
72869W        W73734  23.471  23.924   1.712
72870W        W73735  24.468  24.697   3.560
72871W        W73736  23.547  24.017   3.570
72872W        W73737  23.528  23.733   3.048
72873W        W73738  21.937  23.124   3.570
72874W        W73739  24.769  24.659   3.169
72875W        W73740  22.350  22.241   1.167
72876W        W73741  22.877  24.499   2.166
72877W        W73742  25.340  24.282   1.456
72878W        W73743  24.753  22.682   2.023
72879W        W73744  25.038  22.635   0.118
72880W        W73745  25.503  23.436   2.424
72881W        W73746  23.470  25.143   2.177
72882W        W73747  25.244  24.609   0.615
72883W        W73748  22.373  25.395   0.369
72884W        W73749  22.766  25.441   1.045
72885W        W73750  22.563  22.195   2.471
72886W        W73751  25.186  23.213   2.746
72887W        W73752  24.591  23.635   1.205
72888W        W73753  24.557  23.323   0.232
72889W        W73754  23.765  24.467   2.372
72890W        W73755  23.571  22.797   1.571
72891W        W73756  24.171  24.884   2.565
72892W        W73757  25.042  23.675   0.987
72893W        W73758  23.944  22.333   1.003
72894W        W73759  22.601  25.027   0.686
72895W        W73760  21.972  22.526   1.285
72896W        W73761  24.758  23.133   1.759
72897W        W73762  22.216  24.750   1.674
72898W        W73763  23.557  25.100   0.544
72899W        W73764  24.949  23.126   0.008
72900W        W73765  21.972  24.884   2.172
72901W        W73766  22.763  24.456   2.652
72902W        W73767  23.136  23.816   1.271
72903W        W73768  23.158  22.221   2.364
72904W        W73769  25.387  21.983   1.661
72905W        W73770  22.606  23.855   0.129
72906W        W73771  22.261  22.888   0.308
72907W        W73772  22.323  24.844   1.102
72908W        W73773  23.454  24.327   1.350
72909W        W73774  24.786  25.186   3.064
72910W        W73775  23.712  22.828   0.748
72911W        W73776  25.095  25.226   1.520
72912W        W73777  24.772  23.079   3.118
72913W        W73778  25.485  24.735   1.252
72914W        W73779  24.112  24.027   2.736
72915W        W73780  21.878  23.578   0.942
72916W        W73781  22.989  23.993   2.515
72917W        W73782  24.193  23.257   0.893
72918W        W73783  24.070  23.747   0.997
72919W        W73784  22.413  23.167   2.471
72920W        W73785  22.398  23.043   3.393
72921W        W73786  22.288  21.960   1.552
72922W        W73787  24.056  22.307   2.113
72923W        W73788  23.704  22.492   3.276
72924W        W73789  24.059  22.641   0.454
72925W        W73790  25.242  25.034   3.208
72926W        W73791  24.209  22.115   3.247
72927W        W73792  25.228  24.416   3.369
72928W        W73793  24.658  22.583   2.965
72929W        W73794  24.458  22.521   1.235
72930W        W73795  24.851  23.655   3.639
72931W        W73796  22.591  25.231   1.625
72932W        W73797  23.249  22.948   0.611
72933W        W73798  22.818  22.232   3.275
72934W        W73799  24.870  22.716   0.956
72935W        W73800  25.237  23.198   0.901
72936W        W73801  22.980  25.415   3.372
72937W        W73802  22.906  21.951   0.607
72938W        W73803  25.227  22.485   1.642
72939W        W73804  25.377  24.734   0.087
72940W        W73805  22.284  23.937   1.789
72941W        W73806  24.201  22.524   0.019
72942W        W73807  25.335  24.856   1.739
72943W        W73808  25.374  22.050   2.489
72944W        W73809  23.819  23.262   3.043
72945W        W73810  23.912  24.601   0.746
72946W        W73811  24.312  23.895   3.486
72947W        W73812  23.986  21.872   1.795
72948W        W73813  22.598  22.775   1.858
72949W        W73814  22.152  23.975   2.632
72950W        W73815  24.011  25.168   1.338
72951W        W73816  25.205  22.765   2.210
72952W        W73817  23.842  25.112   2.977
72953W        W73818  25.185  24.171   0.182
72954W        W73819  23.620  23.654   1.243
72955W        W73820  25.472  22.165   2.984
72956W        W73821  23.621  24.000   2.578
72957W        W73822  23.838  22.886   2.023
72958W        W73823  24.690  23.184   0.861
72959W        W73824  24.977  22.917   0.503
72960W        W73825  24.786  24.957   0.892
72961W        W73826  24.620  24.560   1.688
72962W        W73827  24.516  23.639   0.666
72963W        W73828  23.949  23.849   1.652
72964W        W73829  24.830  23.637   1.719
72965W        W73830  22.205  22.652   2.143
72966W        W73831  24.983  23.704   2.970
72967W        W73832  25.334  25.322   2.116
72968W        W73833  23.264  24.766   1.518
72969W        W73834  24.271  25.299   2.842
72970W        W73835  24.265  22.629   2.606
72971W        W73836  23.472  25.337   2.667
72972W        W73837  25.169  22.291   1.133
72973W        W73838  24.960  23.610   2.434
72974W        W73839  21.943  22.931   2.472
72975W        W73840  24.803  22.726   1.490
72976W        W73841  25.214  22.877   3.267
72977W        W73842  24.099  24.576   1.485
72978W        W73843  23.355  25.167   1.098
72979W        W73844  22.470  22.347   0.356
72980W        W73845  23.574  22.001   2.166
72981W        W73846  22.602  25.121   0.014
72982W        W73847  22.976  23.587   0.765
72983W        W73848  23.630  24.216   3.078
72984W        W73849  23.460  22.574   1.068
72985W        W73850  24.816  22.171   1.496
72986W        W73851  24.536  25.453   1.824
72987W        W73852  23.948  25.101   2.164
72988W        W73853  23.344  24.138   2.125
72989W        W73854  25.114  24.861   2.251
72990W        W73855  22.808  22.364   1.020
72991W        W73856  23.330  24.661   1.980
72992W        W73857  22.813  22.592   0.045
72993W        W73858  23.614  23.201   2.439
72994W        W73859  24.462  22.067   2.309
72995W        W73860  21.882  23.910   2.194
72996W        W73861  23.586  23.728   0.352
72997W        W73862  22.854  22.043   0.122
72998W        W73863  23.592  23.124   1.173
72999W        W73864  24.562  22.100   2.872
73000W        W73865  23.150  24.112   2.981
73001W        W73866  23.954  23.894   3.198
73002W        W73867  24.571  23.924   3.091
73003W        W73868  23.855  22.064   3.596
73004W        W73869  23.077  22.680   1.989
73005W        W73870  22.503  22.636   1.387
73006W        W73871  22.289  25.348   1.063
73007W        W73872  23.621  24.678   3.188
73008W        W73873  22.656  24.163   0.547
73009W        W73874  24.336  23.548   1.768
73010W        W73875  24.616  23.347   2.167
73011W        W73876  23.821  24.021   2.101
73012W        W73877  24.291  24.395   0.233
73013W        W73878  23.963  22.416   1.561
73014W        W73879  25.442  22.694   0.829
73015W        W73880  21.936  25.283   2.860
73016W        W73881  22.353  24.509   2.392
73017W        W73882  21.920  25.355   0.624
73018W        W73883  23.819  22.625   2.430
73019W        W73884  23.182  24.648   0.279
73020W        W73885  25.087  25.030   0.465
73021W        W73886  24.062  23.683   0.479
73022W        W73887  22.905  22.874   0.996
73023W        W73888  23.737  22.784   0.048
73024W        W73889  24.321  24.349   3.226
73025W        W73890  24.674  22.255   0.843
73026W        W73891  22.004  22.103   0.291
73027W        W73892  23.290  24.422   2.581
73028W        W73893  23.089  24.338   1.673
73029W        W73894  22.831  24.290   0.071
73030W        W73895  22.072  24.531   0.839
73031W        W73896  22.576  23.601   3.281
73032W        W73897  23.280  22.161   3.467
73033W        W73898  23.989  22.303   2.823
73034W        W73899  23.184  22.071   1.104
73035W        W73900  24.243  22.148   0.609
73036W        W73901  22.188  22.080   2.186
73037W        W73902  22.236  23.043   1.556
73038W        W73903  24.925  22.151   1.962
73039W        W73904  22.347  22.649   0.776
73040W        W73905  24.918  22.337   2.392
73041W        W73906  25.314  23.540   0.077
73042W        W73907  22.606  22.298   1.896
73043W        W73908  23.720  22.870   2.836
73044W        W73909  21.868  22.560   0.314
73045W        W73910  22.654  23.949   2.875
73046W        W73911  24.012  23.347   2.054
73047W        W73912  23.879  25.426   0.350
73048W        W73913  22.025  23.933   0.047
73049W        W73914  22.760  24.344   3.173
73050W        W73915  22.281  23.511   2.804
73051W        W73916  23.272  23.616   2.598
73052W        W73917  25.040  21.975   2.860
73053W        W73918  25.438  23.585   2.851
73054W        W73919  25.426  23.785   0.537
73055W        W73920  24.289  24.117   0.636
73056W        W73921  24.763  25.417   0.331
73057W        W73922  23.940  23.407   3.473
73058W        W73923  22.270  24.374   3.513
73059W        W73924  25.476  22.296   3.465
73060W        W73925  25.194  23.224   2.086
73061W        W73926  23.502  25.354   3.563
73062W        W73927  23.357  21.983   0.290
73063W        W73928  24.896  24.582   0.233
73064W        W73929  22.665  22.675   3.119
73065W        W73930  23.099  24.669   2.981
73066W        W73931  25.225  22.660   2.779
73067W        W73932  24.436  25.319   0.747
73068W        W73933  24.675  23.938   2.114
73069W        W73934  22.925  22.354   2.781
73070W        W73935  23.394  23.423   3.538
73071W        W73936  22.897  24.602   0.732
73072W        W73937  24.652  24.100   0.996
73073W        W73938  22.420  22.726   2.720
73074W        W73939  23.749  24.788   1.184
73075W        W73940  25.499  23.348   1.365
73076W        W73941  23.721  21.981   3.084
73077W        W73942  24.501  24.686   2.163
73078W        W73943  24.804  25.030   1.871
73079W        W73944  24.023  24.832   0.299
73080W        W73945  22.033  24.724   3.141
73081W        W73946  22.776  22.716   2.379
73082W        W73947  22.746  22.064   1.489
73083W        W73948  24.367  22.906   2.181
73084W        W73949  23.165  24.077   0.381
73085W        W73950  25.163  24.019   1.880
73086W        W73951  22.490  24.777   3.303
73087W        W73952  24.877  25.459   1.100
73088W        W73953  22.976  22.479   1.545
73089W        W73954  22.745  23.972   1.635
73090W        W73955  23.058  25.383   2.385
73091W        W73956  25.125  25.479   3.417
73092W        W73957  24.284  23.667   2.350
73093W        W73958  22.133  23.465   0.265
73094W        W73959  25.267  25.123   0.962
73095W        W73960  25.104  22.447   0.581
73096W        W73961  23.243  21.966   2.984
73097W        W73962  24.949  24.768   1.442
73098W        W73963  24.978  23.324   1.347
73099W        W73964  23.095  22.997   1.563
73100W        W73965  23.340  23.259   2.887
73101W        W73966  24.451  24.412   2.750
73102W        W73967  23.101  22.866   2.862
73103W        W73968  23.080  25.332   1.478
73104W        W73969  22.397  25.291   3.112
73105W        W73970  22.509  24.652   0.242
73106W        W73971  25.026  24.410   1.052
73107W        W73972  22.630  23.202   2.938
73108W        W73973  25.403  23.132   0.419
73109W        W73974  23.148  24.189   0.890
73110W        W73975  24.247  23.571   2.971
73111W        W73976  24.138  23.199   2.515
73112W        W73977  22.698  23.571   2.544
73113W        W73978  24.908  25.459   2.373
73114W        W73979  24.699  22.093   3.367
73115W        W73980  22.363  22.243   2.954
73116W        W73981  22.702  23.266   2.007
73117W        W73982  23.071  23.080   0.129
73118W        W73983  21.874  24.839   2.674
73119W        W73984  23.459  23.548   2.117
73120W        W73985  23.282  22.573   0.222
73121W        W73986  22.417  23.389   1.003
73122W        W73987  22.188  25.241   2.440
73123W        W73988  24.983  23.467   0.548
73124W        W73989  25.078  22.383   3.234
73125W        W73990  24.514  24.592   1.197
73126W        W73991  22.112  23.516   3.374
73127W        W73992  25.078  21.980   0.670
73128W        W73993  24.598  24.455   0.681
73129W        W73994  23.500  23.513   0.766
73130W        W73995  24.687  22.317   0.289
73131W        W73996  24.752  22.924   2.475
73132W        W73997  22.461  23.517   1.682
73133W        W73998  22.755  24.456   1.331
73134W        W73999  24.518  23.076   1.296
73135W        W74000  23.541  22.455   1.992
73136W        W74001  25.503  24.366   2.503
73137W        W74002  25.421  22.353   2.064
73138W        W74003  21.960  25.183   1.440
73139W        W74004  22.469  24.370   0.976
73140W        W74005  22.384  21.987   3.529
73141W        W74006  23.503  24.840   3.631
73142W        W74007  25.258  23.808   1.421
73143W        W74008  24.612  23.985   0.301
73144W        W74009  23.907  25.506   2.513
73145W        W74010  24.764  24.228   3.550
73146W        W74011  23.579  21.938   0.830
73147W        W74012  24.292  22.807   1.689
73148W        W74013  21.978  24.394   2.021
73149W        W74014  23.231  22.356   0.662
73150W        W74015  23.035  23.840   3.511
73151W        W74016  24.029  22.821   1.225
73152W        W74017  24.234  24.231   2.347
73153W        W74018  22.388  24.836   2.782
73154W        W74019  22.979  24.819   3.505
73155W        W74020  22.830  22.616   0.519
73156W        W74021  24.347  22.758   0.844
73157W        W74022  24.305  24.866   3.081
73158W        W74023  22.990  23.458   1.680
73159W        W74024  22.645  25.156   2.545
73160W        W74025  25.390  25.273   0.146
73161W        W74026  22.253  23.945   3.142
73162W        W74027  24.248  24.207   1.830
73163W        W74028  22.684  23.856   1.072
73164W        W74029  23.055  24.863   2.467
73165W        W74030  23.433  22.282   1.508
73166W        W74031  22.044  24.266   0.438
73167W        W74032  23.563  23.217   0.308
73168W        W74033  22.209  23.766   1.327
73169W        W74034  23.499  22.408   2.791
73170W        W74035  25.171  22.117   0.218
73171W        W74036  25.264  23.863   3.317
73172W        W74037  23.918  25.120   3.469
73173W        W74038  25.476  24.214   2.991
73174W        W74039  24.884  25.012   3.602
73175W        W74040  22.623  25.468   2.080
73176W        W74041  25.482  24.090   0.954
73177W        W74042  24.012  23.357   1.467
73178W        W74043  23.779  21.969   1.357
73179W        W74044  22.838  24.953   1.194
73180W        W74045  23.337  22.694   2.419
73181W        W74046  23.037  22.063   1.888
73182W        W74047  22.100  24.885   0.436
73183W        W74048  23.916  24.249   1.154
73184W        W74049  22.791  25.044   3.033
73185W        W74050  22.268  23.867   0.729
73186W        W74051  22.153  22.410   1.728
73187W        W74052  23.701  24.375   1.785
73188W        W74053  21.953  22.229   0.805
73189W        W74054  24.617  23.435   2.732
73190W        W74055  24.494  22.821   0.304
73191W        W74056  25.011  24.493   1.952
73192W        W74057  23.672  24.977   1.783
73193W        W74058  23.084  25.081   0.694
73194W        W74059  24.366  21.984   0.124
73195W        W74060  22.166  25.244   1.865
73196W        W74061  24.363  23.002   3.500
73197W        W74062  22.346  22.532   3.499
73198W        W74063  22.077  23.132   0.832
73199W        W74064  22.768  23.121   0.557
73200W        W74065  24.531  23.448   3.374
73201W        W74066  22.874  23.729   2.083
73202W        W74067  24.348  22.015   1.203
73203W        W74068  23.479  25.446   1.706
73204W        W74069  24.693  24.908   2.643
73205W        W74070  24.277  25.057   1.754
73206W        W74071  24.296  24.037   1.348
73207W        W74072  23.758  22.262   0.419
73208W        W74073  25.439  21.890   1.141
73209W        W74074  23.127  23.525   0.304
73210W        W74075  25.293  22.862   1.294
73211W        W74076  23.985  24.032   0.171
73212W        W74077  24.921  24.232   2.919
73213W        W74078  24.575  24.933   0.386
73214W        W74079  23.190  22.608   3.292
73215W        W74080  23.010  23.192   2.533
73216W        W74081  25.102  24.687   2.810
73217W        W74082  24.202  22.637   3.187
73218W        W74083  22.046  23.108   2.964
73219W        W74084  23.806  23.585   2.690
73220W        W74085  22.163  24.343   1.347
73221W        W74086  22.310  23.640   2.237
73222W        W74087  24.627  23.926   2.587
73223W        W74088  24.399  25.306   3.398
73224W        W74089  24.295  23.045   2.951
73225W        W74090  24.572  25.099   1.356
73226W        W74091  23.574  24.819   2.679
73227W        W74092  23.059  25.174   1.948
73228W        W74093  24.864  24.345   2.367
73229W        W74094  23.914  24.417   3.504
73230W        W74095  22.519  24.370   1.843
73231W        W74096  24.865  24.129   1.488
73232W        W74097  24.506  25.195   2.239
73233W        W74098  22.484  24.924   2.109
73234W        W74099  23.505  22.976   3.319
73235W        W74100  23.956  25.142   0.830
73236W        W74101  23.264  24.397   3.468
73237W        W74102  23.390  24.635   0.845
73238W        W74103  22.611  23.375   0.104
73239W        W74104  21.950  25.461   7.003
73240W        W74105  22.326  24.354   6.526
73241W        W74106  25.031  24.084   4.296
73242W        W74107  25.161  25.169   6.323
73243W        W74108  23.079  25.160   3.849
73244W        W74109  23.162  23.312   4.832
73245W        W74110  22.677  23.160   4.996
73246W        W74111  23.668  23.975   4.430
73247W        W74112  23.343  25.067   6.785
73248W        W74113  21.992  22.628   6.748
73249W        W74114  22.754  21.908   6.550
73250W        W74115  24.448  22.296   5.437
73251W        W74116  24.097  23.167   4.007
73252W        W74117  24.667  22.601   7.098
73253W        W74118  22.033  22.393   6.223
73254W        W74119  22.132  25.012   7.244
73255W        W74120  23.654  24.402   3.976
73256W        W74121  22.086  23.185   5.669
73257W        W74122  22.979  23.076   6.906
73258W        W74123  25.438  22.935   5.405
73259W        W74124  25.202  23.978   6.264
73260W        W74125  23.510  23.311   5.291
73261W        W74126  24.056  24.650   5.660
73262W        W74127  22.556  24.084   5.892
73263W        W74128  21.915  23.612   5.463
73264W        W74129  22.951  23.584   6.655
73265W        W74130  25.222  23.367   6.909
73266W        W74131  22.838  24.811   5.354
73267W        W74132  23.959  24.500   6.488
73268W        W74133  23.179  23.140   5.713
73269W        W74134  23.471  23.924   5.356
73270W        W74135  24.468  24.697   7.204
73271W        W74136  23.547  24.017   7.214
73272W        W74137  23.528  23.733   6.692
73273W        W74138  21.937  23.124   7.214
73274W        W74139  24.769  24.659   6.813
73275W        W74140  22.350  22.241   4.811
73276W        W74141  22.877  24.499   5.810
73277W        W74142  25.340  24.282   5.100
73278W        W74143  24.753  22.682   5.667
73279W        W74144  25.038  22.635   3.762
73280W        W74145  25.503  23.436   6.068
73281W        W74146  23.470  25.143   5.821
73282W        W74147  25.244  24.609   4.259
73283W        W74148  22.373  25.395   4.013
73284W        W74149  22.766  25.441   4.689
73285W        W74150  22.563  22.195   6.115
73286W        W74151  25.186  23.213   6.390
73287W        W74152  24.591  23.635   4.849
73288W        W74153  24.557  23.323   3.876
73289W        W74154  23.765  24.467   6.016
73290W        W74155  23.571  22.797   5.215
73291W        W74156  24.171  24.884   6.209
73292W        W74157  25.042  23.675   4.631
73293W        W74158  23.944  22.333   4.647
73294W        W74159  22.601  25.027   4.330
73295W        W74160  21.972  22.526   4.929
73296W        W74161  24.758  23.133   5.403
73297W        W74162  22.216  24.750   5.318
73298W        W74163  23.557  25.100   4.188
73299W        W74164  24.949  23.126   3.652
73300W        W74165  21.972  24.884   5.816
73301W        W74166  22.763  24.456   6.296
73302W        W74167  23.136  23.816   4.915
73303W        W74168  23.158  22.221   6.008
73304W        W74169  25.387  21.983   5.305
73305W        W74170  22.606  23.855   3.773
73306W        W74171  22.261  22.888   3.952
73307W        W74172  22.323  24.844   4.746
73308W        W74173  23.454  24.327   4.994
73309W        W74174  24.786  25.186   6.708
73310W        W74175  23.712  22.828   4.392
73311W        W74176  25.095  25.226   5.164
73312W        W74177  24.772  23.079   6.762
73313W        W74178  25.485  24.735   4.896
73314W        W74179  24.112  24.027   6.380
73315W        W74180  21.878  23.578   4.586
73316W        W74181  22.989  23.993   6.159
73317W        W74182  24.193  23.257   4.537
73318W        W74183  24.070  23.747   4.641
73319W        W74184  22.413  23.167   6.115
73320W        W74185  22.398  23.043   7.037
73321W        W74186  22.288  21.960   5.196
73322W        W74187  24.056  22.307   5.757
73323W        W74188  23.704  22.492   6.920
73324W        W74189  24.059  22.641   4.098
73325W        W74190  25.242  25.034   6.852
73326W        W74191  24.209  22.115   6.891
73327W        W74192  25.228  24.416   7.013
73328W        W74193  24.658  22.583   6.609
73329W        W74194  24.458  22.521   4.879
73330W        W74195  24.851  23.655   7.283
73331W        W74196  22.591  25.231   5.269
73332W        W74197  23.249  22.948   4.255
73333W        W74198  22.818  22.232   6.919
73334W        W74199  24.870  22.716   4.600
73335W        W74200  25.237  23.198   4.545
73336W        W74201  22.980  25.415   7.016
73337W        W74202  22.906  21.951   4.251
73338W        W74203  25.227  22.485   5.286
73339W        W74204  25.377  24.734   3.731
73340W        W74205  22.284  23.937   5.433
73341W        W74206  24.201  22.524   3.663
73342W        W74207  25.335  24.856   5.383
73343W        W74208  25.374  22.050   6.133
73344W        W74209  23.819  23.262   6.687
73345W        W74210  23.912  24.601   4.390
73346W        W74211  24.312  23.895   7.130
73347W        W74212  23.986  21.872   5.439
73348W        W74213  22.598  22.775   5.502
73349W        W74214  22.152  23.975   6.276
73350W        W74215  24.011  25.168   4.982
73351W        W74216  25.205  22.765   5.854
73352W        W74217  23.842  25.112   6.621
73353W        W74218  25.185  24.171   3.826
73354W        W74219  23.620  23.654   4.887
73355W        W74220  25.472  22.165   6.628
73356W        W74221  23.621  24.000   6.222
73357W        W74222  23.838  22.886   5.667
73358W        W74223  24.690  23.184   4.505
73359W        W74224  24.977  22.917   4.147
73360W        W74225  24.786  24.957   4.536
73361W        W74226  24.620  24.560   5.332
73362W        W74227  24.516  23.639   4.310
73363W        W74228  23.949  23.849   5.296
73364W        W74229  24.830  23.637   5.363
73365W        W74230  22.205  22.652   5.787
73366W        W74231  24.983  23.704   6.614
73367W        W74232  25.334  25.322   5.760
73368W        W74233  23.264  24.766   5.162
73369W        W74234  24.271  25.299   6.486
73370W        W74235  24.265  22.629   6.250
73371W        W74236  23.472  25.337   6.311
73372W        W74237  25.169  22.291   4.777
73373W        W74238  24.960  23.610   6.078
73374W        W74239  21.943  22.931   6.116
73375W        W74240  24.803  22.726   5.134
73376W        W74241  25.214  22.877   6.911
73377W        W74242  24.099  24.576   5.129
73378W        W74243  23.355  25.167   4.742
73379W        W74244  22.470  22.347   4.000
73380W        W74245  23.574  22.001   5.810
73381W        W74246  22.602  25.121   3.658
73382W        W74247  22.976  23.587   4.409
73383W        W74248  23.630  24.216   6.722
73384W        W74249  23.460  22.574   4.712
73385W        W74250  24.816  22.171   5.140
73386W        W74251  24.536  25.453   5.468
73387W        W74252  23.948  25.101   5.808
73388W        W74253  23.344  24.138   5.769
73389W        W74254  25.114  24.861   5.895
73390W        W74255  22.808  22.364   4.664
73391W        W74256  23.330  24.661   5.624
73392W        W74257  22.813  22.592   3.689
73393W        W74258  23.614  23.201   6.083
73394W        W74259  24.462  22.067   5.953
73395W        W74260  21.882  23.910   5.838
73396W        W74261  23.586  23.728   3.996
73397W        W74262  22.854  22.043   3.766
73398W        W74263  23.592  23.124   4.817
73399W        W74264  24.562  22.100   6.516
73400W        W74265  23.150  24.112   6.625
73401W        W74266  23.954  23.894   6.842
73402W        W74267  24.571  23.924   6.735
73403W        W74268  23.855  22.064   7.240
73404W        W74269  23.077  22.680   5.633
73405W        W74270  22.503  22.636   5.031
73406W        W74271  22.289  25.348   4.707
73407W        W74272  23.621  24.678   6.832
73408W        W74273  22.656  24.163   4.191
73409W        W74274  24.336  23.548   5.412
73410W        W74275  24.616  23.347   5.811
73411W        W74276  23.821  24.021   5.745
73412W        W74277  24.291  24.395   3.877
73413W        W74278  23.963  22.416   5.205
73414W        W74279  25.442  22.694   4.473
73415W        W74280  21.936  25.283   6.504
73416W        W74281  22.353  24.509   6.036
73417W        W74282  21.920  25.355   4.268
73418W        W74283  23.819  22.625   6.074
73419W        W74284  23.182  24.648   3.923
73420W        W74285  25.087  25.030   4.109
73421W        W74286  24.062  23.683   4.123
73422W        W74287  22.905  22.874   4.640
73423W        W74288  23.737  22.784   3.692
73424W        W74289  24.321  24.349   6.870
73425W        W74290  24.674  22.255   4.487
73426W        W74291  22.004  22.103   3.935
73427W        W74292  23.290  24.422   6.225
73428W        W74293  23.089  24.338   5.317
73429W        W74294  22.831  24.290   3.715
73430W        W74295  22.072  24.531   4.483
73431W        W74296  22.576  23.601   6.925
73432W        W74297  23.280  22.161   7.111
73433W        W74298  23.989  22.303   6.467
73434W        W74299  23.184  22.071   4.748
73435W        W74300  24.243  22.148   4.253
73436W        W74301  22.188  22.080   5.830
73437W        W74302  22.236  23.043   5.200
73438W        W74303  24.925  22.151   5.606
73439W        W74304  22.347  22.649   4.420
73440W        W74305  24.918  22.337   6.036
73441W        W74306  25.314  23.540   3.721
73442W        W74307  22.606  22.298   5.540
73443W        W74308  23.720  22.870   6.480
73444W        W74309  21.868  22.560   3.958
73445W        W74310  22.654  23.949   6.519
73446W        W74311  24.012  23.347   5.698
73447W        W74312  23.879  25.426   3.994
73448W        W74313  22.025  23.933   3.691
73449W        W74314  22.760  24.344   6.817
73450W        W74315  22.281  23.511   6.448
73451W        W74316  23.272  23.616   6.242
73452W        W74317  25.040  21.975   6.504
73453W        W74318  25.438  23.585   6.495
73454W        W74319  25.426  23.785   4.181
73455W        W74320  24.289  24.117   4.280
73456W        W74321  24.763  25.417   3.975
73457W        W74322  23.940  23.407   7.117
73458W        W74323  22.270  24.374   7.157
73459W        W74324  25.476  22.296   7.109
73460W        W74325  25.194  23.224   5.730
73461W        W74326  23.502  25.354   7.207
73462W        W74327  23.357  21.983   3.934
73463W        W74328  24.896  24.582   3.877
73464W        W74329  22.665  22.675   6.763
73465W        W74330  23.099  24.669   6.625
73466W        W74331  25.225  22.660   6.423
73467W        W74332  24.436  25.319   4.391
73468W        W74333  24.675  23.938   5.758
73469W        W74334  22.925  22.354   6.425
73470W        W74335  23.394  23.423   7.182
73471W        W74336  22.897  24.602   4.376
73472W        W74337  24.652  24.100   4.640
73473W        W74338  22.420  22.726   6.364
73474W        W74339  23.749  24.788   4.828
73475W        W74340  25.499  23.348   5.009
73476W        W74341  23.721  21.981   6.728
73477W        W74342  24.501  24.686   5.807
73478W        W74343  24.804  25.030   5.515
73479W        W74344  24.023  24.832   3.943
73480W        W74345  22.033  24.724   6.785
73481W        W74346  22.776  22.716   6.023
73482W        W74347  22.746  22.064   5.133
73483W        W74348  24.367  22.906   5.825
73484W        W74349  23.165  24.077   4.025
73485W        W74350  25.163  24.019   5.524
73486W        W74351  22.490  24.777   6.947
73487W        W74352  24.877  25.459   4.744
73488W        W74353  22.976  22.479   5.189
73489W        W74354  22.745  23.972   5.279
73490W        W74355  23.058  25.383   6.029
73491W        W74356  25.125  25.479   7.061
73492W        W74357  24.284  23.667   5.994
73493W        W74358  22.133  23.465   3.909
73494W        W74359  25.267  25.123   4.606
73495W        W74360  25.104  22.447   4.225
73496W        W74361  23.243  21.966   6.628
73497W        W74362  24.949  24.768   5.086
73498W        W74363  24.978  23.324   4.991
73499W        W74364  23.095  22.997   5.207
73500W        W74365  23.340  23.259   6.531
73501W        W74366  24.451  24.412   6.394
73502W        W74367  23.101  22.866   6.506
73503W        W74368  23.080  25.332   5.122
73504W        W74369  22.397  25.291   6.756
73505W        W74370  22.509  24.652   3.886
73506W        W74371  25.026  24.410   4.696
73507W        W74372  22.630  23.202   6.582
73508W        W74373  25.403  23.132   4.063
73509W        W74374  23.148  24.189   4.534
73510W        W74375  24.247  23.571   6.615
73511W        W74376  24.138  23.199   6.159
73512W        W74377  22.698  23.571   6.188
73513W        W74378  24.908  25.459   6.017
73514W        W74379  24.699  22.093   7.011
73515W        W74380  22.363  22.243   6.598
73516W        W74381  22.702  23.266   5.651
73517W        W74382  23.071  23.080   3.773
73518W        W74383  21.874  24.839   6.318
73519W        W74384  23.459  23.548   5.761
73520W        W74385  23.282  22.573   3.866
73521W        W74386  22.417  23.389   4.647
73522W        W74387  22.188  25.241   6.084
73523W        W74388  24.983  23.467   4.192
73524W        W74389  25.078  22.383   6.878
73525W        W74390  24.514  24.592   4.841
73526W        W74391  22.112  23.516   7.018
73527W        W74392  25.078  21.980   4.314
73528W        W74393  24.598  24.455   4.325
73529W        W74394  23.500  23.513   4.410
73530W        W74395  24.687  22.317   3.933
73531W        W74396  24.752  22.924   6.119
73532W        W74397  22.461  23.517   5.326
73533W        W74398  22.755  24.456   4.975
73534W        W74399  24.518  23.076   4.940
73535W        W74400  23.541  22.455   5.636
73536W        W74401  25.503  24.366   6.147
73537W        W74402  25.421  22.353   5.708
73538W        W74403  21.960  25.183   5.084
73539W        W74404  22.469  24.370   4.620
73540W        W74405  22.384  21.987   7.173
73541W        W74406  23.503  24.840   7.275
73542W        W74407  25.258  23.808   5.065
73543W        W74408  24.612  23.985   3.945
73544W        W74409  23.907  25.506   6.157
73545W        W74410  24.764  24.228   7.194
73546W        W74411  23.579  21.938   4.474
73547W        W74412  21.978  24.394   5.665
73548W        W74413  23.231  22.356   4.306
73549W        W74414  23.035  23.840   7.155
73550W        W74415  24.029  22.821   4.869
73551W        W74416  24.234  24.231   5.991
73552W        W74417  22.388  24.836   6.426
73553W        W74418  22.979  24.819   7.149
73554W        W74419  22.830  22.616   4.163
73555W        W74420  24.347  22.758   4.488
73556W        W74421  24.305  24.866   6.725
73557W        W74422  22.990  23.458   5.324
73558W        W74423  22.645  25.156   6.189
73559W        W74424  25.390  25.273   3.790
73560W        W74425  22.253  23.945   6.786
73561W        W74426  24.248  24.207   5.474
73562W        W74427  22.684  23.856   4.716
73563W        W74428  23.055  24.863   6.111
73564W        W74429  23.433  22.282   5.152
73565W        W74430  22.044  24.266   4.082
73566W        W74431  23.563  23.217   3.952
73567W        W74432  22.209  23.766   4.971
73568W        W74433  23.499  22.408   6.435
73569W        W74434  25.171  22.117   3.862
73570W        W74435  25.264  23.863   6.961
73571W        W74436  23.918  25.120   7.113
73572W        W74437  25.476  24.214   6.635
73573W        W74438  24.884  25.012   7.246
73574W        W74439  22.623  25.468   5.724
73575W        W74440  25.482  24.090   4.598
73576W        W74441  24.012  23.357   5.111
73577W        W74442  23.779  21.969   5.001
73578W        W74443  22.838  24.953   4.838
73579W        W74444  23.337  22.694   6.063
73580W        W74445  23.037  22.063   5.532
73581W        W74446  22.100  24.885   4.080
73582W        W74447  23.916  24.249   4.798
73583W        W74448  22.791  25.044   6.677
73584W        W74449  22.268  23.867   4.373
73585W        W74450  22.153  22.410   5.372
73586W        W74451  23.701  24.375   5.429
73587W        W74452  21.953  22.229   4.449
73588W        W74453  24.617  23.435   6.376
73589W        W74454  24.494  22.821   3.948
73590W        W74455  25.011  24.493   5.596
73591W        W74456  23.672  24.977   5.427
73592W        W74457  23.084  25.081   4.338
73593W        W74458  24.366  21.984   3.768
73594W        W74459  22.166  25.244   5.509
73595W        W74460  24.363  23.002   7.144
73596W        W74461  22.346  22.532   7.143
73597W        W74462  22.077  23.132   4.476
73598W        W74463  22.768  23.121   4.201
73599W        W74464  24.531  23.448   7.018
73600W        W74465  22.874  23.729   5.727
73601W        W74466  24.348  22.015   4.847
73602W        W74467  23.479  25.446   5.350
73603W        W74468  24.693  24.908   6.287
73604W        W74469  24.277  25.057   5.398
73605W        W74470  24.296  24.037   4.992
73606W        W74471  23.758  22.262   4.063
73607W        W74472  25.439  21.890   4.785
73608W        W74473  23.127  23.525   3.948
73609W        W74474  25.293  22.862   4.938
73610W        W74475  23.985  24.032   3.815
73611W        W74476  24.921  24.232   6.563
73612W        W74477  24.575  24.933   4.030
73613W        W74478  23.190  22.608   6.936
73614W        W74479  23.010  23.192   6.177
73615W        W74480  25.102  24.687   6.454
73616W        W74481  24.202  22.637   6.831
73617W        W74482  22.046  23.108   6.608
73618W        W74483  23.806  23.585   6.334
73619W        W74484  22.163  24.343   4.991
73620W        W74485  22.310  23.640   5.881
73621W        W74486  24.627  23.926   6.231
73622W        W74487  24.399  25.306   7.042
73623W        W74488  24.295  23.045   6.595
73624W        W74489  24.572  25.099   5.000
73625W        W74490  23.574  24.819   6.323
73626W        W74491  23.059  25.174   5.592
73627W        W74492  24.864  24.345   6.011
73628W        W74493  23.914  24.417   7.148
73629W        W74494  22.519  24.370   5.487
73630W        W74495  24.865  24.129   5.132
73631W        W74496  24.506  25.195   5.883
73632W        W74497  22.484  24.924   5.753
73633W        W74498  23.505  22.976   6.963
73634W        W74499  23.956  25.142   4.474
73635W        W74500  23.264  24.397   7.112
73636W        W74501  23.390  24.635   4.489
73637W        W74502  22.611  23.375   3.748
73638W        W74503  21.950  25.461  10.648
73639W        W74504  22.326  24.354  10.171
73640W        W74505  25.031  24.084   7.941
73641W        W74506  25.161  25.169   9.968
73642W        W74507  23.079  25.160   7.494
73643W        W74508  23.162  23.312   8.477
73644W        W74509  22.677  23.160   8.641
73645W        W74510  23.668  23.975   8.075
73646W        W74511  23.343  25.067  10.430
73647W        W74512  21.992  22.628  10.393
73648W        W74513  22.754  21.908  10.195
73649W        W74514  24.448  22.296   9.082
73650W        W74515  24.097  23.167   7.652
73651W        W74516  24.667  22.601  10.743
73652W        W74517  22.033  22.393   9.868
73653W        W74518  22.132  25.012  10.889
73654W        W74519  23.654  24.402   7.621
73655W        W74520  22.086  23.185   9.314
73656W        W74521  22.979  23.076  10.551
73657W        W74522  25.438  22.935   9.050
73658W        W74523  25.202  23.978   9.909
73659W        W74524  23.510  23.311   8.936
73660W        W74525  24.056  24.650   9.305
73661W        W74526  22.556  24.084   9.537
73662W        W74527  21.915  23.612   9.108
73663W        W74528  22.951  23.584  10.300
73664W        W74529  25.222  23.367  10.554
73665W        W74530  22.838  24.811   8.999
73666W        W74531  23.959  24.500  10.133
73667W        W74532  23.179  23.140   9.358
73668W        W74533  23.471  23.924   9.001
73669W        W74534  24.468  24.697  10.849
73670W        W74535  23.547  24.017  10.859
73671W        W74536  23.528  23.733  10.337
73672W        W74537  21.937  23.124  10.859
73673W        W74538  24.769  24.659  10.458
73674W        W74539  22.350  22.241   8.456
73675W        W74540  22.877  24.499   9.455
73676W        W74541  25.340  24.282   8.745
73677W        W74542  24.753  22.682   9.312
73678W        W74543  25.038  22.635   7.407
73679W        W74544  25.503  23.436   9.713
73680W        W74545  23.470  25.143   9.466
73681W        W74546  25.244  24.609   7.904
73682W        W74547  22.373  25.395   7.658
73683W        W74548  22.766  25.441   8.334
73684W        W74549  22.563  22.195   9.760
73685W        W74550  25.186  23.213  10.035
73686W        W74551  24.591  23.635   8.494
73687W        W74552  24.557  23.323   7.521
73688W        W74553  23.765  24.467   9.661
73689W        W74554  23.571  22.797   8.860
73690W        W74555  24.171  24.884   9.854
73691W        W74556  25.042  23.675   8.276
73692W        W74557  23.944  22.333   8.292
73693W        W74558  22.601  25.027   7.975
73694W        W74559  21.972  22.526   8.574
73695W        W74560  24.758  23.133   9.048
73696W        W74561  22.216  24.750   8.963
73697W        W74562  23.557  25.100   7.833
73698W        W74563  24.949  23.126   7.297
73699W        W74564  21.972  24.884   9.461
73700W        W74565  22.763  24.456   9.941
73701W        W74566  23.136  23.816   8.560
73702W        W74567  23.158  22.221   9.653
73703W        W74568  25.387  21.983   8.950
73704W        W74569  22.606  23.855   7.418
73705W        W74570  22.261  22.888   7.597
73706W        W74571  22.323  24.844   8.391
73707W        W74572  23.454  24.327   8.639
73708W        W74573  24.786  25.186  10.353
73709W        W74574  23.712  22.828   8.037
73710W        W74575  25.095  25.226   8.809
73711W        W74576  24.772  23.079  10.407
73712W        W74577  25.485  24.735   8.541
73713W        W74578  24.112  24.027  10.025
73714W        W74579  21.878  23.578   8.231
73715W        W74580  22.989  23.993   9.804
73716W        W74581  24.193  23.257   8.182
73717W        W74582  24.070  23.747   8.286
73718W        W74583  22.413  23.167   9.760
73719W        W74584  22.398  23.043  10.682
73720W        W74585  22.288  21.960   8.841
73721W        W74586  24.056  22.307   9.402
73722W        W74587  23.704  22.492  10.565
73723W        W74588  24.059  22.641   7.743
73724W        W74589  25.242  25.034  10.497
73725W        W74590  24.209  22.115  10.536
73726W        W74591  25.228  24.416  10.658
73727W        W74592  24.658  22.583  10.254
73728W        W74593  24.458  22.521   8.524
73729W        W74594  24.851  23.655  10.928
73730W        W74595  22.591  25.231   8.914
73731W        W74596  23.249  22.948   7.900
73732W        W74597  22.818  22.232  10.564
73733W        W74598  24.870  22.716   8.245
73734W        W74599  25.237  23.198   8.190
73735W        W74600  22.980  25.415  10.661
73736W        W74601  22.906  21.951   7.896
73737W        W74602  25.227  22.485   8.931
73738W        W74603  25.377  24.734   7.376
73739W        W74604  22.284  23.937   9.078
73740W        W74605  24.201  22.524   7.308
73741W        W74606  25.335  24.856   9.028
73742W        W74607  25.374  22.050   9.778
73743W        W74608  23.819  23.262  10.332
73744W        W74609  23.912  24.601   8.035
73745W        W74610  24.312  23.895  10.775
73746W        W74611  23.986  21.872   9.084
73747W        W74612  22.598  22.775   9.147
73748W        W74613  22.152  23.975   9.921
73749W        W74614  24.011  25.168   8.627
73750W        W74615  25.205  22.765   9.499
73751W        W74616  23.842  25.112  10.266
73752W        W74617  25.185  24.171   7.471
73753W        W74618  23.620  23.654   8.532
73754W        W74619  25.472  22.165  10.273
73755W        W74620  23.621  24.000   9.867
73756W        W74621  23.838  22.886   9.312
73757W        W74622  24.690  23.184   8.150
73758W        W74623  24.977  22.917   7.792
73759W        W74624  24.786  24.957   8.181
73760W        W74625  24.620  24.560   8.977
73761W        W74626  24.516  23.639   7.955
73762W        W74627  23.949  23.849   8.941
73763W        W74628  24.830  23.637   9.008
73764W        W74629  22.205  22.652   9.432
73765W        W74630  24.983  23.704  10.259
73766W        W74631  25.334  25.322   9.405
73767W        W74632  23.264  24.766   8.807
73768W        W74633  24.271  25.299  10.131
73769W        W74634  24.265  22.629   9.895
73770W        W74635  23.472  25.337   9.956
73771W        W74636  25.169  22.291   8.422
73772W        W74637  24.960  23.610   9.723
73773W        W74638  21.943  22.931   9.761
73774W        W74639  24.803  22.726   8.779
73775W        W74640  25.214  22.877  10.556
73776W        W74641  24.099  24.576   8.774
73777W        W74642  23.355  25.167   8.387
73778W        W74643  22.470  22.347   7.645
73779W        W74644  23.574  22.001   9.455
73780W        W74645  22.602  25.121   7.303
73781W        W74646  22.976  23.587   8.054
73782W        W74647  23.630  24.216  10.367
73783W        W74648  23.460  22.574   8.357
73784W        W74649  24.816  22.171   8.785
73785W        W74650  24.536  25.453   9.113
73786W        W74651  23.948  25.101   9.453
73787W        W74652  23.344  24.138   9.414
73788W        W74653  25.114  24.861   9.540
73789W        W74654  22.808  22.364   8.309
73790W        W74655  23.330  24.661   9.269
73791W        W74656  22.813  22.592   7.334
73792W        W74657  23.614  23.201   9.728
73793W        W74658  24.462  22.067   9.598
73794W        W74659  21.882  23.910   9.483
73795W        W74660  23.586  23.728   7.641
73796W        W74661  22.854  22.043   7.411
73797W        W74662  23.592  23.124   8.462
73798W        W74663  24.562  22.100  10.161
73799W        W74664  23.150  24.112  10.270
73800W        W74665  23.954  23.894  10.487
73801W        W74666  24.571  23.924  10.380
73802W        W74667  23.855  22.064  10.885
73803W        W74668  23.077  22.680   9.278
73804W        W74669  22.503  22.636   8.676
73805W        W74670  22.289  25.348   8.352
73806W        W74671  23.621  24.678  10.477
73807W        W74672  22.656  24.163   7.836
73808W        W74673  24.336  23.548   9.057
73809W        W74674  24.616  23.347   9.456
73810W        W74675  23.821  24.021   9.390
73811W        W74676  24.291  24.395   7.522
73812W        W74677  23.963  22.416   8.850
73813W        W74678  25.442  22.694   8.118
73814W        W74679  21.936  25.283  10.149
73815W        W74680  22.353  24.509   9.681
73816W        W74681  21.920  25.355   7.913
73817W        W74682  23.819  22.625   9.719
73818W        W74683  23.182  24.648   7.568
73819W        W74684  25.087  25.030   7.754
73820W        W74685  24.062  23.683   7.768
73821W        W74686  22.905  22.874   8.285
73822W        W74687  23.737  22.784   7.337
73823W        W74688  24.321  24.349  10.515
73824W        W74689  24.674  22.255   8.132
73825W        W74690  22.004  22.103   7.580
73826W        W74691  23.290  24.422   9.870
73827W        W74692  23.089  24.338   8.962
73828W        W74693  22.831  24.290   7.360
73829W        W74694  22.072  24.531   8.128
73830W        W74695  22.576  23.601  10.570
73831W        W74696  23.280  22.161  10.756
73832W        W74697  23.989  22.303  10.112
73833W        W74698  23.184  22.071   8.393
73834W        W74699  24.243  22.148   7.898
73835W        W74700  22.188  22.080   9.475
73836W        W74701  22.236  23.043   8.845
73837W        W74702  24.925  22.151   9.251
73838W        W74703  22.347  22.649   8.065
73839W        W74704  24.918  22.337   9.681
73840W        W74705  25.314  23.540   7.366
73841W        W74706  22.606  22.298   9.185
73842W        W74707  23.720  22.870  10.125
73843W        W74708  21.868  22.560   7.603
73844W        W74709  22.654  23.949  10.164
73845W        W74710  24.012  23.347   9.343
73846W        W74711  23.879  25.426   7.639
73847W        W74712  22.025  23.933   7.336
73848W        W74713  22.760  24.344  10.462
73849W        W74714  22.281  23.511  10.093
73850W        W74715  23.272  23.616   9.887
73851W        W74716  25.040  21.975  10.149
73852W        W74717  25.438  23.585  10.140
73853W        W74718  25.426  23.785   7.826
73854W        W74719  24.289  24.117   7.925
73855W        W74720  24.763  25.417   7.620
73856W        W74721  23.940  23.407  10.762
73857W        W74722  22.270  24.374  10.802
73858W        W74723  25.476  22.296  10.754
73859W        W74724  25.194  23.224   9.375
73860W        W74725  23.502  25.354  10.852
73861W        W74726  23.357  21.983   7.579
73862W        W74727  24.896  24.582   7.522
73863W        W74728  22.665  22.675  10.408
73864W        W74729  23.099  24.669  10.270
73865W        W74730  25.225  22.660  10.068
73866W        W74731  24.436  25.319   8.036
73867W        W74732  24.675  23.938   9.403
73868W        W74733  22.925  22.354  10.070
73869W        W74734  23.394  23.423  10.827
73870W        W74735  22.897  24.602   8.021
73871W        W74736  24.652  24.100   8.285
73872W        W74737  22.420  22.726  10.009
73873W        W74738  23.749  24.788   8.473
73874W        W74739  25.499  23.348   8.654
73875W        W74740  23.721  21.981  10.373
73876W        W74741  24.501  24.686   9.452
73877W        W74742  24.804  25.030   9.160
73878W        W74743  24.023  24.832   7.588
73879W        W74744  22.033  24.724  10.430
73880W        W74745  22.776  22.716   9.668
73881W        W74746  22.746  22.064   8.778
73882W        W74747  24.367  22.906   9.470
73883W        W74748  23.165  24.077   7.670
73884W        W74749  25.163  24.019   9.169
73885W        W74750  22.490  24.777  10.592
73886W        W74751  24.877  25.459   8.389
73887W        W74752  22.976  22.479   8.834
73888W        W74753  22.745  23.972   8.924
73889W        W74754  23.058  25.383   9.674
73890W        W74755  25.125  25.479  10.706
73891W        W74756  24.284  23.667   9.639
73892W        W74757  22.133  23.465   7.554
73893W        W74758  25.267  25.123   8.251
73894W        W74759  25.104  22.447   7.870
73895W        W74760  23.243  21.966  10.273
73896W        W74761  24.949  24.768   8.731
73897W        W74762  24.978  23.324   8.636
73898W        W74763  23.095  22.997   8.852
73899W        W74764  23.340  23.259  10.176
73900W        W74765  24.451  24.412  10.039
73901W        W74766  23.101  22.866  10.151
73902W        W74767  23.080  25.332   8.767
73903W        W74768  22.397  25.291  10.401
73904W        W74769  22.509  24.652   7.531
73905W        W74770  25.026  24.410   8.341
73906W        W74771  22.630  23.202  10.227
73907W        W74772  25.403  23.132   7.708
73908W        W74773  23.148  24.189   8.179
73909W        W74774  24.247  23.571  10.260
73910W        W74775  24.138  23.199   9.804
73911W        W74776  22.698  23.571   9.833
73912W        W74777  24.908  25.459   9.662
73913W        W74778  24.699  22.093  10.656
73914W        W74779  22.363  22.243  10.243
73915W        W74780  22.702  23.266   9.296
73916W        W74781  23.071  23.080   7.418
73917W        W74782  21.874  24.839   9.963
73918W        W74783  23.459  23.548   9.406
73919W        W74784  23.282  22.573   7.511
73920W        W74785  22.417  23.389   8.292
73921W        W74786  22.188  25.241   9.729
73922W        W74787  24.983  23.467   7.837
73923W        W74788  25.078  22.383  10.523
73924W        W74789  24.514  24.592   8.486
73925W        W74790  22.112  23.516  10.663
73926W        W74791  25.078  21.980   7.959
73927W        W74792  24.598  24.455   7.970
73928W        W74793  23.500  23.513   8.055
73929W        W74794  24.687  22.317   7.578
73930W        W74795  24.752  22.924   9.764
73931W        W74796  22.461  23.517   8.971
73932W        W74797  22.755  24.456   8.620
73933W        W74798  24.518  23.076   8.585
73934W        W74799  23.541  22.455   9.281
73935W        W74800  25.503  24.366   9.792
73936W        W74801  25.421  22.353   9.353
73937W        W74802  21.960  25.183   8.729
73938W        W74803  22.469  24.370   8.265
73939W        W74804  22.384  21.987  10.818
73940W        W74805  23.503  24.840  10.920
73941W        W74806  25.258  23.808   8.710
73942W        W74807  24.612  23.985   7.590
73943W        W74808  23.907  25.506   9.802
73944W        W74809  24.764  24.228  10.839
73945W        W74810  23.579  21.938   8.119
73946W        W74811  24.292  22.807   8.978
73947W        W74812  21.978  24.394   9.310
73948W        W74813  23.231  22.356   7.951
73949W        W74814  23.035  23.840  10.800
73950W        W74815  24.029  22.821   8.514
73951W        W74816  24.234  24.231   9.636
73952W        W74817  22.388  24.836  10.071
73953W        W74818  22.979  24.819  10.794
73954W        W74819  22.830  22.616   7.808
73955W        W74820  24.347  22.758   8.133
73956W        W74821  24.305  24.866  10.370
73957W        W74822  22.990  23.458   8.969
73958W        W74823  22.645  25.156   9.834
73959W        W74824  25.390  25.273   7.435
73960W        W74825  22.253  23.945  10.431
73961W        W74826  24.248  24.207   9.119
73962W        W74827  22.684  23.856   8.361
73963W        W74828  23.055  24.863   9.756
73964W        W74829  23.433  22.282   8.797
73965W        W74830  22.044  24.266   7.727
73966W        W74831  23.563  23.217   7.597
73967W        W74832  22.209  23.766   8.616
73968W        W74833  23.499  22.408  10.080
73969W        W74834  25.171  22.117   7.507
73970W        W74835  25.264  23.863  10.606
73971W        W74836  23.918  25.120  10.758
73972W        W74837  25.476  24.214  10.280
73973W        W74838  24.884  25.012  10.891
73974W        W74839  22.623  25.468   9.369
73975W        W74840  25.482  24.090   8.243
73976W        W74841  24.012  23.357   8.756
73977W        W74842  23.779  21.969   8.646
73978W        W74843  22.838  24.953   8.483
73979W        W74844  23.337  22.694   9.708
73980W        W74845  23.037  22.063   9.177
73981W        W74846  22.100  24.885   7.725
73982W        W74847  23.916  24.249   8.443
73983W        W74848  22.791  25.044  10.322
73984W        W74849  22.268  23.867   8.018
73985W        W74850  22.153  22.410   9.017
73986W        W74851  23.701  24.375   9.074
73987W        W74852  21.953  22.229   8.094
73988W        W74853  24.617  23.435  10.021
73989W        W74854  24.494  22.821   7.593
73990W        W74855  25.011  24.493   9.241
73991W        W74856  23.672  24.977   9.072
73992W        W74857  23.084  25.081   7.983
73993W        W74858  24.366  21.984   7.413
73994W        W74859  22.166  25.244   9.154
73995W        W74860  24.363  23.002  10.789
73996W        W74861  22.346  22.532  10.788
73997W        W74862  22.077  23.132   8.121
73998W        W74863  22.768  23.121   7.846
73999W        W74864  24.531  23.448  10.663
74000W        W74865  22.874  23.729   9.372
74001W        W74866  24.348  22.015   8.492
74002W        W74867  23.479  25.446   8.995
74003W        W74868  24.693  24.908   9.932
74004W        W74869  24.277  25.057   9.043
74005W        W74870  24.296  24.037   8.637
74006W        W74871  23.758  22.262   7.708
74007W        W74872  25.439  21.890   8.430
74008W        W74873  23.127  23.525   7.593
74009W        W74874  25.293  22.862   8.583
74010W        W74875  23.985  24.032   7.460
74011W        W74876  24.921  24.232  10.208
74012W        W74877  24.575  24.933   7.675
74013W        W74878  23.190  22.608  10.581
74014W        W74879  23.010  23.192   9.822
74015W        W74880  25.102  24.687  10.099
74016W        W74881  24.202  22.637  10.476
74017W        W74882  22.046  23.108  10.253
74018W        W74883  23.806  23.585   9.979
74019W        W74884  22.163  24.343   8.636
74020W        W74885  22.310  23.640   9.526
74021W        W74886  24.627  23.926   9.876
74022W        W74887  24.399  25.306  10.687
74023W        W74888  24.295  23.045  10.240
74024W        W74889  24.572  25.099   8.645
74025W        W74890  23.574  24.819   9.968
74026W        W74891  23.059  25.174   9.237
74027W        W74892  24.864  24.345   9.656
74028W        W74893  23.914  24.417  10.793
74029W        W74894  22.519  24.370   9.132
74030W        W74895  24.865  24.129   8.777
74031W        W74896  24.506  25.195   9.528
74032W        W74897  22.484  24.924   9.398
74033W        W74898  23.505  22.976  10.608
74034W        W74899  23.956  25.142   8.119
74035W        W74900  23.264  24.397  10.757
74036W        W74901  23.390  24.635   8.134
74037W        W74902  22.611  23.375   7.393
74038W        W74903  21.950  25.461  14.292
74039W        W74904  22.326  24.354  13.815
74040W        W74905  25.031  24.084  11.585
74041W        W74906  25.161  25.169  13.612
74042W        W74907  23.079  25.160  11.138
74043W        W74908  23.162  23.312  12.121
74044W        W74909  22.677  23.160  12.285
74045W        W74910  23.668  23.975  11.719
74046W        W74911  23.343  25.067  14.074
74047W        W74912  21.992  22.628  14.037
74048W        W74913  22.754  21.908  13.839
74049W        W74914  24.448  22.296  12.726
74050W        W74915  24.097  23.167  11.296
74051W        W74916  24.667  22.601  14.387
74052W        W74917  22.033  22.393  13.512
74053W        W74918  22.132  25.012  14.533
74054W        W74919  23.654  24.402  11.265
74055W        W74920  22.086  23.185  12.958
74056W        W74921  22.979  23.076  14.195
74057W        W74922  25.438  22.935  12.694
74058W        W74923  25.202  23.978  13.553
74059W        W74924  23.510  23.311  12.580
74060W        W74925  24.056  24.650  12.949
74061W        W74926  22.556  24.084  13.181
74062W        W74927  21.915  23.612  12.752
74063W        W74928  22.951  23.584  13.944
74064W        W74929  25.222  23.367  14.198
74065W        W74930  22.838  24.811  12.643
74066W        W74931  23.959  24.500  13.777
74067W        W74932  23.179  23.140  13.002
74068W        W74933  23.471  23.924  12.645
74069W        W74934  24.468  24.697  14.493
74070W        W74935  23.547  24.017  14.503
74071W        W74936  23.528  23.733  13.981
74072W        W74937  21.937  23.124  14.503
74073W        W74938  24.769  24.659  14.102
74074W        W74939  22.350  22.241  12.100
74075W        W74940  22.877  24.499  13.099
74076W        W74941  25.340  24.282  12.389
74077W        W74942  24.753  22.682  12.956
74078W        W74943  25.038  22.635  11.051
74079W        W74944  25.503  23.436  13.357
74080W        W74945  23.470  25.143  13.110
74081W        W74946  25.244  24.609  11.548
74082W        W74947  22.373  25.395  11.302
74083W        W74948  22.766  25.441  11.978
74084W        W74949  22.563  22.195  13.404
74085W        W74950  25.186  23.213  13.679
74086W        W74951  24.591  23.635  12.138
74087W        W74952  24.557  23.323  11.165
74088W        W74953  23.765  24.467  13.305
74089W        W74954  23.571  22.797  12.504
74090W        W74955  24.171  24.884  13.498
74091W        W74956  25.042  23.675  11.920
74092W        W74957  23.944  22.333  11.936
74093W        W74958  22.601  25.027  11.619
74094W        W74959  21.972  22.526  12.218
74095W        W74960  24.758  23.133  12.692
74096W        W74961  22.216  24.750  12.607
74097W        W74962  23.557  25.100  11.477
74098W        W74963  24.949  23.126  10.941
74099W        W74964  21.972  24.884  13.105
74100W        W74965  22.763  24.456  13.585
74101W        W74966  23.136  23.816  12.204
74102W        W74967  23.158  22.221  13.297
74103W        W74968  25.387  21.983  12.594
74104W        W74969  22.606  23.855  11.062
74105W        W74970  22.261  22.888  11.241
74106W        W74971  22.323  24.844  12.035
74107W        W74972  23.454  24.327  12.283
74108W        W74973  24.786  25.186  13.997
74109W        W74974  23.712  22.828  11.681
74110W        W74975  25.095  25.226  12.453
74111W        W74976  24.772  23.079  14.051
74112W        W74977  25.485  24.735  12.185
74113W        W74978  24.112  24.027  13.669
74114W        W74979  21.878  23.578  11.875
74115W        W74980  22.989  23.993  13.448
74116W        W74981  24.193  23.257  11.826
74117W        W74982  24.070  23.747  11.930
74118W        W74983  22.413  23.167  13.404
74119W        W74984  22.398  23.043  14.326
74120W        W74985  22.288  21.960  12.485
74121W        W74986  24.056  22.307  13.046
74122W        W74987  23.704  22.492  14.209
74123W        W74988  24.059  22.641  11.387
74124W        W74989  25.242  25.034  14.141
74125W        W74990  24.209  22.115  14.180
74126W        W74991  25.228  24.416  14.302
74127W        W74992  24.658  22.583  13.898
74128W        W74993  24.458  22.521  12.168
74129W        W74994  24.851  23.655  14.572
74130W        W74995  22.591  25.231  12.558
74131W        W74996  23.249  22.948  11.544
74132W        W74997  22.818  22.232  14.208
74133W        W74998  24.870  22.716  11.889
74134W        W74999  25.237  23.198  11.834
74135W        W75000  22.980  25.415  14.305
74136W        W75001  22.906  21.951  11.540
74137W        W75002  25.227  22.485  12.575
74138W        W75003  25.377  24.734  11.020
74139W        W75004  22.284  23.937  12.722
74140W        W75005  24.201  22.524  10.952
74141W        W75006  25.335  24.856  12.672
74142W        W75007  25.374  22.050  13.422
74143W        W75008  23.819  23.262  13.976
74144W        W75009  23.912  24.601  11.679
74145W        W75010  24.312  23.895  14.419
74146W        W75011  23.986  21.872  12.728
74147W        W75012  22.598  22.775  12.791
74148W        W75013  22.152  23.975  13.565
74149W        W75014  24.011  25.168  12.271
74150W        W75015  25.205  22.765  13.143
74151W        W75016  23.842  25.112  13.910
74152W        W75017  25.185  24.171  11.115
74153W        W75018  23.620  23.654  12.176
74154W        W75019  25.472  22.165  13.917
74155W        W75020  23.621  24.000  13.511
74156W        W75021  23.838  22.886  12.956
74157W        W75022  24.690  23.184  11.794
74158W        W75023  24.977  22.917  11.436
74159W        W75024  24.786  24.957  11.825
74160W        W75025  24.620  24.560  12.621
74161W        W75026  24.516  23.639  11.599
74162W        W75027  23.949  23.849  12.585
74163W        W75028  24.830  23.637  12.652
74164W        W75029  22.205  22.652  13.076
74165W        W75030  24.983  23.704  13.903
74166W        W75031  25.334  25.322  13.049
74167W        W75032  23.264  24.766  12.451
74168W        W75033  24.271  25.299  13.775
74169W        W75034  24.265  22.629  13.539
74170W        W75035  23.472  25.337  13.600
74171W        W75036  25.169  22.291  12.066
74172W        W75037  24.960  23.610  13.367
74173W        W75038  21.943  22.931  13.405
74174W        W75039  24.803  22.726  12.423
74175W        W75040  25.214  22.877  14.200
74176W        W75041  24.099  24.576  12.418
74177W        W75042  23.355  25.167  12.031
74178W        W75043  22.470  22.347  11.289
74179W        W75044  23.574  22.001  13.099
74180W        W75045  22.602  25.121  10.947
74181W        W75046  22.976  23.587  11.698
74182W        W75047  23.630  24.216  14.011
74183W        W75048  23.460  22.574  12.001
74184W        W75049  24.816  22.171  12.429
74185W        W75050  24.536  25.453  12.757
74186W        W75051  23.948  25.101  13.097
74187W        W75052  23.344  24.138  13.058
74188W        W75053  25.114  24.861  13.184
74189W        W75054  22.808  22.364  11.953
74190W        W75055  23.330  24.661  12.913
74191W        W75056  22.813  22.592  10.978
74192W        W75057  23.614  23.201  13.372
74193W        W75058  24.462  22.067  13.242
74194W        W75059  21.882  23.910  13.127
74195W        W75060  23.586  23.728  11.285
74196W        W75061  22.854  22.043  11.055
74197W        W75062  23.592  23.124  12.106
74198W        W75063  24.562  22.100  13.805
74199W        W75064  23.150  24.112  13.914
74200W        W75065  23.954  23.894  14.131
74201W        W75066  24.571  23.924  14.024
74202W        W75067  23.855  22.064  14.529
74203W        W75068  23.077  22.680  12.922
74204W        W75069  22.503  22.636  12.320
74205W        W75070  22.289  25.348  11.996
74206W        W75071  23.621  24.678  14.121
74207W        W75072  22.656  24.163  11.480
74208W        W75073  24.336  23.548  12.701
74209W        W75074  24.616  23.347  13.100
74210W        W75075  23.821  24.021  13.034
74211W        W75076  24.291  24.395  11.166
74212W        W75077  23.963  22.416  12.494
74213W        W75078  25.442  22.694  11.762
74214W        W75079  21.936  25.283  13.793
74215W        W75080  22.353  24.509  13.325
74216W        W75081  21.920  25.355  11.557
74217W        W75082  23.819  22.625  13.363
74218W        W75083  23.182  24.648  11.212
74219W        W75084  25.087  25.030  11.398
74220W        W75085  24.062  23.683  11.412
74221W        W75086  22.905  22.874  11.929
74222W        W75087  23.737  22.784  10.981
74223W        W75088  24.321  24.349  14.159
74224W        W75089  24.674  22.255  11.776
74225W        W75090  22.004  22.103  11.224
74226W        W75091  23.290  24.422  13.514
74227W        W75092  23.089  24.338  12.606
74228W        W75093  22.831  24.290  11.004
74229W        W75094  22.072  24.531  11.772
74230W        W75095  22.576  23.601  14.214
74231W        W75096  23.280  22.161  14.400
74232W        W75097  23.989  22.303  13.756
74233W        W75098  23.184  22.071  12.037
74234W        W75099  24.243  22.148  11.542
74235W        W75100  22.188  22.080  13.119
74236W        W75101  22.236  23.043  12.489
74237W        W75102  24.925  22.151  12.895
74238W        W75103  22.347  22.649  11.709
74239W        W75104  24.918  22.337  13.325
74240W        W75105  25.314  23.540  11.010
74241W        W75106  22.606  22.298  12.829
74242W        W75107  23.720  22.870  13.769
74243W        W75108  21.868  22.560  11.247
74244W        W75109  22.654  23.949  13.808
74245W        W75110  24.012  23.347  12.987
74246W        W75111  23.879  25.426  11.283
74247W        W75112  22.025  23.933  10.980
74248W        W75113  22.760  24.344  14.106
74249W        W75114  22.281  23.511  13.737
74250W        W75115  23.272  23.616  13.531
74251W        W75116  25.040  21.975  13.793
74252W        W75117  25.438  23.585  13.784
74253W        W75118  25.426  23.785  11.470
74254W        W75119  24.289  24.117  11.569
74255W        W75120  24.763  25.417  11.264
74256W        W75121  23.940  23.407  14.406
74257W        W75122  22.270  24.374  14.446
74258W        W75123  25.476  22.296  14.398
74259W        W75124  25.194  23.224  13.019
74260W        W75125  23.502  25.354  14.496
74261W        W75126  23.357  21.983  11.223
74262W        W75127  24.896  24.582  11.166
74263W        W75128  22.665  22.675  14.052
74264W        W75129  23.099  24.669  13.914
74265W        W75130  25.225  22.660  13.712
74266W        W75131  24.436  25.319  11.680
74267W        W75132  24.675  23.938  13.047
74268W        W75133  22.925  22.354  13.714
74269W        W75134  23.394  23.423  14.471
74270W        W75135  22.897  24.602  11.665
74271W        W75136  24.652  24.100  11.929
74272W        W75137  22.420  22.726  13.653
74273W        W75138  23.749  24.788  12.117
74274W        W75139  25.499  23.348  12.298
74275W        W75140  23.721  21.981  14.017
74276W        W75141  24.501  24.686  13.096
74277W        W75142  24.804  25.030  12.804
74278W        W75143  24.023  24.832  11.232
74279W        W75144  22.033  24.724  14.074
74280W        W75145  22.776  22.716  13.312
74281W        W75146  22.746  22.064  12.422
74282W        W75147  24.367  22.906  13.114
74283W        W75148  23.165  24.077  11.314
74284W        W75149  25.163  24.019  12.813
74285W        W75150  22.490  24.777  14.236
74286W        W75151  24.877  25.459  12.033
74287W        W75152  22.976  22.479  12.478
74288W        W75153  22.745  23.972  12.568
74289W        W75154  23.058  25.383  13.318
74290W        W75155  25.125  25.479  14.350
74291W        W75156  24.284  23.667  13.283
74292W        W75157  22.133  23.465  11.198
74293W        W75158  25.267  25.123  11.895
74294W        W75159  25.104  22.447  11.514
74295W        W75160  23.243  21.966  13.917
74296W        W75161  24.949  24.768  12.375
74297W        W75162  24.978  23.324  12.280
74298W        W75163  23.095  22.997  12.496
74299W        W75164  23.340  23.259  13.820
74300W        W75165  24.451  24.412  13.683
74301W        W75166  23.101  22.866  13.795
74302W        W75167  23.080  25.332  12.411
74303W        W75168  22.397  25.291  14.045
74304W        W75169  22.509  24.652  11.175
74305W        W75170  25.026  24.410  11.985
74306W        W75171  22.630  23.202  13.871
74307W        W75172  25.403  23.132  11.352
74308W        W75173  23.148  24.189  11.823
74309W        W75174  24.247  23.571  13.904
74310W        W75175  24.138  23.199  13.448
74311W        W75176  22.698  23.571  13.477
74312W        W75177  24.908  25.459  13.306
74313W        W75178  24.699  22.093  14.300
74314W        W75179  22.363  22.243  13.887
74315W        W75180  22.702  23.266  12.940
74316W        W75181  23.071  23.080  11.062
74317W        W75182  21.874  24.839  13.607
74318W        W75183  23.459  23.548  13.050
74319W        W75184  23.282  22.573  11.155
74320W        W75185  22.417  23.389  11.936
74321W        W75186  22.188  25.241  13.373
74322W        W75187  24.983  23.467  11.481
74323W        W75188  25.078  22.383  14.167
74324W        W75189  24.514  24.592  12.130
74325W        W75190  22.112  23.516  14.307
74326W        W75191  25.078  21.980  11.603
74327W        W75192  24.598  24.455  11.614
74328W        W75193  23.500  23.513  11.699
74329W        W75194  24.687  22.317  11.222
74330W        W75195  24.752  22.924  13.408
74331W        W75196  22.461  23.517  12.615
74332W        W75197  22.755  24.456  12.264
74333W        W75198  24.518  23.076  12.229
74334W        W75199  23.541  22.455  12.925
74335W        W75200  25.503  24.366  13.436
74336W        W75201  25.421  22.353  12.997
74337W        W75202  21.960  25.183  12.373
74338W        W75203  22.469  24.370  11.909
74339W        W75204  22.384  21.987  14.462
74340W        W75205  23.503  24.840  14.564
74341W        W75206  25.258  23.808  12.354
74342W        W75207  24.612  23.985  11.234
74343W        W75208  23.907  25.506  13.446
74344W        W75209  24.764  24.228  14.483
74345W        W75210  23.579  21.938  11.763
74346W        W75211  24.292  22.807  12.622
74347W        W75212  21.978  24.394  12.954
74348W        W75213  23.231  22.356  11.595
74349W        W75214  23.035  23.840  14.444
74350W        W75215  24.029  22.821  12.158
74351W        W75216  24.234  24.231  13.280
74352W        W75217  22.388  24.836  13.715
74353W        W75218  22.979  24.819  14.438
74354W        W75219  22.830  22.616  11.452
74355W        W75220  24.347  22.758  11.777
74356W        W75221  24.305  24.866  14.014
74357W        W75222  22.990  23.458  12.613
74358W        W75223  22.645  25.156  13.478
74359W        W75224  25.390  25.273  11.079
74360W        W75225  22.253  23.945  14.075
74361W        W75226  24.248  24.207  12.763
74362W        W75227  22.684  23.856  12.005
74363W        W75228  23.055  24.863  13.400
74364W        W75229  23.433  22.282  12.441
74365W        W75230  22.044  24.266  11.371
74366W        W75231  23.563  23.217  11.241
74367W        W75232  22.209  23.766  12.260
74368W        W75233  23.499  22.408  13.724
74369W        W75234  25.171  22.117  11.151
74370W        W75235  25.264  23.863  14.250
74371W        W75236  23.918  25.120  14.402
74372W        W75237  25.476  24.214  13.924
74373W        W75238  24.884  25.012  14.535
74374W        W75239  22.623  25.468  13.013
74375W        W75240  25.482  24.090  11.887
74376W        W75241  24.012  23.357  12.400
74377W        W75242  23.779  21.969  12.290
74378W        W75243  22.838  24.953  12.127
74379W        W75244  23.337  22.694  13.352
74380W        W75245  23.037  22.063  12.821
74381W        W75246  22.100  24.885  11.369
74382W        W75247  23.916  24.249  12.087
74383W        W75248  22.791  25.044  13.966
74384W        W75249  22.268  23.867  11.662
74385W        W75250  22.153  22.410  12.661
74386W        W75251  23.701  24.375  12.718
74387W        W75252  21.953  22.229  11.738
74388W        W75253  24.617  23.435  13.665
74389W        W75254  24.494  22.821  11.237
74390W        W75255  25.011  24.493  12.885
74391W        W75256  23.672  24.977  12.716
74392W        W75257  23.084  25.081  11.627
74393W        W75258  24.366  21.984  11.057
74394W        W75259  22.166  25.244  12.798
74395W        W75260  24.363  23.002  14.433
74396W        W75261  22.346  22.532  14.432
74397W        W75262  22.077  23.132  11.765
74398W        W75263  22.768  23.121  11.490
74399W        W75264  24.531  23.448  14.307
74400W        W75265  22.874  23.729  13.016
74401W        W75266  24.348  22.015  12.136
74402W        W75267  23.479  25.446  12.639
74403W        W75268  24.693  24.908  13.576
74404W        W75269  24.277  25.057  12.687
74405W        W75270  24.296  24.037  12.281
74406W        W75271  23.758  22.262  11.352
74407W        W75272  25.439  21.890  12.074
74408W        W75273  23.127  23.525  11.237
74409W        W75274  25.293  22.862  12.227
74410W        W75275  23.985  24.032  11.104
74411W        W75276  24.921  24.232  13.852
74412W        W75277  24.575  24.933  11.319
74413W        W75278  23.190  22.608  14.225
74414W        W75279  23.010  23.192  13.466
74415W        W75280  25.102  24.687  13.743
74416W        W75281  24.202  22.637  14.120
74417W        W75282  22.046  23.108  13.897
74418W        W75283  23.806  23.585  13.623
74419W        W75284  22.163  24.343  12.280
74420W        W75285  22.310  23.640  13.170
74421W        W75286  24.627  23.926  13.520
74422W        W75287  24.399  25.306  14.331
74423W        W75288  24.295  23.045  13.884
74424W        W75289  24.572  25.099  12.289
74425W        W75290  23.574  24.819  13.612
74426W        W75291  23.059  25.174  12.881
74427W        W75292  24.864  24.345  13.300
74428W        W75293  23.914  24.417  14.437
74429W        W75294  22.519  24.370  12.776
74430W        W75295  24.865  24.129  12.421
74431W        W75296  24.506  25.195  13.172
74432W        W75297  22.484  24.924  13.042
74433W        W75298  23.505  22.976  14.252
74434W        W75299  23.956  25.142  11.763
74435W        W75300  23.264  24.397  14.401
74436W        W75301  23.390  24.635  11.778
74437W        W75302  22.611  23.375  11.037
74438W        W75303  21.950  25.461  17.936
74439W        W75304  22.326  24.354  17.459
74440W        W75305  25.031  24.084  15.229
74441W        W75306  25.161  25.169  17.256
74442W        W75307  23.079  25.160  14.782
74443W        W75308  23.162  23.312  15.765
74444W        W75309  22.677  23.160  15.929
74445W        W75310  23.668  23.975  15.363
74446W        W75311  23.343  25.067  17.718
74447W        W75312  21.992  22.628  17.681
74448W        W75313  22.754  21.908  17.483
74449W        W75314  24.448  22.296  16.370
74450W        W75315  24.097  23.167  14.940
74451W        W75316  24.667  22.601  18.031
74452W        W75317  22.033  22.393  17.156
74453W        W75318  22.132  25.012  18.177
74454W        W75319  23.654  24.402  14.909
74455W        W75320  22.086  23.185  16.602
74456W        W75321  22.979  23.076  17.839
74457W        W75322  25.438  22.935  16.338
74458W        W75323  25.202  23.978  17.197
74459W        W75324  23.510  23.311  16.224
74460W        W75325  24.056  24.650  16.593
74461W        W75326  22.556  24.084  16.825
74462W        W75327  21.915  23.612  16.396
74463W        W75328  22.951  23.584  17.588
74464W        W75329  25.222  23.367  17.842
74465W        W75330  22.838  24.811  16.287
74466W        W75331  23.959  24.500  17.421
74467W        W75332  23.179  23.140  16.646
74468W        W75333  23.471  23.924  16.289
74469W        W75334  24.468  24.697  18.137
74470W        W75335  23.547  24.017  18.147
74471W        W75336  23.528  23.733  17.625
74472W        W75337  21.937  23.124  18.147
74473W        W75338  24.769  24.659  17.746
74474W        W75339  22.350  22.241  15.744
74475W        W75340  22.877  24.499  16.743
74476W        W75341  25.340  24.282  16.033
74477W        W75342  24.753  22.682  16.600
74478W        W75343  25.038  22.635  14.695
74479W        W75344  25.503  23.436  17.001
74480W        W75345  23.470  25.143  16.754
74481W        W75346  25.244  24.609  15.192
74482W        W75347  22.373  25.395  14.946
74483W        W75348  22.766  25.441  15.622
74484W        W75349  22.563  22.195  17.048
74485W        W75350  25.186  23.213  17.323
74486W        W75351  24.591  23.635  15.782
74487W        W75352  24.557  23.323  14.809
74488W        W75353  23.765  24.467  16.949
74489W        W75354  23.571  22.797  16.148
74490W        W75355  24.171  24.884  17.142
74491W        W75356  25.042  23.675  15.564
74492W        W75357  23.944  22.333  15.580
74493W        W75358  22.601  25.027  15.263
74494W        W75359  21.972  22.526  15.862
74495W        W75360  24.758  23.133  16.336
74496W        W75361  22.216  24.750  16.251
74497W        W75362  23.557  25.100  15.121
74498W        W75363  24.949  23.126  14.585
74499W        W75364  21.972  24.884  16.749
74500W        W75365  22.763  24.456  17.229
74501W        W75366  23.136  23.816  15.848
74502W        W75367  23.158  22.221  16.941
74503W        W75368  25.387  21.983  16.238
74504W        W75369  22.606  23.855  14.706
74505W        W75370  22.261  22.888  14.885
74506W        W75371  22.323  24.844  15.679
74507W        W75372  23.454  24.327  15.927
74508W        W75373  24.786  25.186  17.641
74509W        W75374  23.712  22.828  15.325
74510W        W75375  25.095  25.226  16.097
74511W        W75376  24.772  23.079  17.695
74512W        W75377  25.485  24.735  15.829
74513W        W75378  24.112  24.027  17.313
74514W        W75379  21.878  23.578  15.519
74515W        W75380  22.989  23.993  17.092
74516W        W75381  24.193  23.257  15.470
74517W        W75382  24.070  23.747  15.574
74518W        W75383  22.413  23.167  17.048
74519W        W75384  22.398  23.043  17.970
74520W        W75385  22.288  21.960  16.129
74521W        W75386  24.056  22.307  16.690
74522W        W75387  23.704  22.492  17.853
74523W        W75388  24.059  22.641  15.031
74524W        W75389  25.242  25.034  17.785
74525W        W75390  24.209  22.115  17.824
74526W        W75391  25.228  24.416  17.946
74527W        W75392  24.658  22.583  17.542
74528W        W75393  24.458  22.521  15.812
74529W        W75394  24.851  23.655  18.216
74530W        W75395  22.591  25.231  16.202
74531W        W75396  23.249  22.948  15.188
74532W        W75397  22.818  22.232  17.852
74533W        W75398  24.870  22.716  15.533
74534W        W75399  25.237  23.198  15.478
74535W        W75400  22.980  25.415  17.949
74536W        W75401  22.906  21.951  15.184
74537W        W75402  25.227  22.485  16.219
74538W        W75403  25.377  24.734  14.664
74539W        W75404  22.284  23.937  16.366
74540W        W75405  24.201  22.524  14.596
74541W        W75406  25.335  24.856  16.316
74542W        W75407  25.374  22.050  17.066
74543W        W75408  23.819  23.262  17.620
74544W        W75409  23.912  24.601  15.323
74545W        W75410  24.312  23.895  18.063
74546W        W75411  23.986  21.872  16.372
74547W        W75412  22.598  22.775  16.435
74548W        W75413  22.152  23.975  17.209
74549W        W75414  24.011  25.168  15.915
74550W        W75415  25.205  22.765  16.787
74551W        W75416  23.842  25.112  17.554
74552W        W75417  25.185  24.171  14.759
74553W        W75418  23.620  23.654  15.820
74554W        W75419  25.472  22.165  17.561
74555W        W75420  23.621  24.000  17.155
74556W        W75421  23.838  22.886  16.600
74557W        W75422  24.690  23.184  15.438
74558W        W75423  24.977  22.917  15.080
74559W        W75424  24.786  24.957  15.469
74560W        W75425  24.620  24.560  16.265
74561W        W75426  24.516  23.639  15.243
74562W        W75427  23.949  23.849  16.229
74563W        W75428  24.830  23.637  16.296
74564W        W75429  22.205  22.652  16.720
74565W        W75430  24.983  23.704  17.547
74566W        W75431  25.334  25.322  16.693
74567W        W75432  23.264  24.766  16.095
74568W        W75433  24.271  25.299  17.419
74569W        W75434  24.265  22.629  17.183
74570W        W75435  23.472  25.337  17.244
74571W        W75436  25.169  22.291  15.710
74572W        W75437  24.960  23.610  17.011
74573W        W75438  21.943  22.931  17.049
74574W        W75439  24.803  22.726  16.067
74575W        W75440  25.214  22.877  17.844
74576W        W75441  24.099  24.576  16.062
74577W        W75442  23.355  25.167  15.675
74578W        W75443  22.470  22.347  14.933
74579W        W75444  23.574  22.001  16.743
74580W        W75445  22.602  25.121  14.591
74581W        W75446  22.976  23.587  15.342
74582W        W75447  23.630  24.216  17.655
74583W        W75448  23.460  22.574  15.645
74584W        W75449  24.816  22.171  16.073
74585W        W75450  24.536  25.453  16.401
74586W        W75451  23.948  25.101  16.741
74587W        W75452  23.344  24.138  16.702
74588W        W75453  25.114  24.861  16.828
74589W        W75454  22.808  22.364  15.597
74590W        W75455  23.330  24.661  16.557
74591W        W75456  22.813  22.592  14.622
74592W        W75457  23.614  23.201  17.016
74593W        W75458  24.462  22.067  16.886
74594W        W75459  21.882  23.910  16.771
74595W        W75460  23.586  23.728  14.929
74596W        W75461  22.854  22.043  14.699
74597W        W75462  23.592  23.124  15.750
74598W        W75463  24.562  22.100  17.449
74599W        W75464  23.150  24.112  17.558
74600W        W75465  23.954  23.894  17.775
74601W        W75466  24.571  23.924  17.668
74602W        W75467  23.855  22.064  18.173
74603W        W75468  23.077  22.680  16.566
74604W        W75469  22.503  22.636  15.964
74605W        W75470  22.289  25.348  15.640
74606W        W75471  23.621  24.678  17.765
74607W        W75472  22.656  24.163  15.124
74608W        W75473  24.336  23.548  16.345
74609W        W75474  24.616  23.347  16.744
74610W        W75475  23.821  24.021  16.678
74611W        W75476  24.291  24.395  14.810
74612W        W75477  23.963  22.416  16.138
74613W        W75478  25.442  22.694  15.406
74614W        W75479  21.936  25.283  17.437
74615W        W75480  22.353  24.509  16.969
74616W        W75481  21.920  25.355  15.201
74617W        W75482  23.819  22.625  17.007
74618W        W75483  23.182  24.648  14.856
74619W        W75484  25.087  25.030  15.042
74620W        W75485  24.062  23.683  15.056
74621W        W75486  22.905  22.874  15.573
74622W        W75487  23.737  22.784  14.625
74623W        W75488  24.321  24.349  17.803
74624W        W75489  24.674  22.255  15.420
74625W        W75490  22.004  22.103  14.868
74626W        W75491  23.290  24.422  17.158
74627W        W75492  23.089  24.338  16.250
74628W        W75493  22.831  24.290  14.648
74629W        W75494  22.072  24.531  15.416
74630W        W75495  22.576  23.601  17.858
74631W        W75496  23.280  22.161  18.044
74632W        W75497  23.989  22.303  17.400
74633W        W75498  23.184  22.071  15.681
74634W        W75499  24.243  22.148  15.186
74635W        W75500  22.188  22.080  16.763
74636W        W75501  22.236  23.043  16.133
74637W        W75502  24.925  22.151  16.539
74638W        W75503  22.347  22.649  15.353
74639W        W75504  24.918  22.337  16.969
74640W        W75505  25.314  23.540  14.654
74641W        W75506  22.606  22.298  16.473
74642W        W75507  23.720  22.870  17.413
74643W        W75508  21.868  22.560  14.891
74644W        W75509  22.654  23.949  17.452
74645W        W75510  24.012  23.347  16.631
74646W        W75511  23.879  25.426  14.927
74647W        W75512  22.025  23.933  14.624
74648W        W75513  22.760  24.344  17.750
74649W        W75514  22.281  23.511  17.381
74650W        W75515  23.272  23.616  17.175
74651W        W75516  25.040  21.975  17.437
74652W        W75517  25.438  23.585  17.428
74653W        W75518  25.426  23.785  15.114
74654W        W75519  24.289  24.117  15.213
74655W        W75520  24.763  25.417  14.908
74656W        W75521  23.940  23.407  18.050
74657W        W75522  22.270  24.374  18.090
74658W        W75523  25.476  22.296  18.042
74659W        W75524  25.194  23.224  16.663
74660W        W75525  23.502  25.354  18.140
74661W        W75526  23.357  21.983  14.867
74662W        W75527  24.896  24.582  14.810
74663W        W75528  22.665  22.675  17.696
74664W        W75529  23.099  24.669  17.558
74665W        W75530  25.225  22.660  17.356
74666W        W75531  24.436  25.319  15.324
74667W        W75532  24.675  23.938  16.691
74668W        W75533  22.925  22.354  17.358
74669W        W75534  23.394  23.423  18.115
74670W        W75535  22.897  24.602  15.309
74671W        W75536  24.652  24.100  15.573
74672W        W75537  22.420  22.726  17.297
74673W        W75538  23.749  24.788  15.761
74674W        W75539  25.499  23.348  15.942
74675W        W75540  23.721  21.981  17.661
74676W        W75541  24.501  24.686  16.740
74677W        W75542  24.804  25.030  16.448
74678W        W75543  24.023  24.832  14.876
74679W        W75544  22.033  24.724  17.718
74680W        W75545  22.776  22.716  16.956
74681W        W75546  22.746  22.064  16.066
74682W        W75547  24.367  22.906  16.758
74683W        W75548  23.165  24.077  14.958
74684W        W75549  25.163  24.019  16.457
74685W        W75550  22.490  24.777  17.880
74686W        W75551  24.877  25.459  15.677
74687W        W75552  22.976  22.479  16.122
74688W        W75553  22.745  23.972  16.212
74689W        W75554  23.058  25.383  16.962
74690W        W75555  25.125  25.479  17.994
74691W        W75556  24.284  23.667  16.927
74692W        W75557  22.133  23.465  14.842
74693W        W75558  25.267  25.123  15.539
74694W        W75559  25.104  22.447  15.158
74695W        W75560  23.243  21.966  17.561
74696W        W75561  24.949  24.768  16.019
74697W        W75562  24.978  23.324  15.924
74698W        W75563  23.095  22.997  16.140
74699W        W75564  23.340  23.259  17.464
74700W        W75565  24.451  24.412  17.327
74701W        W75566  23.101  22.866  17.439
74702W        W75567  23.080  25.332  16.055
74703W        W75568  22.397  25.291  17.689
74704W        W75569  22.509  24.652  14.819
74705W        W75570  25.026  24.410  15.629
74706W        W75571  22.630  23.202  17.515
74707W        W75572  25.403  23.132  14.996
74708W        W75573  23.148  24.189  15.467
74709W        W75574  24.247  23.571  17.548
74710W        W75575  24.138  23.199  17.092
74711W        W75576  22.698  23.571  17.121
74712W        W75577  24.908  25.459  16.950
74713W        W75578  24.699  22.093  17.944
74714W        W75579  22.363  22.243  17.531
74715W        W75580  22.702  23.266  16.584
74716W        W75581  23.071  23.080  14.706
74717W        W75582  21.874  24.839  17.251
74718W        W75583  23.459  23.548  16.694
74719W        W75584  23.282  22.573  14.799
74720W        W75585  22.417  23.389  15.580
74721W        W75586  22.188  25.241  17.017
74722W        W75587  24.983  23.467  15.125
74723W        W75588  25.078  22.383  17.811
74724W        W75589  24.514  24.592  15.774
74725W        W75590  22.112  23.516  17.951
74726W        W75591  25.078  21.980  15.247
74727W        W75592  24.598  24.455  15.258
74728W        W75593  23.500  23.513  15.343
74729W        W75594  24.687  22.317  14.866
74730W        W75595  24.752  22.924  17.052
74731W        W75596  22.461  23.517  16.259
74732W        W75597  22.755  24.456  15.908
74733W        W75598  24.518  23.076  15.873
74734W        W75599  23.541  22.455  16.569
74735W        W75600  25.503  24.366  17.080
74736W        W75601  25.421  22.353  16.641
74737W        W75602  21.960  25.183  16.017
74738W        W75603  22.469  24.370  15.553
74739W        W75604  22.384  21.987  18.106
74740W        W75605  23.503  24.840  18.208
74741W        W75606  25.258  23.808  15.998
74742W        W75607  24.612  23.985  14.878
74743W        W75608  23.907  25.506  17.090
74744W        W75609  24.764  24.228  18.127
74745W        W75610  23.579  21.938  15.407
74746W        W75611  24.292  22.807  16.266
74747W        W75612  21.978  24.394  16.598
74748W        W75613  23.231  22.356  15.239
74749W        W75614  23.035  23.840  18.088
74750W        W75615  24.029  22.821  15.802
74751W        W75616  24.234  24.231  16.924
74752W        W75617  22.388  24.836  17.359
74753W        W75618  22.979  24.819  18.082
74754W        W75619  22.830  22.616  15.096
74755W        W75620  24.347  22.758  15.421
74756W        W75621  24.305  24.866  17.658
74757W        W75622  22.990  23.458  16.257
74758W        W75623  22.645  25.156  17.122
74759W        W75624  25.390  25.273  14.723
74760W        W75625  22.253  23.945  17.719
74761W        W75626  24.248  24.207  16.407
74762W        W75627  23.055  24.863  17.044
74763W        W75628  23.433  22.282  16.085
74764W        W75629  22.044  24.266  15.015
74765W        W75630  23.563  23.217  14.885
74766W        W75631  22.209  23.766  15.904
74767W        W75632  23.499  22.408  17.368
74768W        W75633  25.171  22.117  14.795
74769W        W75634  25.264  23.863  17.894
74770W        W75635  23.918  25.120  18.046
74771W        W75636  25.476  24.214  17.568
74772W        W75637  24.884  25.012  18.179
74773W        W75638  22.623  25.468  16.657
74774W        W75639  25.482  24.090  15.531
74775W        W75640  24.012  23.357  16.044
74776W        W75641  23.779  21.969  15.934
74777W        W75642  22.838  24.953  15.771
74778W        W75643  23.337  22.694  16.996
74779W        W75644  23.037  22.063  16.465
74780W        W75645  22.100  24.885  15.013
74781W        W75646  23.916  24.249  15.731
74782W        W75647  22.791  25.044  17.610
74783W        W75648  22.153  22.410  16.305
74784W        W75649  23.701  24.375  16.362
74785W        W75650  21.953  22.229  15.382
74786W        W75651  24.617  23.435  17.309
74787W        W75652  24.494  22.821  14.881
74788W        W75653  25.011  24.493  16.529
74789W        W75654  23.672  24.977  16.360
74790W        W75655  23.084  25.081  15.271
74791W        W75656  24.366  21.984  14.701
74792W        W75657  22.166  25.244  16.442
74793W        W75658  24.363  23.002  18.077
74794W        W75659  22.346  22.532  18.076
74795W        W75660  22.077  23.132  15.409
74796W        W75661  22.768  23.121  15.134
74797W        W75662  24.531  23.448  17.951
74798W        W75663  22.874  23.729  16.660
74799W        W75664  24.348  22.015  15.780
74800W        W75665  23.479  25.446  16.283
74801W        W75666  24.693  24.908  17.220
74802W        W75667  24.277  25.057  16.331
74803W        W75668  24.296  24.037  15.925
74804W        W75669  23.758  22.262  14.996
74805W        W75670  25.439  21.890  15.718
74806W        W75671  23.127  23.525  14.881
74807W        W75672  25.293  22.862  15.871
74808W        W75673  23.985  24.032  14.748
74809W        W75674  24.921  24.232  17.496
74810W        W75675  24.575  24.933  14.963
74811W        W75676  23.190  22.608  17.869
74812W        W75677  23.010  23.192  17.110
74813W        W75678  25.102  24.687  17.387
74814W        W75679  24.202  22.637  17.764
74815W        W75680  22.046  23.108  17.541
74816W        W75681  23.806  23.585  17.267
74817W        W75682  22.163  24.343  15.924
74818W        W75683  22.310  23.640  16.814
74819W        W75684  24.627  23.926  17.164
74820W        W75685  24.399  25.306  17.975
74821W        W75686  24.295  23.045  17.528
74822W        W75687  24.572  25.099  15.933
74823W        W75688  23.574  24.819  17.256
74824W        W75689  23.059  25.174  16.525
74825W        W75690  24.864  24.345  16.944
74826W        W75691  23.914  24.417  18.081
74827W        W75692  22.519  24.370  16.420
74828W        W75693  24.865  24.129  16.065
74829W        W75694  24.506  25.195  16.816
74830W        W75695  22.484  24.924  16.686
74831W        W75696  23.505  22.976  17.896
74832W        W75697  23.956  25.142  15.407
74833W        W75698  23.264  24.397  18.045
74834W        W75699  23.390  24.635  15.422
74835W        W75700  22.611  23.375  14.681
74836W        W75701  21.950  25.461  21.580
74837W        W75702  22.326  24.354  21.103
74838W        W75703  25.031  24.084  18.873
74839W        W75704  25.161  25.169  20.900
74840W        W75705  23.079  25.160  18.426
74841W        W75706  23.162  23.312  19.409
74842W        W75707  22.677  23.160  19.573
74843W        W75708  23.668  23.975  19.007
74844W        W75709  23.343  25.067  21.362
74845W        W75710  21.992  22.628  21.325
74846W        W75711  22.754  21.908  21.127
74847W        W75712  24.448  22.296  20.014
74848W        W75713  24.097  23.167  18.584
74849W        W75714  24.667  22.601  21.675
74850W        W75715  22.033  22.393  20.800
74851W        W75716  22.132  25.012  21.821
74852W        W75717  23.654  24.402  18.553
74853W        W75718  22.086  23.185  20.246
74854W        W75719  22.979  23.076  21.483
74855W        W75720  25.438  22.935  19.982
74856W        W75721  25.202  23.978  20.841
74857W        W75722  23.510  23.311  19.868
74858W        W75723  24.056  24.650  20.237
74859W        W75724  22.556  24.084  20.469
74860W        W75725  21.915  23.612  20.040
74861W        W75726  22.951  23.584  21.232
74862W        W75727  25.222  23.367  21.486
74863W        W75728  22.838  24.811  19.931
74864W        W75729  23.959  24.500  21.065
74865W        W75730  23.179  23.140  20.290
74866W        W75731  23.471  23.924  19.933
74867W        W75732  24.468  24.697  21.781
74868W        W75733  23.547  24.017  21.791
74869W        W75734  23.528  23.733  21.269
74870W        W75735  21.937  23.124  21.791
74871W        W75736  24.769  24.659  21.390
74872W        W75737  22.350  22.241  19.388
74873W        W75738  22.877  24.499  20.387
74874W        W75739  25.340  24.282  19.677
74875W        W75740  24.753  22.682  20.244
74876W        W75741  25.038  22.635  18.339
74877W        W75742  25.503  23.436  20.645
74878W        W75743  23.470  25.143  20.398
74879W        W75744  25.244  24.609  18.836
74880W        W75745  22.766  25.441  19.266
74881W        W75746  22.563  22.195  20.692
74882W        W75747  25.186  23.213  20.967
74883W        W75748  24.591  23.635  19.426
74884W        W75749  24.557  23.323  18.453
74885W        W75750  23.765  24.467  20.593
74886W        W75751  23.571  22.797  19.792
74887W        W75752  24.171  24.884  20.786
74888W        W75753  25.042  23.675  19.208
74889W        W75754  23.944  22.333  19.224
74890W        W75755  22.601  25.027  18.907
74891W        W75756  21.972  22.526  19.506
74892W        W75757  24.758  23.133  19.980
74893W        W75758  22.216  24.750  19.895
74894W        W75759  23.557  25.100  18.765
74895W        W75760  24.949  23.126  18.229
74896W        W75761  21.972  24.884  20.393
74897W        W75762  22.763  24.456  20.873
74898W        W75763  23.136  23.816  19.492
74899W        W75764  23.158  22.221  20.585
74900W        W75765  25.387  21.983  19.882
74901W        W75766  22.606  23.855  18.350
74902W        W75767  22.261  22.888  18.529
74903W        W75768  22.323  24.844  19.323
74904W        W75769  23.454  24.327  19.571
74905W        W75770  24.786  25.186  21.285
74906W        W75771  23.712  22.828  18.969
74907W        W75772  25.095  25.226  19.741
74908W        W75773  24.772  23.079  21.339
74909W        W75774  25.485  24.735  19.473
74910W        W75775  24.112  24.027  20.957
74911W        W75776  21.878  23.578  19.163
74912W        W75777  22.989  23.993  20.736
74913W        W75778  24.193  23.257  19.114
74914W        W75779  24.070  23.747  19.218
74915W        W75780  22.413  23.167  20.692
74916W        W75781  22.398  23.043  21.614
74917W        W75782  22.288  21.960  19.773
74918W        W75783  24.056  22.307  20.334
74919W        W75784  23.704  22.492  21.497
74920W        W75785  24.059  22.641  18.675
74921W        W75786  25.242  25.034  21.429
74922W        W75787  24.209  22.115  21.468
74923W        W75788  25.228  24.416  21.590
74924W        W75789  24.658  22.583  21.186
74925W        W75790  24.458  22.521  19.456
74926W        W75791  24.851  23.655  21.860
74927W        W75792  22.591  25.231  19.846
74928W        W75793  23.249  22.948  18.832
74929W        W75794  22.818  22.232  21.496
74930W        W75795  24.870  22.716  19.177
74931W        W75796  25.237  23.198  19.122
74932W        W75797  22.980  25.415  21.593
74933W        W75798  22.906  21.951  18.828
74934W        W75799  25.227  22.485  19.863
74935W        W75800  25.377  24.734  18.308
74936W        W75801  22.284  23.937  20.010
74937W        W75802  24.201  22.524  18.240
74938W        W75803  25.335  24.856  19.960
74939W        W75804  25.374  22.050  20.710
74940W        W75805  23.819  23.262  21.264
74941W        W75806  23.912  24.601  18.967
74942W        W75807  24.312  23.895  21.707
74943W        W75808  23.986  21.872  20.016
74944W        W75809  22.598  22.775  20.079
74945W        W75810  22.152  23.975  20.853
74946W        W75811  24.011  25.168  19.559
74947W        W75812  25.205  22.765  20.431
74948W        W75813  23.842  25.112  21.198
74949W        W75814  25.185  24.171  18.403
74950W        W75815  23.620  23.654  19.464
74951W        W75816  25.472  22.165  21.205
74952W        W75817  23.621  24.000  20.799
74953W        W75818  23.838  22.886  20.244
74954W        W75819  24.690  23.184  19.082
74955W        W75820  24.977  22.917  18.724
74956W        W75821  24.786  24.957  19.113
74957W        W75822  24.620  24.560  19.909
74958W        W75823  24.516  23.639  18.887
74959W        W75824  23.949  23.849  19.873
74960W        W75825  24.830  23.637  19.940
74961W        W75826  22.205  22.652  20.364
74962W        W75827  24.983  23.704  21.191
74963W        W75828  25.334  25.322  20.337
74964W        W75829  23.264  24.766  19.739
74965W        W75830  24.271  25.299  21.063
74966W        W75831  24.265  22.629  20.827
74967W        W75832  23.472  25.337  20.888
74968W        W75833  25.169  22.291  19.354
74969W        W75834  24.960  23.610  20.655
74970W        W75835  21.943  22.931  20.693
74971W        W75836  24.803  22.726  19.711
74972W        W75837  25.214  22.877  21.488
74973W        W75838  24.099  24.576  19.706
74974W        W75839  23.355  25.167  19.319
74975W        W75840  22.470  22.347  18.577
74976W        W75841  23.574  22.001  20.387
74977W        W75842  22.602  25.121  18.235
74978W        W75843  22.976  23.587  18.986
74979W        W75844  23.630  24.216  21.299
74980W        W75845  23.460  22.574  19.289
74981W        W75846  24.816  22.171  19.717
74982W        W75847  24.536  25.453  20.045
74983W        W75848  23.948  25.101  20.385
74984W        W75849  23.344  24.138  20.346
74985W        W75850  25.114  24.861  20.472
74986W        W75851  22.808  22.364  19.241
74987W        W75852  23.330  24.661  20.201
74988W        W75853  22.813  22.592  18.266
74989W        W75854  23.614  23.201  20.660
74990W        W75855  24.462  22.067  20.530
74991W        W75856  21.882  23.910  20.415
74992W        W75857  23.586  23.728  18.573
74993W        W75858  22.854  22.043  18.343
74994W        W75859  23.592  23.124  19.394
74995W        W75860  24.562  22.100  21.093
74996W        W75861  23.150  24.112  21.202
74997W        W75862  23.954  23.894  21.419
74998W        W75863  24.571  23.924  21.312
74999W        W75864  23.855  22.064  21.817
75000W        W75865  23.077  22.680  20.210
75001W        W75866  22.503  22.636  19.608
75002W        W75867  22.289  25.348  19.284
75003W        W75868  23.621  24.678  21.409
75004W        W75869  22.656  24.163  18.768
75005W        W75870  24.336  23.548  19.989
75006W        W75871  24.616  23.347  20.388
75007W        W75872  23.821  24.021  20.322
75008W        W75873  24.291  24.395  18.454
75009W        W75874  23.963  22.416  19.782
75010W        W75875  25.442  22.694  19.050
75011W        W75876  21.936  25.283  21.081
75012W        W75877  22.353  24.509  20.613
75013W        W75878  21.920  25.355  18.845
75014W        W75879  23.819  22.625  20.651
75015W        W75880  23.182  24.648  18.500
75016W        W75881  25.087  25.030  18.686
75017W        W75882  24.062  23.683  18.700
75018W        W75883  22.905  22.874  19.217
75019W        W75884  23.737  22.784  18.269
75020W        W75885  24.321  24.349  21.447
75021W        W75886  24.674  22.255  19.064
75022W        W75887  22.004  22.103  18.512
75023W        W75888  23.290  24.422  20.802
75024W        W75889  23.089  24.338  19.894
75025W        W75890  22.831  24.290  18.292
75026W        W75891  22.072  24.531  19.060
75027W        W75892  22.576  23.601  21.502
75028W        W75893  23.280  22.161  21.688
75029W        W75894  23.989  22.303  21.044
75030W        W75895  23.184  22.071  19.325
75031W        W75896  24.243  22.148  18.830
75032W        W75897  22.188  22.080  20.407
75033W        W75898  22.236  23.043  19.777
75034W        W75899  24.925  22.151  20.183
75035W        W75900  22.347  22.649  18.997
75036W        W75901  24.918  22.337  20.613
75037W        W75902  25.314  23.540  18.298
75038W        W75903  22.606  22.298  20.117
75039W        W75904  23.720  22.870  21.057
75040W        W75905  21.868  22.560  18.535
75041W        W75906  22.654  23.949  21.096
75042W        W75907  24.012  23.347  20.275
75043W        W75908  23.879  25.426  18.571
75044W        W75909  22.025  23.933  18.268
75045W        W75910  22.760  24.344  21.394
75046W        W75911  22.281  23.511  21.025
75047W        W75912  23.272  23.616  20.819
75048W        W75913  25.040  21.975  21.081
75049W        W75914  25.438  23.585  21.072
75050W        W75915  25.426  23.785  18.758
75051W        W75916  24.289  24.117  18.857
75052W        W75917  24.763  25.417  18.552
75053W        W75918  23.940  23.407  21.694
75054W        W75919  22.270  24.374  21.734
75055W        W75920  25.476  22.296  21.686
75056W        W75921  25.194  23.224  20.307
75057W        W75922  23.502  25.354  21.784
75058W        W75923  23.357  21.983  18.511
75059W        W75924  24.896  24.582  18.454
75060W        W75925  22.665  22.675  21.340
75061W        W75926  23.099  24.669  21.202
75062W        W75927  25.225  22.660  21.000
75063W        W75928  24.436  25.319  18.968
75064W        W75929  24.675  23.938  20.335
75065W        W75930  22.925  22.354  21.002
75066W        W75931  23.394  23.423  21.759
75067W        W75932  22.897  24.602  18.953
75068W        W75933  24.652  24.100  19.217
75069W        W75934  22.420  22.726  20.941
75070W        W75935  23.749  24.788  19.405
75071W        W75936  25.499  23.348  19.586
75072W        W75937  23.721  21.981  21.305
75073W        W75938  24.501  24.686  20.384
75074W        W75939  24.804  25.030  20.092
75075W        W75940  24.023  24.832  18.520
75076W        W75941  22.033  24.724  21.362
75077W        W75942  22.776  22.716  20.600
75078W        W75943  22.746  22.064  19.710
75079W        W75944  24.367  22.906  20.402
75080W        W75945  23.165  24.077  18.602
75081W        W75946  25.163  24.019  20.101
75082W        W75947  22.490  24.777  21.524
75083W        W75948  24.877  25.459  19.321
75084W        W75949  22.976  22.479  19.766
75085W        W75950  22.745  23.972  19.856
75086W        W75951  23.058  25.383  20.606
75087W        W75952  25.125  25.479  21.638
75088W        W75953  24.284  23.667  20.571
75089W        W75954  22.133  23.465  18.486
75090W        W75955  25.267  25.123  19.183
75091W        W75956  25.104  22.447  18.802
75092W        W75957  23.243  21.966  21.205
75093W        W75958  24.949  24.768  19.663
75094W        W75959  24.978  23.324  19.568
75095W        W75960  23.095  22.997  19.784
75096W        W75961  23.340  23.259  21.108
75097W        W75962  24.451  24.412  20.971
75098W        W75963  23.101  22.866  21.083
75099W        W75964  23.080  25.332  19.699
75100W        W75965  22.397  25.291  21.333
75101W        W75966  22.509  24.652  18.463
75102W        W75967  25.026  24.410  19.273
75103W        W75968  22.630  23.202  21.159
75104W        W75969  25.403  23.132  18.640
75105W        W75970  23.148  24.189  19.111
75106W        W75971  24.247  23.571  21.192
75107W        W75972  24.138  23.199  20.736
75108W        W75973  22.698  23.571  20.765
75109W        W75974  24.908  25.459  20.594
75110W        W75975  24.699  22.093  21.588
75111W        W75976  22.363  22.243  21.175
75112W        W75977  22.702  23.266  20.228
75113W        W75978  23.071  23.080  18.350
75114W        W75979  21.874  24.839  20.895
75115W        W75980  23.459  23.548  20.338
75116W        W75981  23.282  22.573  18.443
75117W        W75982  22.417  23.389  19.224
75118W        W75983  22.188  25.241  20.661
75119W        W75984  24.983  23.467  18.769
75120W        W75985  25.078  22.383  21.455
75121W        W75986  24.514  24.592  19.418
75122W        W75987  22.112  23.516  21.595
75123W        W75988  25.078  21.980  18.891
75124W        W75989  24.598  24.455  18.902
75125W        W75990  23.500  23.513  18.987
75126W        W75991  24.687  22.317  18.510
75127W        W75992  24.752  22.924  20.696
75128W        W75993  22.461  23.517  19.903
75129W        W75994  22.755  24.456  19.552
75130W        W75995  24.518  23.076  19.517
75131W        W75996  23.541  22.455  20.213
75132W        W75997  25.503  24.366  20.724
75133W        W75998  25.421  22.353  20.285
75134W        W75999  21.960  25.183  19.661
75135W        W76000  22.469  24.370  19.197
75136W        W76001  22.384  21.987  21.750
75137W        W76002  23.503  24.840  21.852
75138W        W76003  25.258  23.808  19.642
75139W        W76004  24.612  23.985  18.522
75140W        W76005  23.907  25.506  20.734
75141W        W76006  24.764  24.228  21.771
75142W        W76007  23.579  21.938  19.051
75143W        W76008  24.292  22.807  19.910
75144W        W76009  21.978  24.394  20.242
75145W        W76010  23.231  22.356  18.883
75146W        W76011  23.035  23.840  21.732
75147W        W76012  24.029  22.821  19.446
75148W        W76013  24.234  24.231  20.568
75149W        W76014  22.388  24.836  21.003
75150W        W76015  22.979  24.819  21.726
75151W        W76016  22.830  22.616  18.740
75152W        W76017  24.347  22.758  19.065
75153W        W76018  24.305  24.866  21.302
75154W        W76019  22.990  23.458  19.901
75155W        W76020  22.645  25.156  20.766
75156W        W76021  25.390  25.273  18.367
75157W        W76022  22.253  23.945  21.363
75158W        W76023  24.248  24.207  20.051
75159W        W76024  22.684  23.856  19.293
75160W        W76025  23.055  24.863  20.688
75161W        W76026  23.433  22.282  19.729
75162W        W76027  22.044  24.266  18.659
75163W        W76028  23.563  23.217  18.529
75164W        W76029  22.209  23.766  19.548
75165W        W76030  23.499  22.408  21.012
75166W        W76031  25.171  22.117  18.439
75167W        W76032  25.264  23.863  21.538
75168W        W76033  23.918  25.120  21.690
75169W        W76034  25.476  24.214  21.212
75170W        W76035  24.884  25.012  21.823
75171W        W76036  22.623  25.468  20.301
75172W        W76037  25.482  24.090  19.175
75173W        W76038  24.012  23.357  19.688
75174W        W76039  23.779  21.969  19.578
75175W        W76040  22.838  24.953  19.415
75176W        W76041  23.337  22.694  20.640
75177W        W76042  23.037  22.063  20.109
75178W        W76043  22.100  24.885  18.657
75179W        W76044  23.916  24.249  19.375
75180W        W76045  22.791  25.044  21.254
75181W        W76046  22.268  23.867  18.950
75182W        W76047  22.153  22.410  19.949
75183W        W76048  23.701  24.375  20.006
75184W        W76049  21.953  22.229  19.026
75185W        W76050  24.617  23.435  20.953
75186W        W76051  24.494  22.821  18.525
75187W        W76052  25.011  24.493  20.173
75188W        W76053  23.672  24.977  20.004
75189W        W76054  23.084  25.081  18.915
75190W        W76055  24.366  21.984  18.345
75191W        W76056  22.166  25.244  20.086
75192W        W76057  24.363  23.002  21.721
75193W        W76058  22.346  22.532  21.720
75194W        W76059  22.077  23.132  19.053
75195W        W76060  22.768  23.121  18.778
75196W        W76061  24.531  23.448  21.595
75197W        W76062  22.874  23.729  20.304
75198W        W76063  24.348  22.015  19.424
75199W        W76064  23.479  25.446  19.927
75200W        W76065  24.693  24.908  20.864
75201W        W76066  24.277  25.057  19.975
75202W        W76067  24.296  24.037  19.569
75203W        W76068  23.758  22.262  18.640
75204W        W76069  25.439  21.890  19.362
75205W        W76070  23.127  23.525  18.525
75206W        W76071  25.293  22.862  19.515
75207W        W76072  23.985  24.032  18.392
75208W        W76073  24.921  24.232  21.140
75209W        W76074  24.575  24.933  18.607
75210W        W76075  23.190  22.608  21.513
75211W        W76076  23.010  23.192  20.754
75212W        W76077  25.102  24.687  21.031
75213W        W76078  24.202  22.637  21.408
75214W        W76079  22.046  23.108  21.185
75215W        W76080  23.806  23.585  20.911
75216W        W76081  22.163  24.343  19.568
75217W        W76082  22.310  23.640  20.458
75218W        W76083  24.627  23.926  20.808
75219W        W76084  24.399  25.306  21.619
75220W        W76085  24.295  23.045  21.172
75221W        W76086  24.572  25.099  19.577
75222W        W76087  23.574  24.819  20.900
75223W        W76088  23.059  25.174  20.169
75224W        W76089  24.864  24.345  20.588
75225W        W76090  23.914  24.417  21.725
75226W        W76091  22.519  24.370  20.064
75227W        W76092  24.865  24.129  19.709
75228W        W76093  24.506  25.195  20.460
75229W        W76094  22.484  24.924  20.330
75230W        W76095  23.505  22.976  21.540
75231W        W76096  23.956  25.142  19.051
75232W        W76097  23.264  24.397  21.689
75233W        W76098  23.390  24.635  19.066
75234W        W76099  22.611  23.375  18.325
75235W        W76100  21.950  25.461  25.225
75236W        W76101  22.326  24.354  24.748
75237W        W76102  25.031  24.084  22.518
75238W        W76103  25.161  25.169  24.545
75239W        W76104  23.079  25.160  22.071
75240W        W76105  23.162  23.312  23.054
75241W        W76106  22.677  23.160  23.218
75242W        W76107  23.668  23.975  22.652
75243W        W76108  23.343  25.067  25.007
75244W        W76109  21.992  22.628  24.970
75245W        W76110  22.754  21.908  24.772
75246W        W76111  24.448  22.296  23.659
75247W        W76112  24.097  23.167  22.229
75248W        W76113  24.667  22.601  25.320
75249W        W76114  22.033  22.393  24.445
75250W        W76115  22.132  25.012  25.466
75251W        W76116  23.654  24.402  22.198
75252W        W76117  22.086  23.185  23.891
75253W        W76118  22.979  23.076  25.128
75254W        W76119  25.438  22.935  23.627
75255W        W76120  25.202  23.978  24.486
75256W        W76121  23.510  23.311  23.513
75257W        W76122  24.056  24.650  23.882
75258W        W76123  22.556  24.084  24.114
75259W        W76124  21.915  23.612  23.685
75260W        W76125  22.951  23.584  24.877
75261W        W76126  25.222  23.367  25.131
75262W        W76127  22.838  24.811  23.576
75263W        W76128  23.959  24.500  24.710
75264W        W76129  23.179  23.140  23.935
75265W        W76130  23.471  23.924  23.578
75266W        W76131  24.468  24.697  25.426
75267W        W76132  23.547  24.017  25.436
75268W        W76133  23.528  23.733  24.914
75269W        W76134  21.937  23.124  25.436
75270W        W76135  24.769  24.659  25.035
75271W        W76136  22.350  22.241  23.033
75272W        W76137  22.877  24.499  24.032
75273W        W76138  25.340  24.282  23.322
75274W        W76139  24.753  22.682  23.889
75275W        W76140  25.038  22.635  21.984
75276W        W76141  25.503  23.436  24.290
75277W        W76142  23.470  25.143  24.043
75278W        W76143  25.244  24.609  22.481
75279W        W76144  22.373  25.395  22.235
75280W        W76145  22.766  25.441  22.911
75281W        W76146  22.563  22.195  24.337
75282W        W76147  25.186  23.213  24.612
75283W        W76148  24.591  23.635  23.071
75284W        W76149  24.557  23.323  22.098
75285W        W76150  23.765  24.467  24.238
75286W        W76151  23.571  22.797  23.437
75287W        W76152  24.171  24.884  24.431
75288W        W76153  25.042  23.675  22.853
75289W        W76154  23.944  22.333  22.869
75290W        W76155  22.601  25.027  22.552
75291W        W76156  21.972  22.526  23.151
75292W        W76157  24.758  23.133  23.625
75293W        W76158  22.216  24.750  23.540
75294W        W76159  23.557  25.100  22.410
75295W        W76160  24.949  23.126  21.874
75296W        W76161  21.972  24.884  24.038
75297W        W76162  22.763  24.456  24.518
75298W        W76163  23.136  23.816  23.137
75299W        W76164  23.158  22.221  24.230
75300W        W76165  25.387  21.983  23.527
75301W        W76166  22.606  23.855  21.995
75302W        W76167  22.261  22.888  22.174
75303W        W76168  22.323  24.844  22.968
75304W        W76169  23.454  24.327  23.216
75305W        W76170  24.786  25.186  24.930
75306W        W76171  23.712  22.828  22.614
75307W        W76172  25.095  25.226  23.386
75308W        W76173  24.772  23.079  24.984
75309W        W76174  25.485  24.735  23.118
75310W        W76175  24.112  24.027  24.602
75311W        W76176  21.878  23.578  22.808
75312W        W76177  22.989  23.993  24.381
75313W        W76178  24.193  23.257  22.759
75314W        W76179  24.070  23.747  22.863
75315W        W76180  22.413  23.167  24.337
75316W        W76181  22.398  23.043  25.259
75317W        W76182  22.288  21.960  23.418
75318W        W76183  24.056  22.307  23.979
75319W        W76184  23.704  22.492  25.142
75320W        W76185  24.059  22.641  22.320
75321W        W76186  25.242  25.034  25.074
75322W        W76187  24.209  22.115  25.113
75323W        W76188  25.228  24.416  25.235
75324W        W76189  24.658  22.583  24.831
75325W        W76190  24.458  22.521  23.101
75326W        W76191  24.851  23.655  25.505
75327W        W76192  22.591  25.231  23.491
75328W        W76193  23.249  22.948  22.477
75329W        W76194  22.818  22.232  25.141
75330W        W76195  24.870  22.716  22.822
75331W        W76196  25.237  23.198  22.767
75332W        W76197  22.980  25.415  25.238
75333W        W76198  22.906  21.951  22.473
75334W        W76199  25.227  22.485  23.508
75335W        W76200  25.377  24.734  21.953
75336W        W76201  22.284  23.937  23.655
75337W        W76202  24.201  22.524  21.885
75338W        W76203  25.335  24.856  23.605
75339W        W76204  25.374  22.050  24.355
75340W        W76205  23.819  23.262  24.909
75341W        W76206  23.912  24.601  22.612
75342W        W76207  24.312  23.895  25.352
75343W        W76208  23.986  21.872  23.661
75344W        W76209  22.598  22.775  23.724
75345W        W76210  22.152  23.975  24.498
75346W        W76211  24.011  25.168  23.204
75347W        W76212  25.205  22.765  24.076
75348W        W76213  23.842  25.112  24.843
75349W        W76214  25.185  24.171  22.048
75350W        W76215  23.620  23.654  23.109
75351W        W76216  25.472  22.165  24.850
75352W        W76217  23.621  24.000  24.444
75353W        W76218  23.838  22.886  23.889
75354W        W76219  24.690  23.184  22.727
75355W        W76220  24.977  22.917  22.369
75356W        W76221  24.786  24.957  22.758
75357W        W76222  24.620  24.560  23.554
75358W        W76223  24.516  23.639  22.532
75359W        W76224  23.949  23.849  23.518
75360W        W76225  24.830  23.637  23.585
75361W        W76226  22.205  22.652  24.009
75362W        W76227  24.983  23.704  24.836
75363W        W76228  25.334  25.322  23.982
75364W        W76229  23.264  24.766  23.384
75365W        W76230  24.271  25.299  24.708
75366W        W76231  24.265  22.629  24.472
75367W        W76232  23.472  25.337  24.533
75368W        W76233  25.169  22.291  22.999
75369W        W76234  24.960  23.610  24.300
75370W        W76235  21.943  22.931  24.338
75371W        W76236  24.803  22.726  23.356
75372W        W76237  25.214  22.877  25.133
75373W        W76238  24.099  24.576  23.351
75374W        W76239  23.355  25.167  22.964
75375W        W76240  22.470  22.347  22.222
75376W        W76241  23.574  22.001  24.032
75377W        W76242  22.602  25.121  21.880
75378W        W76243  22.976  23.587  22.631
75379W        W76244  23.630  24.216  24.944
75380W        W76245  23.460  22.574  22.934
75381W        W76246  24.816  22.171  23.362
75382W        W76247  24.536  25.453  23.690
75383W        W76248  23.948  25.101  24.030
75384W        W76249  23.344  24.138  23.991
75385W        W76250  25.114  24.861  24.117
75386W        W76251  22.808  22.364  22.886
75387W        W76252  23.330  24.661  23.846
75388W        W76253  22.813  22.592  21.911
75389W        W76254  23.614  23.201  24.305
75390W        W76255  24.462  22.067  24.175
75391W        W76256  21.882  23.910  24.060
75392W        W76257  23.586  23.728  22.218
75393W        W76258  22.854  22.043  21.988
75394W        W76259  23.592  23.124  23.039
75395W        W76260  24.562  22.100  24.738
75396W        W76261  23.150  24.112  24.847
75397W        W76262  23.954  23.894  25.064
75398W        W76263  24.571  23.924  24.957
75399W        W76264  23.855  22.064  25.462
75400W        W76265  23.077  22.680  23.855
75401W        W76266  22.503  22.636  23.253
75402W        W76267  22.289  25.348  22.929
75403W        W76268  23.621  24.678  25.054
75404W        W76269  22.656  24.163  22.413
75405W        W76270  24.336  23.548  23.634
75406W        W76271  24.616  23.347  24.033
75407W        W76272  23.821  24.021  23.967
75408W        W76273  24.291  24.395  22.099
75409W        W76274  23.963  22.416  23.427
75410W        W76275  25.442  22.694  22.695
75411W        W76276  21.936  25.283  24.726
75412W        W76277  22.353  24.509  24.258
75413W        W76278  21.920  25.355  22.490
75414W        W76279  23.819  22.625  24.296
75415W        W76280  23.182  24.648  22.145
75416W        W76281  25.087  25.030  22.331
75417W        W76282  24.062  23.683  22.345
75418W        W76283  22.905  22.874  22.862
75419W        W76284  23.737  22.784  21.914
75420W        W76285  24.321  24.349  25.092
75421W        W76286  24.674  22.255  22.709
75422W        W76287  22.004  22.103  22.157
75423W        W76288  23.290  24.422  24.447
75424W        W76289  23.089  24.338  23.539
75425W        W76290  22.831  24.290  21.937
75426W        W76291  22.072  24.531  22.705
75427W        W76292  22.576  23.601  25.147
75428W        W76293  23.280  22.161  25.333
75429W        W76294  23.989  22.303  24.689
75430W        W76295  23.184  22.071  22.970
75431W        W76296  24.243  22.148  22.475
75432W        W76297  22.188  22.080  24.052
75433W        W76298  22.236  23.043  23.422
75434W        W76299  24.925  22.151  23.828
75435W        W76300  22.347  22.649  22.642
75436W        W76301  24.918  22.337  24.258
75437W        W76302  25.314  23.540  21.943
75438W        W76303  22.606  22.298  23.762
75439W        W76304  23.720  22.870  24.702
75440W        W76305  21.868  22.560  22.180
75441W        W76306  22.654  23.949  24.741
75442W        W76307  24.012  23.347  23.920
75443W        W76308  23.879  25.426  22.216
75444W        W76309  22.025  23.933  21.913
75445W        W76310  22.760  24.344  25.039
75446W        W76311  22.281  23.511  24.670
75447W        W76312  23.272  23.616  24.464
75448W        W76313  25.040  21.975  24.726
75449W        W76314  25.438  23.585  24.717
75450W        W76315  25.426  23.785  22.403
75451W        W76316  24.289  24.117  22.502
75452W        W76317  24.763  25.417  22.197
75453W        W76318  23.940  23.407  25.339
75454W        W76319  22.270  24.374  25.379
75455W        W76320  25.476  22.296  25.331
75456W        W76321  25.194  23.224  23.952
75457W        W76322  23.502  25.354  25.429
75458W        W76323  23.357  21.983  22.156
75459W        W76324  24.896  24.582  22.099
75460W        W76325  22.665  22.675  24.985
75461W        W76326  23.099  24.669  24.847
75462W        W76327  25.225  22.660  24.645
75463W        W76328  24.436  25.319  22.613
75464W        W76329  24.675  23.938  23.980
75465W        W76330  22.925  22.354  24.647
75466W        W76331  23.394  23.423  25.404
75467W        W76332  22.897  24.602  22.598
75468W        W76333  24.652  24.100  22.862
75469W        W76334  22.420  22.726  24.586
75470W        W76335  23.749  24.788  23.050
75471W        W76336  25.499  23.348  23.231
75472W        W76337  23.721  21.981  24.950
75473W        W76338  24.501  24.686  24.029
75474W        W76339  24.804  25.030  23.737
75475W        W76340  24.023  24.832  22.165
75476W        W76341  22.033  24.724  25.007
75477W        W76342  22.776  22.716  24.245
75478W        W76343  22.746  22.064  23.355
75479W        W76344  24.367  22.906  24.047
75480W        W76345  23.165  24.077  22.247
75481W        W76346  25.163  24.019  23.746
75482W        W76347  22.490  24.777  25.169
75483W        W76348  24.877  25.459  22.966
75484W        W76349  22.976  22.479  23.411
75485W        W76350  22.745  23.972  23.501
75486W        W76351  23.058  25.383  24.251
75487W        W76352  25.125  25.479  25.283
75488W        W76353  24.284  23.667  24.216
75489W        W76354  22.133  23.465  22.131
75490W        W76355  25.267  25.123  22.828
75491W        W76356  25.104  22.447  22.447
75492W        W76357  23.243  21.966  24.850
75493W        W76358  24.949  24.768  23.308
75494W        W76359  24.978  23.324  23.213
75495W        W76360  23.095  22.997  23.429
75496W        W76361  23.340  23.259  24.753
75497W        W76362  24.451  24.412  24.616
75498W        W76363  23.101  22.866  24.728
75499W        W76364  23.080  25.332  23.344
75500W        W76365  22.397  25.291  24.978
75501W        W76366  22.509  24.652  22.108
75502W        W76367  25.026  24.410  22.918
75503W        W76368  22.630  23.202  24.804
75504W        W76369  25.403  23.132  22.285
75505W        W76370  23.148  24.189  22.756
75506W        W76371  24.247  23.571  24.837
75507W        W76372  24.138  23.199  24.381
75508W        W76373  22.698  23.571  24.410
75509W        W76374  24.908  25.459  24.239
75510W        W76375  24.699  22.093  25.233
75511W        W76376  22.363  22.243  24.820
75512W        W76377  22.702  23.266  23.873
75513W        W76378  23.071  23.080  21.995
75514W        W76379  21.874  24.839  24.540
75515W        W76380  23.459  23.548  23.983
75516W        W76381  23.282  22.573  22.088
75517W        W76382  22.417  23.389  22.869
75518W        W76383  22.188  25.241  24.306
75519W        W76384  24.983  23.467  22.414
75520W        W76385  25.078  22.383  25.100
75521W        W76386  24.514  24.592  23.063
75522W        W76387  22.112  23.516  25.240
75523W        W76388  25.078  21.980  22.536
75524W        W76389  24.598  24.455  22.547
75525W        W76390  23.500  23.513  22.632
75526W        W76391  24.687  22.317  22.155
75527W        W76392  24.752  22.924  24.341
75528W        W76393  22.461  23.517  23.548
75529W        W76394  22.755  24.456  23.197
75530W        W76395  24.518  23.076  23.162
75531W        W76396  23.541  22.455  23.858
75532W        W76397  25.503  24.366  24.369
75533W        W76398  25.421  22.353  23.930
75534W        W76399  21.960  25.183  23.306
75535W        W76400  22.469  24.370  22.842
75536W        W76401  22.384  21.987  25.395
75537W        W76402  23.503  24.840  25.497
75538W        W76403  25.258  23.808  23.287
75539W        W76404  24.612  23.985  22.167
75540W        W76405  23.907  25.506  24.379
75541W        W76406  24.764  24.228  25.416
75542W        W76407  23.579  21.938  22.696
75543W        W76408  24.292  22.807  23.555
75544W        W76409  21.978  24.394  23.887
75545W        W76410  23.231  22.356  22.528
75546W        W76411  23.035  23.840  25.377
75547W        W76412  24.029  22.821  23.091
75548W        W76413  24.234  24.231  24.213
75549W        W76414  22.388  24.836  24.648
75550W        W76415  22.979  24.819  25.371
75551W        W76416  22.830  22.616  22.385
75552W        W76417  24.347  22.758  22.710
75553W        W76418  24.305  24.866  24.947
75554W        W76419  22.990  23.458  23.546
75555W        W76420  22.645  25.156  24.411
75556W        W76421  25.390  25.273  22.012
75557W        W76422  22.253  23.945  25.008
75558W        W76423  24.248  24.207  23.696
75559W        W76424  22.684  23.856  22.938
75560W        W76425  23.055  24.863  24.333
75561W        W76426  23.433  22.282  23.374
75562W        W76427  22.044  24.266  22.304
75563W        W76428  23.563  23.217  22.174
75564W        W76429  22.209  23.766  23.193
75565W        W76430  23.499  22.408  24.657
75566W        W76431  25.171  22.117  22.084
75567W        W76432  25.264  23.863  25.183
75568W        W76433  23.918  25.120  25.335
75569W        W76434  25.476  24.214  24.857
75570W        W76435  24.884  25.012  25.468
75571W        W76436  22.623  25.468  23.946
75572W        W76437  25.482  24.090  22.820
75573W        W76438  24.012  23.357  23.333
75574W        W76439  23.779  21.969  23.223
75575W        W76440  22.838  24.953  23.060
75576W        W76441  23.337  22.694  24.285
75577W        W76442  23.037  22.063  23.754
75578W        W76443  22.100  24.885  22.302
75579W        W76444  23.916  24.249  23.020
75580W        W76445  22.791  25.044  24.899
75581W        W76446  22.268  23.867  22.595
75582W        W76447  22.153  22.410  23.594
75583W        W76448  23.701  24.375  23.651
75584W        W76449  21.953  22.229  22.671
75585W        W76450  24.617  23.435  24.598
75586W        W76451  24.494  22.821  22.170
75587W        W76452  25.011  24.493  23.818
75588W        W76453  23.672  24.977  23.649
75589W        W76454  23.084  25.081  22.560
75590W        W76455  24.366  21.984  21.990
75591W        W76456  22.166  25.244  23.731
75592W        W76457  24.363  23.002  25.366
75593W        W76458  22.346  22.532  25.365
75594W        W76459  22.077  23.132  22.698
75595W        W76460  22.768  23.121  22.423
75596W        W76461  24.531  23.448  25.240
75597W        W76462  22.874  23.729  23.949
75598W        W76463  24.348  22.015  23.069
75599W        W76464  23.479  25.446  23.572
75600W        W76465  24.693  24.908  24.509
75601W        W76466  24.277  25.057  23.620
75602W        W76467  24.296  24.037  23.214
75603W        W76468  23.758  22.262  22.285
75604W        W76469  25.439  21.890  23.007
75605W        W76470  23.127  23.525  22.170
75606W        W76471  25.293  22.862  23.160
75607W        W76472  23.985  24.032  22.037
75608W        W76473  24.921  24.232  24.785
75609W        W76474  24.575  24.933  22.252
75610W        W76475  23.190  22.608  25.158
75611W        W76476  23.010  23.192  24.399
75612W        W76477  25.102  24.687  24.676
75613W        W76478  24.202  22.637  25.053
75614W        W76479  22.046  23.108  24.830
75615W        W76480  23.806  23.585  24.556
75616W        W76481  22.163  24.343  23.213
75617W        W76482  22.310  23.640  24.103
75618W        W76483  24.627  23.926  24.453
75619W        W76484  24.399  25.306  25.264
75620W        W76485  24.295  23.045  24.817
75621W        W76486  24.572  25.099  23.222
75622W        W76487  23.574  24.819  24.545
75623W        W76488  23.059  25.174  23.814
75624W        W76489  24.864  24.345  24.233
75625W        W76490  23.914  24.417  25.370
75626W        W76491  22.519  24.370  23.709
75627W        W76492  24.865  24.129  23.354
75628W        W76493  24.506  25.195  24.105
75629W        W76494  22.484  24.924  23.975
75630W        W76495  23.505  22.976  25.185
75631W        W76496  23.956  25.142  22.696
75632W        W76497  23.264  24.397  25.334
75633W        W76498  23.390  24.635  22.711
75634W        W76499  22.611  23.375  21.970
75635W        W76500  21.950  25.461  28.869
75636W        W76501  22.326  24.354  28.392
75637W        W76502  25.031  24.084  26.162
75638W        W76503  25.161  25.169  28.189
75639W        W76504  23.079  25.160  25.715
75640W        W76505  23.162  23.312  26.698
75641W        W76506  22.677  23.160  26.862
75642W        W76507  23.668  23.975  26.296
75643W        W76508  23.343  25.067  28.651
75644W        W76509  21.992  22.628  28.614
75645W        W76510  22.754  21.908  28.416
75646W        W76511  24.448  22.296  27.303
75647W        W76512  24.097  23.167  25.873
75648W        W76513  24.667  22.601  28.964
75649W        W76514  22.033  22.393  28.089
75650W        W76515  22.132  25.012  29.110
75651W        W76516  23.654  24.402  25.842
75652W        W76517  22.086  23.185  27.535
75653W        W76518  22.979  23.076  28.772
75654W        W76519  25.438  22.935  27.271
75655W        W76520  25.202  23.978  28.130
75656W        W76521  23.510  23.311  27.157
75657W        W76522  24.056  24.650  27.526
75658W        W76523  22.556  24.084  27.758
75659W        W76524  21.915  23.612  27.329
75660W        W76525  22.951  23.584  28.521
75661W        W76526  25.222  23.367  28.775
75662W        W76527  22.838  24.811  27.220
75663W        W76528  23.959  24.500  28.354
75664W        W76529  23.179  23.140  27.579
75665W        W76530  23.471  23.924  27.222
75666W        W76531  24.468  24.697  29.070
75667W        W76532  23.547  24.017  29.080
75668W        W76533  23.528  23.733  28.558
75669W        W76534  21.937  23.124  29.080
75670W        W76535  24.769  24.659  28.679
75671W        W76536  22.350  22.241  26.677
75672W        W76537  22.877  24.499  27.676
75673W        W76538  25.340  24.282  26.966
75674W        W76539  24.753  22.682  27.533
75675W        W76540  25.038  22.635  25.628
75676W        W76541  25.503  23.436  27.934
75677W        W76542  23.470  25.143  27.687
75678W        W76543  25.244  24.609  26.125
75679W        W76544  22.373  25.395  25.879
75680W        W76545  22.766  25.441  26.555
75681W        W76546  22.563  22.195  27.981
75682W        W76547  25.186  23.213  28.256
75683W        W76548  24.591  23.635  26.715
75684W        W76549  24.557  23.323  25.742
75685W        W76550  23.765  24.467  27.882
75686W        W76551  23.571  22.797  27.081
75687W        W76552  24.171  24.884  28.075
75688W        W76553  25.042  23.675  26.497
75689W        W76554  23.944  22.333  26.513
75690W        W76555  22.601  25.027  26.196
75691W        W76556  21.972  22.526  26.795
75692W        W76557  24.758  23.133  27.269
75693W        W76558  22.216  24.750  27.184
75694W        W76559  23.557  25.100  26.054
75695W        W76560  24.949  23.126  25.518
75696W        W76561  21.972  24.884  27.682
75697W        W76562  22.763  24.456  28.162
75698W        W76563  23.136  23.816  26.781
75699W        W76564  23.158  22.221  27.874
75700W        W76565  25.387  21.983  27.171
75701W        W76566  22.606  23.855  25.639
75702W        W76567  22.261  22.888  25.818
75703W        W76568  22.323  24.844  26.612
75704W        W76569  23.454  24.327  26.860
75705W        W76570  24.786  25.186  28.574
75706W        W76571  23.712  22.828  26.258
75707W        W76572  25.095  25.226  27.030
75708W        W76573  24.772  23.079  28.628
75709W        W76574  25.485  24.735  26.762
75710W        W76575  24.112  24.027  28.246
75711W        W76576  21.878  23.578  26.452
75712W        W76577  22.989  23.993  28.025
75713W        W76578  24.193  23.257  26.403
75714W        W76579  24.070  23.747  26.507
75715W        W76580  22.413  23.167  27.981
75716W        W76581  22.398  23.043  28.903
75717W        W76582  22.288  21.960  27.062
75718W        W76583  24.056  22.307  27.623
75719W        W76584  23.704  22.492  28.786
75720W        W76585  24.059  22.641  25.964
75721W        W76586  25.242  25.034  28.718
75722W        W76587  24.209  22.115  28.757
75723W        W76588  25.228  24.416  28.879
75724W        W76589  24.658  22.583  28.475
75725W        W76590  24.458  22.521  26.745
75726W        W76591  24.851  23.655  29.149
75727W        W76592  22.591  25.231  27.135
75728W        W76593  23.249  22.948  26.121
75729W        W76594  22.818  22.232  28.785
75730W        W76595  24.870  22.716  26.466
75731W        W76596  25.237  23.198  26.411
75732W        W76597  22.980  25.415  28.882
75733W        W76598  22.906  21.951  26.117
75734W        W76599  25.227  22.485  27.152
75735W        W76600  25.377  24.734  25.597
75736W        W76601  22.284  23.937  27.299
75737W        W76602  24.201  22.524  25.529
75738W        W76603  25.335  24.856  27.249
75739W        W76604  25.374  22.050  27.999
75740W        W76605  23.819  23.262  28.553
75741W        W76606  23.912  24.601  26.256
75742W        W76607  24.312  23.895  28.996
75743W        W76608  23.986  21.872  27.305
75744W        W76609  22.598  22.775  27.368
75745W        W76610  22.152  23.975  28.142
75746W        W76611  24.011  25.168  26.848
75747W        W76612  25.205  22.765  27.720
75748W        W76613  23.842  25.112  28.487
75749W        W76614  25.185  24.171  25.692
75750W        W76615  23.620  23.654  26.753
75751W        W76616  25.472  22.165  28.494
75752W        W76617  23.621  24.000  28.088
75753W        W76618  23.838  22.886  27.533
75754W        W76619  24.690  23.184  26.371
75755W        W76620  24.977  22.917  26.013
75756W        W76621  24.786  24.957  26.402
75757W        W76622  24.620  24.560  27.198
75758W        W76623  24.516  23.639  26.176
75759W        W76624  23.949  23.849  27.162
75760W        W76625  24.830  23.637  27.229
75761W        W76626  22.205  22.652  27.653
75762W        W76627  24.983  23.704  28.480
75763W        W76628  25.334  25.322  27.626
75764W        W76629  23.264  24.766  27.028
75765W        W76630  24.271  25.299  28.352
75766W        W76631  24.265  22.629  28.116
75767W        W76632  23.472  25.337  28.177
75768W        W76633  25.169  22.291  26.643
75769W        W76634  24.960  23.610  27.944
75770W        W76635  21.943  22.931  27.982
75771W        W76636  24.803  22.726  27.000
75772W        W76637  25.214  22.877  28.777
75773W        W76638  24.099  24.576  26.995
75774W        W76639  23.355  25.167  26.608
75775W        W76640  22.470  22.347  25.866
75776W        W76641  23.574  22.001  27.676
75777W        W76642  22.602  25.121  25.524
75778W        W76643  22.976  23.587  26.275
75779W        W76644  23.630  24.216  28.588
75780W        W76645  23.460  22.574  26.578
75781W        W76646  24.816  22.171  27.006
75782W        W76647  24.536  25.453  27.334
75783W        W76648  23.948  25.101  27.674
75784W        W76649  23.344  24.138  27.635
75785W        W76650  25.114  24.861  27.761
75786W        W76651  22.808  22.364  26.530
75787W        W76652  23.330  24.661  27.490
75788W        W76653  22.813  22.592  25.555
75789W        W76654  23.614  23.201  27.949
75790W        W76655  24.462  22.067  27.819
75791W        W76656  21.882  23.910  27.704
75792W        W76657  23.586  23.728  25.862
75793W        W76658  22.854  22.043  25.632
75794W        W76659  23.592  23.124  26.683
75795W        W76660  24.562  22.100  28.382
75796W        W76661  23.150  24.112  28.491
75797W        W76662  23.954  23.894  28.708
75798W        W76663  24.571  23.924  28.601
75799W        W76664  23.855  22.064  29.106
75800W        W76665  23.077  22.680  27.499
75801W        W76666  22.503  22.636  26.897
75802W        W76667  22.289  25.348  26.573
75803W        W76668  23.621  24.678  28.698
75804W        W76669  22.656  24.163  26.057
75805W        W76670  24.336  23.548  27.278
75806W        W76671  24.616  23.347  27.677
75807W        W76672  23.821  24.021  27.611
75808W        W76673  24.291  24.395  25.743
75809W        W76674  23.963  22.416  27.071
75810W        W76675  25.442  22.694  26.339
75811W        W76676  21.936  25.283  28.370
75812W        W76677  22.353  24.509  27.902
75813W        W76678  21.920  25.355  26.134
75814W        W76679  23.819  22.625  27.940
75815W        W76680  23.182  24.648  25.789
75816W        W76681  25.087  25.030  25.975
75817W        W76682  24.062  23.683  25.989
75818W        W76683  22.905  22.874  26.506
75819W        W76684  23.737  22.784  25.558
75820W        W76685  24.321  24.349  28.736
75821W        W76686  24.674  22.255  26.353
75822W        W76687  22.004  22.103  25.801
75823W        W76688  23.290  24.422  28.091
75824W        W76689  23.089  24.338  27.183
75825W        W76690  22.831  24.290  25.581
75826W        W76691  22.072  24.531  26.349
75827W        W76692  22.576  23.601  28.791
75828W        W76693  23.280  22.161  28.977
75829W        W76694  23.989  22.303  28.333
75830W        W76695  23.184  22.071  26.614
75831W        W76696  24.243  22.148  26.119
75832W        W76697  22.188  22.080  27.696
75833W        W76698  22.236  23.043  27.066
75834W        W76699  24.925  22.151  27.472
75835W        W76700  22.347  22.649  26.286
75836W        W76701  24.918  22.337  27.902
75837W        W76702  25.314  23.540  25.587
75838W        W76703  22.606  22.298  27.406
75839W        W76704  23.720  22.870  28.346
75840W        W76705  21.868  22.560  25.824
75841W        W76706  22.654  23.949  28.385
75842W        W76707  24.012  23.347  27.564
75843W        W76708  23.879  25.426  25.860
75844W        W76709  22.025  23.933  25.557
75845W        W76710  22.760  24.344  28.683
75846W        W76711  22.281  23.511  28.314
75847W        W76712  23.272  23.616  28.108
75848W        W76713  25.040  21.975  28.370
75849W        W76714  25.438  23.585  28.361
75850W        W76715  25.426  23.785  26.047
75851W        W76716  24.289  24.117  26.146
75852W        W76717  24.763  25.417  25.841
75853W        W76718  23.940  23.407  28.983
75854W        W76719  22.270  24.374  29.023
75855W        W76720  25.476  22.296  28.975
75856W        W76721  25.194  23.224  27.596
75857W        W76722  23.502  25.354  29.073
75858W        W76723  23.357  21.983  25.800
75859W        W76724  24.896  24.582  25.743
75860W        W76725  22.665  22.675  28.629
75861W        W76726  23.099  24.669  28.491
75862W        W76727  25.225  22.660  28.289
75863W        W76728  24.436  25.319  26.257
75864W        W76729  24.675  23.938  27.624
75865W        W76730  22.925  22.354  28.291
75866W        W76731  23.394  23.423  29.048
75867W        W76732  22.897  24.602  26.242
75868W        W76733  24.652  24.100  26.506
75869W        W76734  22.420  22.726  28.230
75870W        W76735  23.749  24.788  26.694
75871W        W76736  25.499  23.348  26.875
75872W        W76737  23.721  21.981  28.594
75873W        W76738  24.501  24.686  27.673
75874W        W76739  24.804  25.030  27.381
75875W        W76740  24.023  24.832  25.809
75876W        W76741  22.033  24.724  28.651
75877W        W76742  22.776  22.716  27.889
75878W        W76743  22.746  22.064  26.999
75879W        W76744  24.367  22.906  27.691
75880W        W76745  23.165  24.077  25.891
75881W        W76746  25.163  24.019  27.390
75882W        W76747  22.490  24.777  28.813
75883W        W76748  24.877  25.459  26.610
75884W        W76749  22.976  22.479  27.055
75885W        W76750  22.745  23.972  27.145
75886W        W76751  23.058  25.383  27.895
75887W        W76752  25.125  25.479  28.927
75888W        W76753  24.284  23.667  27.860
75889W        W76754  22.133  23.465  25.775
75890W        W76755  25.267  25.123  26.472
75891W        W76756  25.104  22.447  26.091
75892W        W76757  23.243  21.966  28.494
75893W        W76758  24.949  24.768  26.952
75894W        W76759  24.978  23.324  26.857
75895W        W76760  23.095  22.997  27.073
75896W        W76761  23.340  23.259  28.397
75897W        W76762  24.451  24.412  28.260
75898W        W76763  23.101  22.866  28.372
75899W        W76764  23.080  25.332  26.988
75900W        W76765  22.397  25.291  28.622
75901W        W76766  22.509  24.652  25.752
75902W        W76767  25.026  24.410  26.562
75903W        W76768  22.630  23.202  28.448
75904W        W76769  25.403  23.132  25.929
75905W        W76770  23.148  24.189  26.400
75906W        W76771  24.247  23.571  28.481
75907W        W76772  24.138  23.199  28.025
75908W        W76773  22.698  23.571  28.054
75909W        W76774  24.908  25.459  27.883
75910W        W76775  24.699  22.093  28.877
75911W        W76776  22.363  22.243  28.464
75912W        W76777  22.702  23.266  27.517
75913W        W76778  23.071  23.080  25.639
75914W        W76779  21.874  24.839  28.184
75915W        W76780  23.459  23.548  27.627
75916W        W76781  23.282  22.573  25.732
75917W        W76782  22.417  23.389  26.513
75918W        W76783  22.188  25.241  27.950
75919W        W76784  24.983  23.467  26.058
75920W        W76785  25.078  22.383  28.744
75921W        W76786  24.514  24.592  26.707
75922W        W76787  22.112  23.516  28.884
75923W        W76788  25.078  21.980  26.180
75924W        W76789  24.598  24.455  26.191
75925W        W76790  23.500  23.513  26.276
75926W        W76791  24.687  22.317  25.799
75927W        W76792  24.752  22.924  27.985
75928W        W76793  22.461  23.517  27.192
75929W        W76794  22.755  24.456  26.841
75930W        W76795  24.518  23.076  26.806
75931W        W76796  23.541  22.455  27.502
75932W        W76797  25.503  24.366  28.013
75933W        W76798  25.421  22.353  27.574
75934W        W76799  21.960  25.183  26.950
75935W        W76800  22.469  24.370  26.486
75936W        W76801  22.384  21.987  29.039
75937W        W76802  23.503  24.840  29.141
75938W        W76803  25.258  23.808  26.931
75939W        W76804  24.612  23.985  25.811
75940W        W76805  23.907  25.506  28.023
75941W        W76806  24.764  24.228  29.060
75942W        W76807  23.579  21.938  26.340
75943W        W76808  24.292  22.807  27.199
75944W        W76809  21.978  24.394  27.531
75945W        W76810  23.231  22.356  26.172
75946W        W76811  23.035  23.840  29.021
75947W        W76812  24.029  22.821  26.735
75948W        W76813  24.234  24.231  27.857
75949W        W76814  22.388  24.836  28.292
75950W        W76815  22.979  24.819  29.015
75951W        W76816  22.830  22.616  26.029
75952W        W76817  24.347  22.758  26.354
75953W        W76818  24.305  24.866  28.591
75954W        W76819  22.990  23.458  27.190
75955W        W76820  22.645  25.156  28.055
75956W        W76821  25.390  25.273  25.656
75957W        W76822  22.253  23.945  28.652
75958W        W76823  24.248  24.207  27.340
75959W        W76824  22.684  23.856  26.582
75960W        W76825  23.055  24.863  27.977
75961W        W76826  23.433  22.282  27.018
75962W        W76827  22.044  24.266  25.948
75963W        W76828  23.563  23.217  25.818
75964W        W76829  22.209  23.766  26.837
75965W        W76830  23.499  22.408  28.301
75966W        W76831  25.171  22.117  25.728
75967W        W76832  25.264  23.863  28.827
75968W        W76833  23.918  25.120  28.979
75969W        W76834  25.476  24.214  28.501
75970W        W76835  24.884  25.012  29.112
75971W        W76836  22.623  25.468  27.590
75972W        W76837  25.482  24.090  26.464
75973W        W76838  24.012  23.357  26.977
75974W        W76839  23.779  21.969  26.867
75975W        W76840  22.838  24.953  26.704
75976W        W76841  23.337  22.694  27.929
75977W        W76842  23.037  22.063  27.398
75978W        W76843  22.100  24.885  25.946
75979W        W76844  23.916  24.249  26.664
75980W        W76845  22.791  25.044  28.543
75981W        W76846  22.268  23.867  26.239
75982W        W76847  22.153  22.410  27.238
75983W        W76848  23.701  24.375  27.295
75984W        W76849  21.953  22.229  26.315
75985W        W76850  24.617  23.435  28.242
75986W        W76851  24.494  22.821  25.814
75987W        W76852  25.011  24.493  27.462
75988W        W76853  23.672  24.977  27.293
75989W        W76854  23.084  25.081  26.204
75990W        W76855  24.366  21.984  25.634
75991W        W76856  22.166  25.244  27.375
75992W        W76857  24.363  23.002  29.010
75993W        W76858  22.346  22.532  29.009
75994W        W76859  22.077  23.132  26.342
75995W        W76860  22.768  23.121  26.067
75996W        W76861  24.531  23.448  28.884
75997W        W76862  22.874  23.729  27.593
75998W        W76863  24.348  22.015  26.713
75999W        W76864  23.479  25.446  27.216
76000W        W76865  24.693  24.908  28.153
76001W        W76866  24.277  25.057  27.264
76002W        W76867  24.296  24.037  26.858
76003W        W76868  23.758  22.262  25.929
76004W        W76869  25.439  21.890  26.651
76005W        W76870  23.127  23.525  25.814
76006W        W76871  25.293  22.862  26.804
76007W        W76872  23.985  24.032  25.681
76008W        W76873  24.921  24.232  28.429
76009W        W76874  24.575  24.933  25.896
76010W        W76875  23.190  22.608  28.802
76011W        W76876  23.010  23.192  28.043
76012W        W76877  25.102  24.687  28.320
76013W        W76878  24.202  22.637  28.697
76014W        W76879  22.046  23.108  28.474
76015W        W76880  23.806  23.585  28.200
76016W        W76881  22.163  24.343  26.857
76017W        W76882  22.310  23.640  27.747
76018W        W76883  24.627  23.926  28.097
76019W        W76884  24.399  25.306  28.908
76020W        W76885  24.295  23.045  28.461
76021W        W76886  24.572  25.099  26.866
76022W        W76887  23.574  24.819  28.189
76023W        W76888  23.059  25.174  27.458
76024W        W76889  24.864  24.345  27.877
76025W        W76890  23.914  24.417  29.014
76026W        W76891  22.519  24.370  27.353
76027W        W76892  24.865  24.129  26.998
76028W        W76893  24.506  25.195  27.749
76029W        W76894  22.484  24.924  27.619
76030W        W76895  23.505  22.976  28.829
76031W        W76896  23.956  25.142  26.340
76032W        W76897  23.264  24.397  28.978
76033W        W76898  23.390  24.635  26.355
76034W        W76899  22.611  23.375  25.614
76035W        W76900  21.950  29.105   3.359
76036W        W76901  22.326  27.998   2.882
76037W        W76902  25.031  27.728   0.652
76038W        W76903  25.161  28.813   2.679
76039W        W76904  23.079  28.804   0.205
76040W        W76905  23.162  26.956   1.188
76041W        W76906  22.677  26.804   1.352
76042W        W76907  23.668  27.619   0.786
76043W        W76908  23.343  28.711   3.141
76044W        W76909  21.992  26.272   3.104
76045W        W76910  22.754  25.552   2.906
76046W        W76911  24.448  25.940   1.793
76047W        W76912  24.097  26.811   0.363
76048W        W76913  24.667  26.245   3.454
76049W        W76914  22.033  26.037   2.579
76050W        W76915  22.132  28.656   3.600
76051W        W76916  23.654  28.046   0.332
76052W        W76917  22.086  26.829   2.025
76053W        W76918  22.979  26.720   3.262
76054W        W76919  25.438  26.579   1.761
76055W        W76920  25.202  27.622   2.620
76056W        W76921  23.510  26.955   1.647
76057W        W76922  24.056  28.294   2.016
76058W        W76923  22.556  27.728   2.248
76059W        W76924  21.915  27.256   1.819
76060W        W76925  22.951  27.228   3.011
76061W        W76926  25.222  27.011   3.265
76062W        W76927  22.838  28.455   1.710
76063W        W76928  23.959  28.144   2.844
76064W        W76929  23.179  26.784   2.069
76065W        W76930  23.471  27.568   1.712
76066W        W76931  24.468  28.341   3.560
76067W        W76932  23.547  27.661   3.570
76068W        W76933  23.528  27.377   3.048
76069W        W76934  21.937  26.768   3.570
76070W        W76935  24.769  28.303   3.169
76071W        W76936  22.350  25.885   1.167
76072W        W76937  22.877  28.143   2.166
76073W        W76938  25.340  27.926   1.456
76074W        W76939  24.753  26.326   2.023
76075W        W76940  25.038  26.279   0.118
76076W        W76941  25.503  27.080   2.424
76077W        W76942  23.470  28.787   2.177
76078W        W76943  25.244  28.253   0.615
76079W        W76944  22.373  29.039   0.369
76080W        W76945  22.766  29.085   1.045
76081W        W76946  22.563  25.839   2.471
76082W        W76947  25.186  26.857   2.746
76083W        W76948  24.591  27.279   1.205
76084W        W76949  24.557  26.967   0.232
76085W        W76950  23.765  28.111   2.372
76086W        W76951  23.571  26.441   1.571
76087W        W76952  24.171  28.528   2.565
76088W        W76953  25.042  27.319   0.987
76089W        W76954  23.944  25.977   1.003
76090W        W76955  22.601  28.671   0.686
76091W        W76956  21.972  26.170   1.285
76092W        W76957  24.758  26.777   1.759
76093W        W76958  22.216  28.394   1.674
76094W        W76959  23.557  28.744   0.544
76095W        W76960  24.949  26.770   0.008
76096W        W76961  21.972  28.528   2.172
76097W        W76962  22.763  28.100   2.652
76098W        W76963  23.136  27.460   1.271
76099W        W76964  23.158  25.865   2.364
76100W        W76965  25.387  25.627   1.661
76101W        W76966  22.606  27.499   0.129
76102W        W76967  22.261  26.532   0.308
76103W        W76968  22.323  28.488   1.102
76104W        W76969  23.454  27.971   1.350
76105W        W76970  24.786  28.830   3.064
76106W        W76971  23.712  26.472   0.748
76107W        W76972  25.095  28.870   1.520
76108W        W76973  24.772  26.723   3.118
76109W        W76974  25.485  28.379   1.252
76110W        W76975  24.112  27.671   2.736
76111W        W76976  21.878  27.222   0.942
76112W        W76977  22.989  27.637   2.515
76113W        W76978  24.193  26.901   0.893
76114W        W76979  24.070  27.391   0.997
76115W        W76980  22.413  26.811   2.471
76116W        W76981  22.398  26.687   3.393
76117W        W76982  22.288  25.604   1.552
76118W        W76983  24.056  25.951   2.113
76119W        W76984  23.704  26.136   3.276
76120W        W76985  24.059  26.285   0.454
76121W        W76986  25.242  28.678   3.208
76122W        W76987  24.209  25.759   3.247
76123W        W76988  25.228  28.060   3.369
76124W        W76989  24.658  26.227   2.965
76125W        W76990  24.458  26.165   1.235
76126W        W76991  24.851  27.299   3.639
76127W        W76992  22.591  28.875   1.625
76128W        W76993  23.249  26.592   0.611
76129W        W76994  22.818  25.876   3.275
76130W        W76995  24.870  26.360   0.956
76131W        W76996  25.237  26.842   0.901
76132W        W76997  22.980  29.059   3.372
76133W        W76998  22.906  25.595   0.607
76134W        W76999  25.227  26.129   1.642
76135W        W77000  25.377  28.378   0.087
76136W        W77001  22.284  27.581   1.789
76137W        W77002  24.201  26.168   0.019
76138W        W77003  25.335  28.500   1.739
76139W        W77004  25.374  25.694   2.489
76140W        W77005  23.819  26.906   3.043
76141W        W77006  23.912  28.245   0.746
76142W        W77007  24.312  27.539   3.486
76143W        W77008  23.986  25.516   1.795
76144W        W77009  22.598  26.419   1.858
76145W        W77010  22.152  27.619   2.632
76146W        W77011  24.011  28.812   1.338
76147W        W77012  25.205  26.409   2.210
76148W        W77013  23.842  28.756   2.977
76149W        W77014  25.185  27.815   0.182
76150W        W77015  23.620  27.298   1.243
76151W        W77016  25.472  25.809   2.984
76152W        W77017  23.621  27.644   2.578
76153W        W77018  23.838  26.530   2.023
76154W        W77019  24.690  26.828   0.861
76155W        W77020  24.977  26.561   0.503
76156W        W77021  24.786  28.601   0.892
76157W        W77022  24.620  28.204   1.688
76158W        W77023  24.516  27.283   0.666
76159W        W77024  23.949  27.493   1.652
76160W        W77025  24.830  27.281   1.719
76161W        W77026  22.205  26.296   2.143
76162W        W77027  24.983  27.348   2.970
76163W        W77028  25.334  28.966   2.116
76164W        W77029  23.264  28.410   1.518
76165W        W77030  24.271  28.943   2.842
76166W        W77031  24.265  26.273   2.606
76167W        W77032  23.472  28.981   2.667
76168W        W77033  25.169  25.935   1.133
76169W        W77034  24.960  27.254   2.434
76170W        W77035  21.943  26.575   2.472
76171W        W77036  24.803  26.370   1.490
76172W        W77037  25.214  26.521   3.267
76173W        W77038  24.099  28.220   1.485
76174W        W77039  23.355  28.811   1.098
76175W        W77040  22.470  25.991   0.356
76176W        W77041  23.574  25.645   2.166
76177W        W77042  22.602  28.765   0.014
76178W        W77043  22.976  27.231   0.765
76179W        W77044  23.630  27.860   3.078
76180W        W77045  23.460  26.218   1.068
76181W        W77046  24.816  25.815   1.496
76182W        W77047  24.536  29.097   1.824
76183W        W77048  23.948  28.745   2.164
76184W        W77049  23.344  27.782   2.125
76185W        W77050  25.114  28.505   2.251
76186W        W77051  22.808  26.008   1.020
76187W        W77052  23.330  28.305   1.980
76188W        W77053  22.813  26.236   0.045
76189W        W77054  23.614  26.845   2.439
76190W        W77055  24.462  25.711   2.309
76191W        W77056  21.882  27.554   2.194
76192W        W77057  23.586  27.372   0.352
76193W        W77058  22.854  25.687   0.122
76194W        W77059  23.592  26.768   1.173
76195W        W77060  24.562  25.744   2.872
76196W        W77061  23.150  27.756   2.981
76197W        W77062  23.954  27.538   3.198
76198W        W77063  24.571  27.568   3.091
76199W        W77064  23.855  25.708   3.596
76200W        W77065  23.077  26.324   1.989
76201W        W77066  22.503  26.280   1.387
76202W        W77067  22.289  28.992   1.063
76203W        W77068  23.621  28.322   3.188
76204W        W77069  22.656  27.807   0.547
76205W        W77070  24.336  27.192   1.768
76206W        W77071  24.616  26.991   2.167
76207W        W77072  23.821  27.665   2.101
76208W        W77073  24.291  28.039   0.233
76209W        W77074  23.963  26.060   1.561
76210W        W77075  25.442  26.338   0.829
76211W        W77076  21.936  28.927   2.860
76212W        W77077  22.353  28.153   2.392
76213W        W77078  21.920  28.999   0.624
76214W        W77079  23.819  26.269   2.430
76215W        W77080  23.182  28.292   0.279
76216W        W77081  25.087  28.674   0.465
76217W        W77082  24.062  27.327   0.479
76218W        W77083  22.905  26.518   0.996
76219W        W77084  23.737  26.428   0.048
76220W        W77085  24.321  27.993   3.226
76221W        W77086  24.674  25.899   0.843
76222W        W77087  22.004  25.747   0.291
76223W        W77088  23.290  28.066   2.581
76224W        W77089  23.089  27.982   1.673
76225W        W77090  22.831  27.934   0.071
76226W        W77091  22.072  28.175   0.839
76227W        W77092  22.576  27.245   3.281
76228W        W77093  23.280  25.805   3.467
76229W        W77094  23.989  25.947   2.823
76230W        W77095  23.184  25.715   1.104
76231W        W77096  24.243  25.792   0.609
76232W        W77097  22.188  25.724   2.186
76233W        W77098  22.236  26.687   1.556
76234W        W77099  24.925  25.795   1.962
76235W        W77100  22.347  26.293   0.776
76236W        W77101  24.918  25.981   2.392
76237W        W77102  25.314  27.184   0.077
76238W        W77103  22.606  25.942   1.896
76239W        W77104  23.720  26.514   2.836
76240W        W77105  21.868  26.204   0.314
76241W        W77106  22.654  27.593   2.875
76242W        W77107  24.012  26.991   2.054
76243W        W77108  23.879  29.070   0.350
76244W        W77109  22.025  27.577   0.047
76245W        W77110  22.760  27.988   3.173
76246W        W77111  22.281  27.155   2.804
76247W        W77112  23.272  27.260   2.598
76248W        W77113  25.040  25.619   2.860
76249W        W77114  25.438  27.229   2.851
76250W        W77115  25.426  27.429   0.537
76251W        W77116  24.289  27.761   0.636
76252W        W77117  24.763  29.061   0.331
76253W        W77118  23.940  27.051   3.473
76254W        W77119  22.270  28.018   3.513
76255W        W77120  25.476  25.940   3.465
76256W        W77121  25.194  26.868   2.086
76257W        W77122  23.502  28.998   3.563
76258W        W77123  23.357  25.627   0.290
76259W        W77124  24.896  28.226   0.233
76260W        W77125  22.665  26.319   3.119
76261W        W77126  23.099  28.313   2.981
76262W        W77127  25.225  26.304   2.779
76263W        W77128  24.436  28.963   0.747
76264W        W77129  24.675  27.582   2.114
76265W        W77130  22.925  25.998   2.781
76266W        W77131  23.394  27.067   3.538
76267W        W77132  22.897  28.246   0.732
76268W        W77133  24.652  27.744   0.996
76269W        W77134  22.420  26.370   2.720
76270W        W77135  23.749  28.432   1.184
76271W        W77136  25.499  26.992   1.365
76272W        W77137  23.721  25.625   3.084
76273W        W77138  24.501  28.330   2.163
76274W        W77139  24.804  28.674   1.871
76275W        W77140  24.023  28.476   0.299
76276W        W77141  22.033  28.368   3.141
76277W        W77142  22.776  26.360   2.379
76278W        W77143  22.746  25.708   1.489
76279W        W77144  24.367  26.550   2.181
76280W        W77145  23.165  27.721   0.381
76281W        W77146  25.163  27.663   1.880
76282W        W77147  22.490  28.421   3.303
76283W        W77148  24.877  29.103   1.100
76284W        W77149  22.976  26.123   1.545
76285W        W77150  22.745  27.616   1.635
76286W        W77151  23.058  29.027   2.385
76287W        W77152  25.125  29.123   3.417
76288W        W77153  24.284  27.311   2.350
76289W        W77154  22.133  27.109   0.265
76290W        W77155  25.267  28.767   0.962
76291W        W77156  25.104  26.091   0.581
76292W        W77157  23.243  25.610   2.984
76293W        W77158  24.949  28.412   1.442
76294W        W77159  24.978  26.968   1.347
76295W        W77160  23.095  26.641   1.563
76296W        W77161  23.340  26.903   2.887
76297W        W77162  24.451  28.056   2.750
76298W        W77163  23.101  26.510   2.862
76299W        W77164  23.080  28.976   1.478
76300W        W77165  22.397  28.935   3.112
76301W        W77166  22.509  28.296   0.242
76302W        W77167  25.026  28.054   1.052
76303W        W77168  22.630  26.846   2.938
76304W        W77169  25.403  26.776   0.419
76305W        W77170  23.148  27.833   0.890
76306W        W77171  24.247  27.215   2.971
76307W        W77172  24.138  26.843   2.515
76308W        W77173  22.698  27.215   2.544
76309W        W77174  24.908  29.103   2.373
76310W        W77175  24.699  25.737   3.367
76311W        W77176  22.363  25.887   2.954
76312W        W77177  22.702  26.910   2.007
76313W        W77178  23.071  26.724   0.129
76314W        W77179  21.874  28.483   2.674
76315W        W77180  23.459  27.192   2.117
76316W        W77181  23.282  26.217   0.222
76317W        W77182  22.417  27.033   1.003
76318W        W77183  22.188  28.885   2.440
76319W        W77184  24.983  27.111   0.548
76320W        W77185  25.078  26.027   3.234
76321W        W77186  24.514  28.236   1.197
76322W        W77187  22.112  27.160   3.374
76323W        W77188  25.078  25.624   0.670
76324W        W77189  24.598  28.099   0.681
76325W        W77190  23.500  27.157   0.766
76326W        W77191  24.687  25.961   0.289
76327W        W77192  24.752  26.568   2.475
76328W        W77193  22.461  27.161   1.682
76329W        W77194  22.755  28.100   1.331
76330W        W77195  24.518  26.720   1.296
76331W        W77196  23.541  26.099   1.992
76332W        W77197  25.503  28.010   2.503
76333W        W77198  25.421  25.997   2.064
76334W        W77199  21.960  28.827   1.440
76335W        W77200  22.469  28.014   0.976
76336W        W77201  22.384  25.631   3.529
76337W        W77202  23.503  28.484   3.631
76338W        W77203  25.258  27.452   1.421
76339W        W77204  24.612  27.629   0.301
76340W        W77205  23.907  29.150   2.513
76341W        W77206  24.764  27.872   3.550
76342W        W77207  23.579  25.582   0.830
76343W        W77208  24.292  26.451   1.689
76344W        W77209  21.978  28.038   2.021
76345W        W77210  23.231  26.000   0.662
76346W        W77211  23.035  27.484   3.511
76347W        W77212  24.029  26.465   1.225
76348W        W77213  24.234  27.875   2.347
76349W        W77214  22.388  28.480   2.782
76350W        W77215  22.979  28.463   3.505
76351W        W77216  22.830  26.260   0.519
76352W        W77217  24.347  26.402   0.844
76353W        W77218  24.305  28.510   3.081
76354W        W77219  22.990  27.102   1.680
76355W        W77220  22.645  28.800   2.545
76356W        W77221  25.390  28.917   0.146
76357W        W77222  22.253  27.589   3.142
76358W        W77223  24.248  27.851   1.830
76359W        W77224  22.684  27.500   1.072
76360W        W77225  23.055  28.507   2.467
76361W        W77226  23.433  25.926   1.508
76362W        W77227  22.044  27.910   0.438
76363W        W77228  23.563  26.861   0.308
76364W        W77229  22.209  27.410   1.327
76365W        W77230  23.499  26.052   2.791
76366W        W77231  25.171  25.761   0.218
76367W        W77232  25.264  27.507   3.317
76368W        W77233  23.918  28.764   3.469
76369W        W77234  25.476  27.858   2.991
76370W        W77235  24.884  28.656   3.602
76371W        W77236  22.623  29.112   2.080
76372W        W77237  25.482  27.734   0.954
76373W        W77238  24.012  27.001   1.467
76374W        W77239  23.779  25.613   1.357
76375W        W77240  22.838  28.597   1.194
76376W        W77241  23.337  26.338   2.419
76377W        W77242  23.037  25.707   1.888
76378W        W77243  22.100  28.529   0.436
76379W        W77244  23.916  27.893   1.154
76380W        W77245  22.791  28.688   3.033
76381W        W77246  22.268  27.511   0.729
76382W        W77247  22.153  26.054   1.728
76383W        W77248  23.701  28.019   1.785
76384W        W77249  21.953  25.873   0.805
76385W        W77250  24.617  27.079   2.732
76386W        W77251  24.494  26.465   0.304
76387W        W77252  25.011  28.137   1.952
76388W        W77253  23.672  28.621   1.783
76389W        W77254  23.084  28.725   0.694
76390W        W77255  24.366  25.628   0.124
76391W        W77256  22.166  28.888   1.865
76392W        W77257  24.363  26.646   3.500
76393W        W77258  22.346  26.176   3.499
76394W        W77259  22.077  26.776   0.832
76395W        W77260  22.768  26.765   0.557
76396W        W77261  24.531  27.092   3.374
76397W        W77262  22.874  27.373   2.083
76398W        W77263  24.348  25.659   1.203
76399W        W77264  23.479  29.090   1.706
76400W        W77265  24.693  28.552   2.643
76401W        W77266  24.277  28.701   1.754
76402W        W77267  24.296  27.681   1.348
76403W        W77268  23.758  25.906   0.419
76404W        W77269  25.439  25.534   1.141
76405W        W77270  23.127  27.169   0.304
76406W        W77271  25.293  26.506   1.294
76407W        W77272  23.985  27.676   0.171
76408W        W77273  24.921  27.876   2.919
76409W        W77274  24.575  28.577   0.386
76410W        W77275  23.190  26.252   3.292
76411W        W77276  23.010  26.836   2.533
76412W        W77277  25.102  28.331   2.810
76413W        W77278  24.202  26.281   3.187
76414W        W77279  22.046  26.752   2.964
76415W        W77280  23.806  27.229   2.690
76416W        W77281  22.163  27.987   1.347
76417W        W77282  22.310  27.284   2.237
76418W        W77283  24.627  27.570   2.587
76419W        W77284  24.399  28.950   3.398
76420W        W77285  24.295  26.689   2.951
76421W        W77286  24.572  28.743   1.356
76422W        W77287  23.574  28.463   2.679
76423W        W77288  23.059  28.818   1.948
76424W        W77289  24.864  27.989   2.367
76425W        W77290  23.914  28.061   3.504
76426W        W77291  22.519  28.014   1.843
76427W        W77292  24.865  27.773   1.488
76428W        W77293  24.506  28.839   2.239
76429W        W77294  22.484  28.568   2.109
76430W        W77295  23.505  26.620   3.319
76431W        W77296  23.956  28.786   0.830
76432W        W77297  23.264  28.041   3.468
76433W        W77298  23.390  28.279   0.845
76434W        W77299  22.611  27.019   0.104
76435W        W77300  21.950  29.105   7.003
76436W        W77301  22.326  27.998   6.526
76437W        W77302  25.031  27.728   4.296
76438W        W77303  25.161  28.813   6.323
76439W        W77304  23.079  28.804   3.849
76440W        W77305  23.162  26.956   4.832
76441W        W77306  22.677  26.804   4.996
76442W        W77307  23.668  27.619   4.430
76443W        W77308  23.343  28.711   6.785
76444W        W77309  21.992  26.272   6.748
76445W        W77310  22.754  25.552   6.550
76446W        W77311  24.448  25.940   5.437
76447W        W77312  24.097  26.811   4.007
76448W        W77313  24.667  26.245   7.098
76449W        W77314  22.033  26.037   6.223
76450W        W77315  22.132  28.656   7.244
76451W        W77316  23.654  28.046   3.976
76452W        W77317  22.086  26.829   5.669
76453W        W77318  22.979  26.720   6.906
76454W        W77319  25.438  26.579   5.405
76455W        W77320  25.202  27.622   6.264
76456W        W77321  23.510  26.955   5.291
76457W        W77322  24.056  28.294   5.660
76458W        W77323  22.556  27.728   5.892
76459W        W77324  21.915  27.256   5.463
76460W        W77325  22.951  27.228   6.655
76461W        W77326  25.222  27.011   6.909
76462W        W77327  22.838  28.455   5.354
76463W        W77328  23.959  28.144   6.488
76464W        W77329  23.179  26.784   5.713
76465W        W77330  23.471  27.568   5.356
76466W        W77331  24.468  28.341   7.204
76467W        W77332  23.547  27.661   7.214
76468W        W77333  23.528  27.377   6.692
76469W        W77334  21.937  26.768   7.214
76470W        W77335  24.769  28.303   6.813
76471W        W77336  22.350  25.885   4.811
76472W        W77337  22.877  28.143   5.810
76473W        W77338  25.340  27.926   5.100
76474W        W77339  24.753  26.326   5.667
76475W        W77340  25.038  26.279   3.762
76476W        W77341  25.503  27.080   6.068
76477W        W77342  23.470  28.787   5.821
76478W        W77343  25.244  28.253   4.259
76479W        W77344  22.373  29.039   4.013
76480W        W77345  22.766  29.085   4.689
76481W        W77346  22.563  25.839   6.115
76482W        W77347  25.186  26.857   6.390
76483W        W77348  24.591  27.279   4.849
76484W        W77349  24.557  26.967   3.876
76485W        W77350  23.765  28.111   6.016
76486W        W77351  23.571  26.441   5.215
76487W        W77352  24.171  28.528   6.209
76488W        W77353  25.042  27.319   4.631
76489W        W77354  23.944  25.977   4.647
76490W        W77355  22.601  28.671   4.330
76491W        W77356  21.972  26.170   4.929
76492W        W77357  24.758  26.777   5.403
76493W        W77358  22.216  28.394   5.318
76494W        W77359  23.557  28.744   4.188
76495W        W77360  24.949  26.770   3.652
76496W        W77361  21.972  28.528   5.816
76497W        W77362  22.763  28.100   6.296
76498W        W77363  23.136  27.460   4.915
76499W        W77364  23.158  25.865   6.008
76500W        W77365  25.387  25.627   5.305
76501W        W77366  22.606  27.499   3.773
76502W        W77367  22.261  26.532   3.952
76503W        W77368  22.323  28.488   4.746
76504W        W77369  23.454  27.971   4.994
76505W        W77370  24.786  28.830   6.708
76506W        W77371  23.712  26.472   4.392
76507W        W77372  25.095  28.870   5.164
76508W        W77373  24.772  26.723   6.762
76509W        W77374  25.485  28.379   4.896
76510W        W77375  24.112  27.671   6.380
76511W        W77376  21.878  27.222   4.586
76512W        W77377  22.989  27.637   6.159
76513W        W77378  24.193  26.901   4.537
76514W        W77379  24.070  27.391   4.641
76515W        W77380  22.413  26.811   6.115
76516W        W77381  22.398  26.687   7.037
76517W        W77382  22.288  25.604   5.196
76518W        W77383  24.056  25.951   5.757
76519W        W77384  23.704  26.136   6.920
76520W        W77385  24.059  26.285   4.098
76521W        W77386  25.242  28.678   6.852
76522W        W77387  24.209  25.759   6.891
76523W        W77388  25.228  28.060   7.013
76524W        W77389  24.658  26.227   6.609
76525W        W77390  24.458  26.165   4.879
76526W        W77391  24.851  27.299   7.283
76527W        W77392  22.591  28.875   5.269
76528W        W77393  23.249  26.592   4.255
76529W        W77394  22.818  25.876   6.919
76530W        W77395  24.870  26.360   4.600
76531W        W77396  25.237  26.842   4.545
76532W        W77397  22.980  29.059   7.016
76533W        W77398  22.906  25.595   4.251
76534W        W77399  25.227  26.129   5.286
76535W        W77400  25.377  28.378   3.731
76536W        W77401  22.284  27.581   5.433
76537W        W77402  24.201  26.168   3.663
76538W        W77403  25.335  28.500   5.383
76539W        W77404  25.374  25.694   6.133
76540W        W77405  23.819  26.906   6.687
76541W        W77406  23.912  28.245   4.390
76542W        W77407  24.312  27.539   7.130
76543W        W77408  23.986  25.516   5.439
76544W        W77409  22.598  26.419   5.502
76545W        W77410  22.152  27.619   6.276
76546W        W77411  24.011  28.812   4.982
76547W        W77412  25.205  26.409   5.854
76548W        W77413  23.842  28.756   6.621
76549W        W77414  25.185  27.815   3.826
76550W        W77415  23.620  27.298   4.887
76551W        W77416  25.472  25.809   6.628
76552W        W77417  23.621  27.644   6.222
76553W        W77418  23.838  26.530   5.667
76554W        W77419  24.690  26.828   4.505
76555W        W77420  24.977  26.561   4.147
76556W        W77421  24.786  28.601   4.536
76557W        W77422  24.620  28.204   5.332
76558W        W77423  24.516  27.283   4.310
76559W        W77424  23.949  27.493   5.296
76560W        W77425  24.830  27.281   5.363
76561W        W77426  22.205  26.296   5.787
76562W        W77427  24.983  27.348   6.614
76563W        W77428  25.334  28.966   5.760
76564W        W77429  23.264  28.410   5.162
76565W        W77430  24.271  28.943   6.486
76566W        W77431  24.265  26.273   6.250
76567W        W77432  23.472  28.981   6.311
76568W        W77433  25.169  25.935   4.777
76569W        W77434  24.960  27.254   6.078
76570W        W77435  21.943  26.575   6.116
76571W        W77436  24.803  26.370   5.134
76572W        W77437  25.214  26.521   6.911
76573W        W77438  24.099  28.220   5.129
76574W        W77439  23.355  28.811   4.742
76575W        W77440  22.470  25.991   4.000
76576W        W77441  23.574  25.645   5.810
76577W        W77442  22.602  28.765   3.658
76578W        W77443  22.976  27.231   4.409
76579W        W77444  23.630  27.860   6.722
76580W        W77445  23.460  26.218   4.712
76581W        W77446  24.816  25.815   5.140
76582W        W77447  24.536  29.097   5.468
76583W        W77448  23.948  28.745   5.808
76584W        W77449  23.344  27.782   5.769
76585W        W77450  25.114  28.505   5.895
76586W        W77451  22.808  26.008   4.664
76587W        W77452  23.330  28.305   5.624
76588W        W77453  22.813  26.236   3.689
76589W        W77454  23.614  26.845   6.083
76590W        W77455  24.462  25.711   5.953
76591W        W77456  21.882  27.554   5.838
76592W        W77457  23.586  27.372   3.996
76593W        W77458  22.854  25.687   3.766
76594W        W77459  23.592  26.768   4.817
76595W        W77460  24.562  25.744   6.516
76596W        W77461  23.150  27.756   6.625
76597W        W77462  23.954  27.538   6.842
76598W        W77463  24.571  27.568   6.735
76599W        W77464  23.855  25.708   7.240
76600W        W77465  23.077  26.324   5.633
76601W        W77466  22.503  26.280   5.031
76602W        W77467  22.289  28.992   4.707
76603W        W77468  23.621  28.322   6.832
76604W        W77469  22.656  27.807   4.191
76605W        W77470  24.336  27.192   5.412
76606W        W77471  24.616  26.991   5.811
76607W        W77472  23.821  27.665   5.745
76608W        W77473  24.291  28.039   3.877
76609W        W77474  23.963  26.060   5.205
76610W        W77475  25.442  26.338   4.473
76611W        W77476  21.936  28.927   6.504
76612W        W77477  22.353  28.153   6.036
76613W        W77478  21.920  28.999   4.268
76614W        W77479  23.819  26.269   6.074
76615W        W77480  23.182  28.292   3.923
76616W        W77481  25.087  28.674   4.109
76617W        W77482  24.062  27.327   4.123
76618W        W77483  22.905  26.518   4.640
76619W        W77484  23.737  26.428   3.692
76620W        W77485  24.321  27.993   6.870
76621W        W77486  24.674  25.899   4.487
76622W        W77487  22.004  25.747   3.935
76623W        W77488  23.290  28.066   6.225
76624W        W77489  23.089  27.982   5.317
76625W        W77490  22.831  27.934   3.715
76626W        W77491  22.072  28.175   4.483
76627W        W77492  22.576  27.245   6.925
76628W        W77493  23.280  25.805   7.111
76629W        W77494  23.989  25.947   6.467
76630W        W77495  23.184  25.715   4.748
76631W        W77496  24.243  25.792   4.253
76632W        W77497  22.188  25.724   5.830
76633W        W77498  22.236  26.687   5.200
76634W        W77499  24.925  25.795   5.606
76635W        W77500  22.347  26.293   4.420
76636W        W77501  24.918  25.981   6.036
76637W        W77502  25.314  27.184   3.721
76638W        W77503  22.606  25.942   5.540
76639W        W77504  23.720  26.514   6.480
76640W        W77505  21.868  26.204   3.958
76641W        W77506  22.654  27.593   6.519
76642W        W77507  24.012  26.991   5.698
76643W        W77508  23.879  29.070   3.994
76644W        W77509  22.025  27.577   3.691
76645W        W77510  22.760  27.988   6.817
76646W        W77511  22.281  27.155   6.448
76647W        W77512  23.272  27.260   6.242
76648W        W77513  25.040  25.619   6.504
76649W        W77514  25.438  27.229   6.495
76650W        W77515  25.426  27.429   4.181
76651W        W77516  24.289  27.761   4.280
76652W        W77517  24.763  29.061   3.975
76653W        W77518  23.940  27.051   7.117
76654W        W77519  22.270  28.018   7.157
76655W        W77520  25.476  25.940   7.109
76656W        W77521  25.194  26.868   5.730
76657W        W77522  23.502  28.998   7.207
76658W        W77523  23.357  25.627   3.934
76659W        W77524  24.896  28.226   3.877
76660W        W77525  22.665  26.319   6.763
76661W        W77526  23.099  28.313   6.625
76662W        W77527  25.225  26.304   6.423
76663W        W77528  24.436  28.963   4.391
76664W        W77529  24.675  27.582   5.758
76665W        W77530  22.925  25.998   6.425
76666W        W77531  23.394  27.067   7.182
76667W        W77532  22.897  28.246   4.376
76668W        W77533  24.652  27.744   4.640
76669W        W77534  22.420  26.370   6.364
76670W        W77535  23.749  28.432   4.828
76671W        W77536  25.499  26.992   5.009
76672W        W77537  23.721  25.625   6.728
76673W        W77538  24.501  28.330   5.807
76674W        W77539  24.804  28.674   5.515
76675W        W77540  24.023  28.476   3.943
76676W        W77541  22.033  28.368   6.785
76677W        W77542  22.776  26.360   6.023
76678W        W77543  22.746  25.708   5.133
76679W        W77544  24.367  26.550   5.825
76680W        W77545  23.165  27.721   4.025
76681W        W77546  25.163  27.663   5.524
76682W        W77547  22.490  28.421   6.947
76683W        W77548  24.877  29.103   4.744
76684W        W77549  22.976  26.123   5.189
76685W        W77550  22.745  27.616   5.279
76686W        W77551  23.058  29.027   6.029
76687W        W77552  25.125  29.123   7.061
76688W        W77553  24.284  27.311   5.994
76689W        W77554  22.133  27.109   3.909
76690W        W77555  25.267  28.767   4.606
76691W        W77556  25.104  26.091   4.225
76692W        W77557  23.243  25.610   6.628
76693W        W77558  24.949  28.412   5.086
76694W        W77559  24.978  26.968   4.991
76695W        W77560  23.095  26.641   5.207
76696W        W77561  23.340  26.903   6.531
76697W        W77562  24.451  28.056   6.394
76698W        W77563  23.101  26.510   6.506
76699W        W77564  23.080  28.976   5.122
76700W        W77565  22.397  28.935   6.756
76701W        W77566  22.509  28.296   3.886
76702W        W77567  25.026  28.054   4.696
76703W        W77568  22.630  26.846   6.582
76704W        W77569  25.403  26.776   4.063
76705W        W77570  23.148  27.833   4.534
76706W        W77571  24.247  27.215   6.615
76707W        W77572  24.138  26.843   6.159
76708W        W77573  22.698  27.215   6.188
76709W        W77574  24.908  29.103   6.017
76710W        W77575  24.699  25.737   7.011
76711W        W77576  22.363  25.887   6.598
76712W        W77577  22.702  26.910   5.651
76713W        W77578  23.071  26.724   3.773
76714W        W77579  21.874  28.483   6.318
76715W        W77580  23.459  27.192   5.761
76716W        W77581  23.282  26.217   3.866
76717W        W77582  22.417  27.033   4.647
76718W        W77583  22.188  28.885   6.084
76719W        W77584  24.983  27.111   4.192
76720W        W77585  25.078  26.027   6.878
76721W        W77586  24.514  28.236   4.841
76722W        W77587  22.112  27.160   7.018
76723W        W77588  25.078  25.624   4.314
76724W        W77589  24.598  28.099   4.325
76725W        W77590  23.500  27.157   4.410
76726W        W77591  24.687  25.961   3.933
76727W        W77592  24.752  26.568   6.119
76728W        W77593  22.461  27.161   5.326
76729W        W77594  22.755  28.100   4.975
76730W        W77595  24.518  26.720   4.940
76731W        W77596  23.541  26.099   5.636
76732W        W77597  25.503  28.010   6.147
76733W        W77598  25.421  25.997   5.708
76734W        W77599  21.960  28.827   5.084
76735W        W77600  22.469  28.014   4.620
76736W        W77601  22.384  25.631   7.173
76737W        W77602  23.503  28.484   7.275
76738W        W77603  25.258  27.452   5.065
76739W        W77604  24.612  27.629   3.945
76740W        W77605  23.907  29.150   6.157
76741W        W77606  24.764  27.872   7.194
76742W        W77607  23.579  25.582   4.474
76743W        W77608  24.292  26.451   5.333
76744W        W77609  21.978  28.038   5.665
76745W        W77610  23.231  26.000   4.306
76746W        W77611  23.035  27.484   7.155
76747W        W77612  24.029  26.465   4.869
76748W        W77613  24.234  27.875   5.991
76749W        W77614  22.388  28.480   6.426
76750W        W77615  22.979  28.463   7.149
76751W        W77616  22.830  26.260   4.163
76752W        W77617  24.347  26.402   4.488
76753W        W77618  24.305  28.510   6.725
76754W        W77619  22.990  27.102   5.324
76755W        W77620  22.645  28.800   6.189
76756W        W77621  25.390  28.917   3.790
76757W        W77622  22.253  27.589   6.786
76758W        W77623  24.248  27.851   5.474
76759W        W77624  22.684  27.500   4.716
76760W        W77625  23.055  28.507   6.111
76761W        W77626  23.433  25.926   5.152
76762W        W77627  22.044  27.910   4.082
76763W        W77628  23.563  26.861   3.952
76764W        W77629  22.209  27.410   4.971
76765W        W77630  23.499  26.052   6.435
76766W        W77631  25.171  25.761   3.862
76767W        W77632  25.264  27.507   6.961
76768W        W77633  23.918  28.764   7.113
76769W        W77634  25.476  27.858   6.635
76770W        W77635  24.884  28.656   7.246
76771W        W77636  22.623  29.112   5.724
76772W        W77637  25.482  27.734   4.598
76773W        W77638  24.012  27.001   5.111
76774W        W77639  23.779  25.613   5.001
76775W        W77640  22.838  28.597   4.838
76776W        W77641  23.337  26.338   6.063
76777W        W77642  23.037  25.707   5.532
76778W        W77643  22.100  28.529   4.080
76779W        W77644  23.916  27.893   4.798
76780W        W77645  22.791  28.688   6.677
76781W        W77646  22.268  27.511   4.373
76782W        W77647  22.153  26.054   5.372
76783W        W77648  23.701  28.019   5.429
76784W        W77649  21.953  25.873   4.449
76785W        W77650  24.617  27.079   6.376
76786W        W77651  24.494  26.465   3.948
76787W        W77652  25.011  28.137   5.596
76788W        W77653  23.672  28.621   5.427
76789W        W77654  23.084  28.725   4.338
76790W        W77655  24.366  25.628   3.768
76791W        W77656  22.166  28.888   5.509
76792W        W77657  24.363  26.646   7.144
76793W        W77658  22.346  26.176   7.143
76794W        W77659  22.077  26.776   4.476
76795W        W77660  22.768  26.765   4.201
76796W        W77661  24.531  27.092   7.018
76797W        W77662  22.874  27.373   5.727
76798W        W77663  24.348  25.659   4.847
76799W        W77664  23.479  29.090   5.350
76800W        W77665  24.693  28.552   6.287
76801W        W77666  24.277  28.701   5.398
76802W        W77667  24.296  27.681   4.992
76803W        W77668  23.758  25.906   4.063
76804W        W77669  25.439  25.534   4.785
76805W        W77670  23.127  27.169   3.948
76806W        W77671  25.293  26.506   4.938
76807W        W77672  23.985  27.676   3.815
76808W        W77673  24.921  27.876   6.563
76809W        W77674  24.575  28.577   4.030
76810W        W77675  23.190  26.252   6.936
76811W        W77676  23.010  26.836   6.177
76812W        W77677  25.102  28.331   6.454
76813W        W77678  24.202  26.281   6.831
76814W        W77679  22.046  26.752   6.608
76815W        W77680  23.806  27.229   6.334
76816W        W77681  22.163  27.987   4.991
76817W        W77682  22.310  27.284   5.881
76818W        W77683  24.627  27.570   6.231
76819W        W77684  24.399  28.950   7.042
76820W        W77685  24.295  26.689   6.595
76821W        W77686  24.572  28.743   5.000
76822W        W77687  23.574  28.463   6.323
76823W        W77688  23.059  28.818   5.592
76824W        W77689  24.864  27.989   6.011
76825W        W77690  23.914  28.061   7.148
76826W        W77691  22.519  28.014   5.487
76827W        W77692  24.865  27.773   5.132
76828W        W77693  24.506  28.839   5.883
76829W        W77694  22.484  28.568   5.753
76830W        W77695  23.505  26.620   6.963
76831W        W77696  23.956  28.786   4.474
76832W        W77697  23.264  28.041   7.112
76833W        W77698  23.390  28.279   4.489
76834W        W77699  22.611  27.019   3.748
76835W        W77700  21.950  29.105  10.648
76836W        W77701  22.326  27.998  10.171
76837W        W77702  25.031  27.728   7.941
76838W        W77703  25.161  28.813   9.968
76839W        W77704  23.162  26.956   8.477
76840W        W77705  22.677  26.804   8.641
76841W        W77706  23.668  27.619   8.075
76842W        W77707  23.343  28.711  10.430
76843W        W77708  21.992  26.272  10.393
76844W        W77709  22.754  25.552  10.195
76845W        W77710  24.448  25.940   9.082
76846W        W77711  24.097  26.811   7.652
76847W        W77712  24.667  26.245  10.743
76848W        W77713  22.033  26.037   9.868
76849W        W77714  22.132  28.656  10.889
76850W        W77715  23.654  28.046   7.621
76851W        W77716  22.086  26.829   9.314
76852W        W77717  22.979  26.720  10.551
76853W        W77718  25.438  26.579   9.050
76854W        W77719  25.202  27.622   9.909
76855W        W77720  23.510  26.955   8.936
76856W        W77721  24.056  28.294   9.305
76857W        W77722  22.556  27.728   9.537
76858W        W77723  21.915  27.256   9.108
76859W        W77724  22.951  27.228  10.300
76860W        W77725  25.222  27.011  10.554
76861W        W77726  22.838  28.455   8.999
76862W        W77727  23.959  28.144  10.133
76863W        W77728  23.179  26.784   9.358
76864W        W77729  23.471  27.568   9.001
76865W        W77730  24.468  28.341  10.849
76866W        W77731  23.547  27.661  10.859
76867W        W77732  23.528  27.377  10.337
76868W        W77733  21.937  26.768  10.859
76869W        W77734  24.769  28.303  10.458
76870W        W77735  22.350  25.885   8.456
76871W        W77736  22.877  28.143   9.455
76872W        W77737  25.340  27.926   8.745
76873W        W77738  24.753  26.326   9.312
76874W        W77739  25.038  26.279   7.407
76875W        W77740  25.503  27.080   9.713
76876W        W77741  23.470  28.787   9.466
76877W        W77742  25.244  28.253   7.904
76878W        W77743  22.373  29.039   7.658
76879W        W77744  22.766  29.085   8.334
76880W        W77745  22.563  25.839   9.760
76881W        W77746  25.186  26.857  10.035
76882W        W77747  24.591  27.279   8.494
76883W        W77748  24.557  26.967   7.521
76884W        W77749  23.765  28.111   9.661
76885W        W77750  23.571  26.441   8.860
76886W        W77751  24.171  28.528   9.854
76887W        W77752  25.042  27.319   8.276
76888W        W77753  23.944  25.977   8.292
76889W        W77754  22.601  28.671   7.975
76890W        W77755  21.972  26.170   8.574
76891W        W77756  24.758  26.777   9.048
76892W        W77757  22.216  28.394   8.963
76893W        W77758  23.557  28.744   7.833
76894W        W77759  24.949  26.770   7.297
76895W        W77760  21.972  28.528   9.461
76896W        W77761  22.763  28.100   9.941
76897W        W77762  23.136  27.460   8.560
76898W        W77763  23.158  25.865   9.653
76899W        W77764  25.387  25.627   8.950
76900W        W77765  22.606  27.499   7.418
76901W        W77766  22.261  26.532   7.597
76902W        W77767  22.323  28.488   8.391
76903W        W77768  23.454  27.971   8.639
76904W        W77769  24.786  28.830  10.353
76905W        W77770  23.712  26.472   8.037
76906W        W77771  25.095  28.870   8.809
76907W        W77772  24.772  26.723  10.407
76908W        W77773  25.485  28.379   8.541
76909W        W77774  24.112  27.671  10.025
76910W        W77775  21.878  27.222   8.231
76911W        W77776  22.989  27.637   9.804
76912W        W77777  24.193  26.901   8.182
76913W        W77778  24.070  27.391   8.286
76914W        W77779  22.413  26.811   9.760
76915W        W77780  22.398  26.687  10.682
76916W        W77781  22.288  25.604   8.841
76917W        W77782  24.056  25.951   9.402
76918W        W77783  23.704  26.136  10.565
76919W        W77784  24.059  26.285   7.743
76920W        W77785  25.242  28.678  10.497
76921W        W77786  24.209  25.759  10.536
76922W        W77787  25.228  28.060  10.658
76923W        W77788  24.658  26.227  10.254
76924W        W77789  24.458  26.165   8.524
76925W        W77790  24.851  27.299  10.928
76926W        W77791  22.591  28.875   8.914
76927W        W77792  23.249  26.592   7.900
76928W        W77793  22.818  25.876  10.564
76929W        W77794  24.870  26.360   8.245
76930W        W77795  25.237  26.842   8.190
76931W        W77796  22.980  29.059  10.661
76932W        W77797  22.906  25.595   7.896
76933W        W77798  25.227  26.129   8.931
76934W        W77799  25.377  28.378   7.376
76935W        W77800  22.284  27.581   9.078
76936W        W77801  24.201  26.168   7.308
76937W        W77802  25.335  28.500   9.028
76938W        W77803  25.374  25.694   9.778
76939W        W77804  23.819  26.906  10.332
76940W        W77805  23.912  28.245   8.035
76941W        W77806  24.312  27.539  10.775
76942W        W77807  23.986  25.516   9.084
76943W        W77808  22.598  26.419   9.147
76944W        W77809  22.152  27.619   9.921
76945W        W77810  24.011  28.812   8.627
76946W        W77811  25.205  26.409   9.499
76947W        W77812  23.842  28.756  10.266
76948W        W77813  25.185  27.815   7.471
76949W        W77814  23.620  27.298   8.532
76950W        W77815  25.472  25.809  10.273
76951W        W77816  23.621  27.644   9.867
76952W        W77817  23.838  26.530   9.312
76953W        W77818  24.690  26.828   8.150
76954W        W77819  24.977  26.561   7.792
76955W        W77820  24.786  28.601   8.181
76956W        W77821  24.620  28.204   8.977
76957W        W77822  24.516  27.283   7.955
76958W        W77823  23.949  27.493   8.941
76959W        W77824  24.830  27.281   9.008
76960W        W77825  22.205  26.296   9.432
76961W        W77826  24.983  27.348  10.259
76962W        W77827  25.334  28.966   9.405
76963W        W77828  23.264  28.410   8.807
76964W        W77829  24.271  28.943  10.131
76965W        W77830  24.265  26.273   9.895
76966W        W77831  23.472  28.981   9.956
76967W        W77832  25.169  25.935   8.422
76968W        W77833  24.960  27.254   9.723
76969W        W77834  21.943  26.575   9.761
76970W        W77835  24.803  26.370   8.779
76971W        W77836  25.214  26.521  10.556
76972W        W77837  24.099  28.220   8.774
76973W        W77838  23.355  28.811   8.387
76974W        W77839  22.470  25.991   7.645
76975W        W77840  23.574  25.645   9.455
76976W        W77841  22.976  27.231   8.054
76977W        W77842  23.630  27.860  10.367
76978W        W77843  23.460  26.218   8.357
76979W        W77844  24.816  25.815   8.785
76980W        W77845  24.536  29.097   9.113
76981W        W77846  23.948  28.745   9.453
76982W        W77847  23.344  27.782   9.414
76983W        W77848  25.114  28.505   9.540
76984W        W77849  22.808  26.008   8.309
76985W        W77850  23.330  28.305   9.269
76986W        W77851  22.813  26.236   7.334
76987W        W77852  23.614  26.845   9.728
76988W        W77853  24.462  25.711   9.598
76989W        W77854  21.882  27.554   9.483
76990W        W77855  23.586  27.372   7.641
76991W        W77856  22.854  25.687   7.411
76992W        W77857  23.592  26.768   8.462
76993W        W77858  24.562  25.744  10.161
76994W        W77859  23.150  27.756  10.270
76995W        W77860  23.954  27.538  10.487
76996W        W77861  24.571  27.568  10.380
76997W        W77862  23.855  25.708  10.885
76998W        W77863  23.077  26.324   9.278
76999W        W77864  22.503  26.280   8.676
77000W        W77865  22.289  28.992   8.352
77001W        W77866  23.621  28.322  10.477
77002W        W77867  22.656  27.807   7.836
77003W        W77868  24.336  27.192   9.057
77004W        W77869  24.616  26.991   9.456
77005W        W77870  23.821  27.665   9.390
77006W        W77871  24.291  28.039   7.522
77007W        W77872  23.963  26.060   8.850
77008W        W77873  25.442  26.338   8.118
77009W        W77874  21.936  28.927  10.149
77010W        W77875  22.353  28.153   9.681
77011W        W77876  21.920  28.999   7.913
77012W        W77877  23.819  26.269   9.719
77013W        W77878  23.182  28.292   7.568
77014W        W77879  25.087  28.674   7.754
77015W        W77880  24.062  27.327   7.768
77016W        W77881  22.905  26.518   8.285
77017W        W77882  23.737  26.428   7.337
77018W        W77883  24.321  27.993  10.515
77019W        W77884  24.674  25.899   8.132
77020W        W77885  22.004  25.747   7.580
77021W        W77886  23.290  28.066   9.870
77022W        W77887  23.089  27.982   8.962
77023W        W77888  22.831  27.934   7.360
77024W        W77889  22.072  28.175   8.128
77025W        W77890  22.576  27.245  10.570
77026W        W77891  23.280  25.805  10.756
77027W        W77892  23.989  25.947  10.112
77028W        W77893  23.184  25.715   8.393
77029W        W77894  24.243  25.792   7.898
77030W        W77895  22.188  25.724   9.475
77031W        W77896  22.236  26.687   8.845
77032W        W77897  24.925  25.795   9.251
77033W        W77898  22.347  26.293   8.065
77034W        W77899  24.918  25.981   9.681
77035W        W77900  25.314  27.184   7.366
77036W        W77901  22.606  25.942   9.185
77037W        W77902  23.720  26.514  10.125
77038W        W77903  21.868  26.204   7.603
77039W        W77904  22.654  27.593  10.164
77040W        W77905  24.012  26.991   9.343
77041W        W77906  23.879  29.070   7.639
77042W        W77907  22.025  27.577   7.336
77043W        W77908  22.760  27.988  10.462
77044W        W77909  22.281  27.155  10.093
77045W        W77910  23.272  27.260   9.887
77046W        W77911  25.040  25.619  10.149
77047W        W77912  25.438  27.229  10.140
77048W        W77913  25.426  27.429   7.826
77049W        W77914  24.289  27.761   7.925
77050W        W77915  24.763  29.061   7.620
77051W        W77916  23.940  27.051  10.762
77052W        W77917  22.270  28.018  10.802
77053W        W77918  25.476  25.940  10.754
77054W        W77919  25.194  26.868   9.375
77055W        W77920  23.502  28.998  10.852
77056W        W77921  23.357  25.627   7.579
77057W        W77922  24.896  28.226   7.522
77058W        W77923  22.665  26.319  10.408
77059W        W77924  23.099  28.313  10.270
77060W        W77925  25.225  26.304  10.068
77061W        W77926  24.436  28.963   8.036
77062W        W77927  24.675  27.582   9.403
77063W        W77928  22.925  25.998  10.070
77064W        W77929  23.394  27.067  10.827
77065W        W77930  22.897  28.246   8.021
77066W        W77931  24.652  27.744   8.285
77067W        W77932  22.420  26.370  10.009
77068W        W77933  23.749  28.432   8.473
77069W        W77934  25.499  26.992   8.654
77070W        W77935  23.721  25.625  10.373
77071W        W77936  24.501  28.330   9.452
77072W        W77937  24.804  28.674   9.160
77073W        W77938  24.023  28.476   7.588
77074W        W77939  22.033  28.368  10.430
77075W        W77940  22.776  26.360   9.668
77076W        W77941  22.746  25.708   8.778
77077W        W77942  24.367  26.550   9.470
77078W        W77943  23.165  27.721   7.670
77079W        W77944  25.163  27.663   9.169
77080W        W77945  22.490  28.421  10.592
77081W        W77946  24.877  29.103   8.389
77082W        W77947  22.976  26.123   8.834
77083W        W77948  22.745  27.616   8.924
77084W        W77949  23.058  29.027   9.674
77085W        W77950  25.125  29.123  10.706
77086W        W77951  24.284  27.311   9.639
77087W        W77952  22.133  27.109   7.554
77088W        W77953  25.267  28.767   8.251
77089W        W77954  25.104  26.091   7.870
77090W        W77955  23.243  25.610  10.273
77091W        W77956  24.949  28.412   8.731
77092W        W77957  24.978  26.968   8.636
77093W        W77958  23.095  26.641   8.852
77094W        W77959  23.340  26.903  10.176
77095W        W77960  24.451  28.056  10.039
77096W        W77961  23.101  26.510  10.151
77097W        W77962  23.080  28.976   8.767
77098W        W77963  22.397  28.935  10.401
77099W        W77964  22.509  28.296   7.531
77100W        W77965  25.026  28.054   8.341
77101W        W77966  22.630  26.846  10.227
77102W        W77967  25.403  26.776   7.708
77103W        W77968  23.148  27.833   8.179
77104W        W77969  24.247  27.215  10.260
77105W        W77970  24.138  26.843   9.804
77106W        W77971  22.698  27.215   9.833
77107W        W77972  24.908  29.103   9.662
77108W        W77973  24.699  25.737  10.656
77109W        W77974  22.363  25.887  10.243
77110W        W77975  22.702  26.910   9.296
77111W        W77976  23.071  26.724   7.418
77112W        W77977  21.874  28.483   9.963
77113W        W77978  23.459  27.192   9.406
77114W        W77979  23.282  26.217   7.511
77115W        W77980  22.417  27.033   8.292
77116W        W77981  22.188  28.885   9.729
77117W        W77982  24.983  27.111   7.837
77118W        W77983  25.078  26.027  10.523
77119W        W77984  24.514  28.236   8.486
77120W        W77985  22.112  27.160  10.663
77121W        W77986  25.078  25.624   7.959
77122W        W77987  24.598  28.099   7.970
77123W        W77988  23.500  27.157   8.055
77124W        W77989  24.687  25.961   7.578
77125W        W77990  24.752  26.568   9.764
77126W        W77991  22.461  27.161   8.971
77127W        W77992  22.755  28.100   8.620
77128W        W77993  24.518  26.720   8.585
77129W        W77994  23.541  26.099   9.281
77130W        W77995  25.503  28.010   9.792
77131W        W77996  25.421  25.997   9.353
77132W        W77997  21.960  28.827   8.729
77133W        W77998  22.469  28.014   8.265
77134W        W77999  22.384  25.631  10.818
77135W        W78000  23.503  28.484  10.920
77136W        W78001  25.258  27.452   8.710
77137W        W78002  24.612  27.629   7.590
77138W        W78003  23.907  29.150   9.802
77139W        W78004  24.764  27.872  10.839
77140W        W78005  23.579  25.582   8.119
77141W        W78006  24.292  26.451   8.978
77142W        W78007  21.978  28.038   9.310
77143W        W78008  23.231  26.000   7.951
77144W        W78009  23.035  27.484  10.800
77145W        W78010  24.029  26.465   8.514
77146W        W78011  24.234  27.875   9.636
77147W        W78012  22.388  28.480  10.071
77148W        W78013  22.979  28.463  10.794
77149W        W78014  22.830  26.260   7.808
77150W        W78015  24.347  26.402   8.133
77151W        W78016  24.305  28.510  10.370
77152W        W78017  22.990  27.102   8.969
77153W        W78018  22.645  28.800   9.834
77154W        W78019  25.390  28.917   7.435
77155W        W78020  22.253  27.589  10.431
77156W        W78021  24.248  27.851   9.119
77157W        W78022  22.684  27.500   8.361
77158W        W78023  23.055  28.507   9.756
77159W        W78024  23.433  25.926   8.797
77160W        W78025  22.044  27.910   7.727
77161W        W78026  23.563  26.861   7.597
77162W        W78027  22.209  27.410   8.616
77163W        W78028  23.499  26.052  10.080
77164W        W78029  25.171  25.761   7.507
77165W        W78030  25.264  27.507  10.606
77166W        W78031  23.918  28.764  10.758
77167W        W78032  25.476  27.858  10.280
77168W        W78033  24.884  28.656  10.891
77169W        W78034  22.623  29.112   9.369
77170W        W78035  25.482  27.734   8.243
77171W        W78036  24.012  27.001   8.756
77172W        W78037  23.779  25.613   8.646
77173W        W78038  22.838  28.597   8.483
77174W        W78039  23.337  26.338   9.708
77175W        W78040  23.037  25.707   9.177
77176W        W78041  22.100  28.529   7.725
77177W        W78042  23.916  27.893   8.443
77178W        W78043  22.791  28.688  10.322
77179W        W78044  22.268  27.511   8.018
77180W        W78045  22.153  26.054   9.017
77181W        W78046  23.701  28.019   9.074
77182W        W78047  21.953  25.873   8.094
77183W        W78048  24.617  27.079  10.021
77184W        W78049  24.494  26.465   7.593
77185W        W78050  25.011  28.137   9.241
77186W        W78051  23.672  28.621   9.072
77187W        W78052  23.084  28.725   7.983
77188W        W78053  24.366  25.628   7.413
77189W        W78054  22.166  28.888   9.154
77190W        W78055  24.363  26.646  10.789
77191W        W78056  22.346  26.176  10.788
77192W        W78057  22.077  26.776   8.121
77193W        W78058  22.768  26.765   7.846
77194W        W78059  24.531  27.092  10.663
77195W        W78060  22.874  27.373   9.372
77196W        W78061  24.348  25.659   8.492
77197W        W78062  23.479  29.090   8.995
77198W        W78063  24.693  28.552   9.932
77199W        W78064  24.277  28.701   9.043
77200W        W78065  24.296  27.681   8.637
77201W        W78066  23.758  25.906   7.708
77202W        W78067  25.439  25.534   8.430
77203W        W78068  23.127  27.169   7.593
77204W        W78069  25.293  26.506   8.583
77205W        W78070  23.985  27.676   7.460
77206W        W78071  24.921  27.876  10.208
77207W        W78072  24.575  28.577   7.675
77208W        W78073  23.190  26.252  10.581
77209W        W78074  23.010  26.836   9.822
77210W        W78075  25.102  28.331  10.099
77211W        W78076  24.202  26.281  10.476
77212W        W78077  22.046  26.752  10.253
77213W        W78078  23.806  27.229   9.979
77214W        W78079  22.163  27.987   8.636
77215W        W78080  22.310  27.284   9.526
77216W        W78081  24.627  27.570   9.876
77217W        W78082  24.399  28.950  10.687
77218W        W78083  24.295  26.689  10.240
77219W        W78084  24.572  28.743   8.645
77220W        W78085  23.574  28.463   9.968
77221W        W78086  23.059  28.818   9.237
77222W        W78087  24.864  27.989   9.656
77223W        W78088  23.914  28.061  10.793
77224W        W78089  22.519  28.014   9.132
77225W        W78090  24.865  27.773   8.777
77226W        W78091  24.506  28.839   9.528
77227W        W78092  22.484  28.568   9.398
77228W        W78093  23.505  26.620  10.608
77229W        W78094  23.956  28.786   8.119
77230W        W78095  23.264  28.041  10.757
77231W        W78096  23.390  28.279   8.134
77232W        W78097  22.611  27.019   7.393
77233W        W78098  21.950  29.105  14.292
77234W        W78099  22.326  27.998  13.815
77235W        W78100  25.031  27.728  11.585
77236W        W78101  25.161  28.813  13.612
77237W        W78102  23.079  28.804  11.138
77238W        W78103  23.162  26.956  12.121
77239W        W78104  22.677  26.804  12.285
77240W        W78105  23.668  27.619  11.719
77241W        W78106  23.343  28.711  14.074
77242W        W78107  21.992  26.272  14.037
77243W        W78108  22.754  25.552  13.839
77244W        W78109  24.448  25.940  12.726
77245W        W78110  24.097  26.811  11.296
77246W        W78111  24.667  26.245  14.387
77247W        W78112  22.033  26.037  13.512
77248W        W78113  22.132  28.656  14.533
77249W        W78114  23.654  28.046  11.265
77250W        W78115  22.086  26.829  12.958
77251W        W78116  22.979  26.720  14.195
77252W        W78117  25.438  26.579  12.694
77253W        W78118  25.202  27.622  13.553
77254W        W78119  23.510  26.955  12.580
77255W        W78120  24.056  28.294  12.949
77256W        W78121  22.556  27.728  13.181
77257W        W78122  21.915  27.256  12.752
77258W        W78123  22.951  27.228  13.944
77259W        W78124  25.222  27.011  14.198
77260W        W78125  22.838  28.455  12.643
77261W        W78126  23.959  28.144  13.777
77262W        W78127  23.179  26.784  13.002
77263W        W78128  23.471  27.568  12.645
77264W        W78129  24.468  28.341  14.493
77265W        W78130  23.547  27.661  14.503
77266W        W78131  23.528  27.377  13.981
77267W        W78132  21.937  26.768  14.503
77268W        W78133  24.769  28.303  14.102
77269W        W78134  22.350  25.885  12.100
77270W        W78135  22.877  28.143  13.099
77271W        W78136  25.340  27.926  12.389
77272W        W78137  24.753  26.326  12.956
77273W        W78138  25.038  26.279  11.051
77274W        W78139  25.503  27.080  13.357
77275W        W78140  23.470  28.787  13.110
77276W        W78141  25.244  28.253  11.548
77277W        W78142  22.373  29.039  11.302
77278W        W78143  22.766  29.085  11.978
77279W        W78144  22.563  25.839  13.404
77280W        W78145  25.186  26.857  13.679
77281W        W78146  24.591  27.279  12.138
77282W        W78147  24.557  26.967  11.165
77283W        W78148  23.765  28.111  13.305
77284W        W78149  23.571  26.441  12.504
77285W        W78150  24.171  28.528  13.498
77286W        W78151  25.042  27.319  11.920
77287W        W78152  23.944  25.977  11.936
77288W        W78153  22.601  28.671  11.619
77289W        W78154  21.972  26.170  12.218
77290W        W78155  24.758  26.777  12.692
77291W        W78156  22.216  28.394  12.607
77292W        W78157  23.557  28.744  11.477
77293W        W78158  24.949  26.770  10.941
77294W        W78159  21.972  28.528  13.105
77295W        W78160  22.763  28.100  13.585
77296W        W78161  23.136  27.460  12.204
77297W        W78162  23.158  25.865  13.297
77298W        W78163  25.387  25.627  12.594
77299W        W78164  22.606  27.499  11.062
77300W        W78165  22.261  26.532  11.241
77301W        W78166  22.323  28.488  12.035
77302W        W78167  23.454  27.971  12.283
77303W        W78168  24.786  28.830  13.997
77304W        W78169  23.712  26.472  11.681
77305W        W78170  25.095  28.870  12.453
77306W        W78171  24.772  26.723  14.051
77307W        W78172  25.485  28.379  12.185
77308W        W78173  24.112  27.671  13.669
77309W        W78174  21.878  27.222  11.875
77310W        W78175  22.989  27.637  13.448
77311W        W78176  24.193  26.901  11.826
77312W        W78177  24.070  27.391  11.930
77313W        W78178  22.413  26.811  13.404
77314W        W78179  22.398  26.687  14.326
77315W        W78180  22.288  25.604  12.485
77316W        W78181  24.056  25.951  13.046
77317W        W78182  23.704  26.136  14.209
77318W        W78183  24.059  26.285  11.387
77319W        W78184  25.242  28.678  14.141
77320W        W78185  24.209  25.759  14.180
77321W        W78186  25.228  28.060  14.302
77322W        W78187  24.658  26.227  13.898
77323W        W78188  24.458  26.165  12.168
77324W        W78189  24.851  27.299  14.572
77325W        W78190  22.591  28.875  12.558
77326W        W78191  23.249  26.592  11.544
77327W        W78192  22.818  25.876  14.208
77328W        W78193  24.870  26.360  11.889
77329W        W78194  25.237  26.842  11.834
77330W        W78195  22.980  29.059  14.305
77331W        W78196  22.906  25.595  11.540
77332W        W78197  25.227  26.129  12.575
77333W        W78198  25.377  28.378  11.020
77334W        W78199  22.284  27.581  12.722
77335W        W78200  24.201  26.168  10.952
77336W        W78201  25.335  28.500  12.672
77337W        W78202  25.374  25.694  13.422
77338W        W78203  23.819  26.906  13.976
77339W        W78204  23.912  28.245  11.679
77340W        W78205  24.312  27.539  14.419
77341W        W78206  23.986  25.516  12.728
77342W        W78207  22.598  26.419  12.791
77343W        W78208  22.152  27.619  13.565
77344W        W78209  24.011  28.812  12.271
77345W        W78210  25.205  26.409  13.143
77346W        W78211  23.842  28.756  13.910
77347W        W78212  25.185  27.815  11.115
77348W        W78213  23.620  27.298  12.176
77349W        W78214  25.472  25.809  13.917
77350W        W78215  23.621  27.644  13.511
77351W        W78216  23.838  26.530  12.956
77352W        W78217  24.690  26.828  11.794
77353W        W78218  24.977  26.561  11.436
77354W        W78219  24.786  28.601  11.825
77355W        W78220  24.620  28.204  12.621
77356W        W78221  24.516  27.283  11.599
77357W        W78222  23.949  27.493  12.585
77358W        W78223  24.830  27.281  12.652
77359W        W78224  22.205  26.296  13.076
77360W        W78225  24.983  27.348  13.903
77361W        W78226  25.334  28.966  13.049
77362W        W78227  23.264  28.410  12.451
77363W        W78228  24.271  28.943  13.775
77364W        W78229  24.265  26.273  13.539
77365W        W78230  23.472  28.981  13.600
77366W        W78231  25.169  25.935  12.066
77367W        W78232  24.960  27.254  13.367
77368W        W78233  21.943  26.575  13.405
77369W        W78234  24.803  26.370  12.423
77370W        W78235  25.214  26.521  14.200
77371W        W78236  24.099  28.220  12.418
77372W        W78237  23.355  28.811  12.031
77373W        W78238  22.470  25.991  11.289
77374W        W78239  23.574  25.645  13.099
77375W        W78240  22.602  28.765  10.947
77376W        W78241  22.976  27.231  11.698
77377W        W78242  23.630  27.860  14.011
77378W        W78243  23.460  26.218  12.001
77379W        W78244  24.816  25.815  12.429
77380W        W78245  24.536  29.097  12.757
77381W        W78246  23.948  28.745  13.097
77382W        W78247  23.344  27.782  13.058
77383W        W78248  25.114  28.505  13.184
77384W        W78249  22.808  26.008  11.953
77385W        W78250  23.330  28.305  12.913
77386W        W78251  22.813  26.236  10.978
77387W        W78252  23.614  26.845  13.372
77388W        W78253  24.462  25.711  13.242
77389W        W78254  21.882  27.554  13.127
77390W        W78255  23.586  27.372  11.285
77391W        W78256  22.854  25.687  11.055
77392W        W78257  23.592  26.768  12.106
77393W        W78258  24.562  25.744  13.805
77394W        W78259  23.150  27.756  13.914
77395W        W78260  23.954  27.538  14.131
77396W        W78261  24.571  27.568  14.024
77397W        W78262  23.855  25.708  14.529
77398W        W78263  23.077  26.324  12.922
77399W        W78264  22.503  26.280  12.320
77400W        W78265  22.289  28.992  11.996
77401W        W78266  23.621  28.322  14.121
77402W        W78267  22.656  27.807  11.480
77403W        W78268  24.336  27.192  12.701
77404W        W78269  24.616  26.991  13.100
77405W        W78270  23.821  27.665  13.034
77406W        W78271  24.291  28.039  11.166
77407W        W78272  23.963  26.060  12.494
77408W        W78273  25.442  26.338  11.762
77409W        W78274  21.936  28.927  13.793
77410W        W78275  22.353  28.153  13.325
77411W        W78276  21.920  28.999  11.557
77412W        W78277  23.819  26.269  13.363
77413W        W78278  23.182  28.292  11.212
77414W        W78279  25.087  28.674  11.398
77415W        W78280  24.062  27.327  11.412
77416W        W78281  22.905  26.518  11.929
77417W        W78282  23.737  26.428  10.981
77418W        W78283  24.321  27.993  14.159
77419W        W78284  24.674  25.899  11.776
77420W        W78285  22.004  25.747  11.224
77421W        W78286  23.290  28.066  13.514
77422W        W78287  23.089  27.982  12.606
77423W        W78288  22.831  27.934  11.004
77424W        W78289  22.072  28.175  11.772
77425W        W78290  22.576  27.245  14.214
77426W        W78291  23.280  25.805  14.400
77427W        W78292  23.989  25.947  13.756
77428W        W78293  23.184  25.715  12.037
77429W        W78294  24.243  25.792  11.542
77430W        W78295  22.188  25.724  13.119
77431W        W78296  22.236  26.687  12.489
77432W        W78297  24.925  25.795  12.895
77433W        W78298  22.347  26.293  11.709
77434W        W78299  24.918  25.981  13.325
77435W        W78300  25.314  27.184  11.010
77436W        W78301  22.606  25.942  12.829
77437W        W78302  23.720  26.514  13.769
77438W        W78303  21.868  26.204  11.247
77439W        W78304  22.654  27.593  13.808
77440W        W78305  24.012  26.991  12.987
77441W        W78306  23.879  29.070  11.283
77442W        W78307  22.025  27.577  10.980
77443W        W78308  22.760  27.988  14.106
77444W        W78309  22.281  27.155  13.737
77445W        W78310  23.272  27.260  13.531
77446W        W78311  25.040  25.619  13.793
77447W        W78312  25.438  27.229  13.784
77448W        W78313  25.426  27.429  11.470
77449W        W78314  24.289  27.761  11.569
77450W        W78315  24.763  29.061  11.264
77451W        W78316  23.940  27.051  14.406
77452W        W78317  22.270  28.018  14.446
77453W        W78318  25.476  25.940  14.398
77454W        W78319  25.194  26.868  13.019
77455W        W78320  23.502  28.998  14.496
77456W        W78321  23.357  25.627  11.223
77457W        W78322  24.896  28.226  11.166
77458W        W78323  22.665  26.319  14.052
77459W        W78324  23.099  28.313  13.914
77460W        W78325  25.225  26.304  13.712
77461W        W78326  24.436  28.963  11.680
77462W        W78327  24.675  27.582  13.047
77463W        W78328  22.925  25.998  13.714
77464W        W78329  23.394  27.067  14.471
77465W        W78330  22.897  28.246  11.665
77466W        W78331  24.652  27.744  11.929
77467W        W78332  22.420  26.370  13.653
77468W        W78333  23.749  28.432  12.117
77469W        W78334  25.499  26.992  12.298
77470W        W78335  23.721  25.625  14.017
77471W        W78336  24.501  28.330  13.096
77472W        W78337  24.804  28.674  12.804
77473W        W78338  24.023  28.476  11.232
77474W        W78339  22.033  28.368  14.074
77475W        W78340  22.776  26.360  13.312
77476W        W78341  22.746  25.708  12.422
77477W        W78342  24.367  26.550  13.114
77478W        W78343  23.165  27.721  11.314
77479W        W78344  25.163  27.663  12.813
77480W        W78345  22.490  28.421  14.236
77481W        W78346  24.877  29.103  12.033
77482W        W78347  22.976  26.123  12.478
77483W        W78348  22.745  27.616  12.568
77484W        W78349  23.058  29.027  13.318
77485W        W78350  25.125  29.123  14.350
77486W        W78351  24.284  27.311  13.283
77487W        W78352  22.133  27.109  11.198
77488W        W78353  25.267  28.767  11.895
77489W        W78354  25.104  26.091  11.514
77490W        W78355  23.243  25.610  13.917
77491W        W78356  24.949  28.412  12.375
77492W        W78357  24.978  26.968  12.280
77493W        W78358  23.095  26.641  12.496
77494W        W78359  23.340  26.903  13.820
77495W        W78360  24.451  28.056  13.683
77496W        W78361  23.101  26.510  13.795
77497W        W78362  23.080  28.976  12.411
77498W        W78363  22.397  28.935  14.045
77499W        W78364  22.509  28.296  11.175
77500W        W78365  25.026  28.054  11.985
77501W        W78366  22.630  26.846  13.871
77502W        W78367  25.403  26.776  11.352
77503W        W78368  23.148  27.833  11.823
77504W        W78369  24.247  27.215  13.904
77505W        W78370  24.138  26.843  13.448
77506W        W78371  22.698  27.215  13.477
77507W        W78372  24.908  29.103  13.306
77508W        W78373  24.699  25.737  14.300
77509W        W78374  22.363  25.887  13.887
77510W        W78375  22.702  26.910  12.940
77511W        W78376  23.071  26.724  11.062
77512W        W78377  21.874  28.483  13.607
77513W        W78378  23.459  27.192  13.050
77514W        W78379  23.282  26.217  11.155
77515W        W78380  22.417  27.033  11.936
77516W        W78381  22.188  28.885  13.373
77517W        W78382  24.983  27.111  11.481
77518W        W78383  25.078  26.027  14.167
77519W        W78384  24.514  28.236  12.130
77520W        W78385  22.112  27.160  14.307
77521W        W78386  25.078  25.624  11.603
77522W        W78387  24.598  28.099  11.614
77523W        W78388  23.500  27.157  11.699
77524W        W78389  24.687  25.961  11.222
77525W        W78390  24.752  26.568  13.408
77526W        W78391  22.461  27.161  12.615
77527W        W78392  22.755  28.100  12.264
77528W        W78393  24.518  26.720  12.229
77529W        W78394  23.541  26.099  12.925
77530W        W78395  25.503  28.010  13.436
77531W        W78396  25.421  25.997  12.997
77532W        W78397  21.960  28.827  12.373
77533W        W78398  22.469  28.014  11.909
77534W        W78399  22.384  25.631  14.462
77535W        W78400  23.503  28.484  14.564
77536W        W78401  25.258  27.452  12.354
77537W        W78402  24.612  27.629  11.234
77538W        W78403  23.907  29.150  13.446
77539W        W78404  24.764  27.872  14.483
77540W        W78405  23.579  25.582  11.763
77541W        W78406  24.292  26.451  12.622
77542W        W78407  21.978  28.038  12.954
77543W        W78408  23.231  26.000  11.595
77544W        W78409  23.035  27.484  14.444
77545W        W78410  24.029  26.465  12.158
77546W        W78411  24.234  27.875  13.280
77547W        W78412  22.388  28.480  13.715
77548W        W78413  22.979  28.463  14.438
77549W        W78414  22.830  26.260  11.452
77550W        W78415  24.347  26.402  11.777
77551W        W78416  24.305  28.510  14.014
77552W        W78417  22.990  27.102  12.613
77553W        W78418  22.645  28.800  13.478
77554W        W78419  25.390  28.917  11.079
77555W        W78420  22.253  27.589  14.075
77556W        W78421  24.248  27.851  12.763
77557W        W78422  22.684  27.500  12.005
77558W        W78423  23.055  28.507  13.400
77559W        W78424  23.433  25.926  12.441
77560W        W78425  22.044  27.910  11.371
77561W        W78426  23.563  26.861  11.241
77562W        W78427  22.209  27.410  12.260
77563W        W78428  23.499  26.052  13.724
77564W        W78429  25.171  25.761  11.151
77565W        W78430  25.264  27.507  14.250
77566W        W78431  23.918  28.764  14.402
77567W        W78432  25.476  27.858  13.924
77568W        W78433  24.884  28.656  14.535
77569W        W78434  22.623  29.112  13.013
77570W        W78435  25.482  27.734  11.887
77571W        W78436  24.012  27.001  12.400
77572W        W78437  23.779  25.613  12.290
77573W        W78438  22.838  28.597  12.127
77574W        W78439  23.337  26.338  13.352
77575W        W78440  23.037  25.707  12.821
77576W        W78441  22.100  28.529  11.369
77577W        W78442  23.916  27.893  12.087
77578W        W78443  22.791  28.688  13.966
77579W        W78444  22.268  27.511  11.662
77580W        W78445  22.153  26.054  12.661
77581W        W78446  23.701  28.019  12.718
77582W        W78447  21.953  25.873  11.738
77583W        W78448  24.617  27.079  13.665
77584W        W78449  24.494  26.465  11.237
77585W        W78450  25.011  28.137  12.885
77586W        W78451  23.672  28.621  12.716
77587W        W78452  23.084  28.725  11.627
77588W        W78453  24.366  25.628  11.057
77589W        W78454  22.166  28.888  12.798
77590W        W78455  24.363  26.646  14.433
77591W        W78456  22.346  26.176  14.432
77592W        W78457  22.077  26.776  11.765
77593W        W78458  22.768  26.765  11.490
77594W        W78459  24.531  27.092  14.307
77595W        W78460  22.874  27.373  13.016
77596W        W78461  24.348  25.659  12.136
77597W        W78462  23.479  29.090  12.639
77598W        W78463  24.693  28.552  13.576
77599W        W78464  24.277  28.701  12.687
77600W        W78465  24.296  27.681  12.281
77601W        W78466  23.758  25.906  11.352
77602W        W78467  25.439  25.534  12.074
77603W        W78468  23.127  27.169  11.237
77604W        W78469  25.293  26.506  12.227
77605W        W78470  23.985  27.676  11.104
77606W        W78471  24.921  27.876  13.852
77607W        W78472  24.575  28.577  11.319
77608W        W78473  23.190  26.252  14.225
77609W        W78474  23.010  26.836  13.466
77610W        W78475  25.102  28.331  13.743
77611W        W78476  24.202  26.281  14.120
77612W        W78477  22.046  26.752  13.897
77613W        W78478  23.806  27.229  13.623
77614W        W78479  22.163  27.987  12.280
77615W        W78480  22.310  27.284  13.170
77616W        W78481  24.627  27.570  13.520
77617W        W78482  24.399  28.950  14.331
77618W        W78483  24.295  26.689  13.884
77619W        W78484  24.572  28.743  12.289
77620W        W78485  23.574  28.463  13.612
77621W        W78486  23.059  28.818  12.881
77622W        W78487  24.864  27.989  13.300
77623W        W78488  23.914  28.061  14.437
77624W        W78489  22.519  28.014  12.776
77625W        W78490  24.865  27.773  12.421
77626W        W78491  24.506  28.839  13.172
77627W        W78492  22.484  28.568  13.042
77628W        W78493  23.505  26.620  14.252
77629W        W78494  23.956  28.786  11.763
77630W        W78495  23.264  28.041  14.401
77631W        W78496  23.390  28.279  11.778
77632W        W78497  22.611  27.019  11.037
77633W        W78498  21.950  29.105  17.936
77634W        W78499  22.326  27.998  17.459
77635W        W78500  25.031  27.728  15.229
77636W        W78501  25.161  28.813  17.256
77637W        W78502  23.079  28.804  14.782
77638W        W78503  23.162  26.956  15.765
77639W        W78504  22.677  26.804  15.929
77640W        W78505  23.668  27.619  15.363
77641W        W78506  23.343  28.711  17.718
77642W        W78507  21.992  26.272  17.681
77643W        W78508  22.754  25.552  17.483
77644W        W78509  24.448  25.940  16.370
77645W        W78510  24.097  26.811  14.940
77646W        W78511  24.667  26.245  18.031
77647W        W78512  22.033  26.037  17.156
77648W        W78513  22.132  28.656  18.177
77649W        W78514  23.654  28.046  14.909
77650W        W78515  22.086  26.829  16.602
77651W        W78516  22.979  26.720  17.839
77652W        W78517  25.438  26.579  16.338
77653W        W78518  25.202  27.622  17.197
77654W        W78519  23.510  26.955  16.224
77655W        W78520  24.056  28.294  16.593
77656W        W78521  22.556  27.728  16.825
77657W        W78522  21.915  27.256  16.396
77658W        W78523  22.951  27.228  17.588
77659W        W78524  25.222  27.011  17.842
77660W        W78525  22.838  28.455  16.287
77661W        W78526  23.959  28.144  17.421
77662W        W78527  23.179  26.784  16.646
77663W        W78528  23.471  27.568  16.289
77664W        W78529  24.468  28.341  18.137
77665W        W78530  23.547  27.661  18.147
77666W        W78531  23.528  27.377  17.625
77667W        W78532  21.937  26.768  18.147
77668W        W78533  24.769  28.303  17.746
77669W        W78534  22.350  25.885  15.744
77670W        W78535  22.877  28.143  16.743
77671W        W78536  25.340  27.926  16.033
77672W        W78537  24.753  26.326  16.600
77673W        W78538  25.038  26.279  14.695
77674W        W78539  25.503  27.080  17.001
77675W        W78540  23.470  28.787  16.754
77676W        W78541  25.244  28.253  15.192
77677W        W78542  22.373  29.039  14.946
77678W        W78543  22.766  29.085  15.622
77679W        W78544  22.563  25.839  17.048
77680W        W78545  25.186  26.857  17.323
77681W        W78546  24.591  27.279  15.782
77682W        W78547  24.557  26.967  14.809
77683W        W78548  23.765  28.111  16.949
77684W        W78549  23.571  26.441  16.148
77685W        W78550  24.171  28.528  17.142
77686W        W78551  25.042  27.319  15.564
77687W        W78552  23.944  25.977  15.580
77688W        W78553  22.601  28.671  15.263
77689W        W78554  21.972  26.170  15.862
77690W        W78555  24.758  26.777  16.336
77691W        W78556  22.216  28.394  16.251
77692W        W78557  23.557  28.744  15.121
77693W        W78558  24.949  26.770  14.585
77694W        W78559  21.972  28.528  16.749
77695W        W78560  22.763  28.100  17.229
77696W        W78561  23.136  27.460  15.848
77697W        W78562  23.158  25.865  16.941
77698W        W78563  25.387  25.627  16.238
77699W        W78564  22.606  27.499  14.706
77700W        W78565  22.261  26.532  14.885
77701W        W78566  22.323  28.488  15.679
77702W        W78567  23.454  27.971  15.927
77703W        W78568  24.786  28.830  17.641
77704W        W78569  23.712  26.472  15.325
77705W        W78570  25.095  28.870  16.097
77706W        W78571  24.772  26.723  17.695
77707W        W78572  25.485  28.379  15.829
77708W        W78573  24.112  27.671  17.313
77709W        W78574  21.878  27.222  15.519
77710W        W78575  22.989  27.637  17.092
77711W        W78576  24.193  26.901  15.470
77712W        W78577  24.070  27.391  15.574
77713W        W78578  22.413  26.811  17.048
77714W        W78579  22.398  26.687  17.970
77715W        W78580  22.288  25.604  16.129
77716W        W78581  24.056  25.951  16.690
77717W        W78582  23.704  26.136  17.853
77718W        W78583  24.059  26.285  15.031
77719W        W78584  25.242  28.678  17.785
77720W        W78585  24.209  25.759  17.824
77721W        W78586  25.228  28.060  17.946
77722W        W78587  24.658  26.227  17.542
77723W        W78588  24.458  26.165  15.812
77724W        W78589  24.851  27.299  18.216
77725W        W78590  22.591  28.875  16.202
77726W        W78591  23.249  26.592  15.188
77727W        W78592  22.818  25.876  17.852
77728W        W78593  24.870  26.360  15.533
77729W        W78594  25.237  26.842  15.478
77730W        W78595  22.980  29.059  17.949
77731W        W78596  22.906  25.595  15.184
77732W        W78597  25.227  26.129  16.219
77733W        W78598  25.377  28.378  14.664
77734W        W78599  22.284  27.581  16.366
77735W        W78600  24.201  26.168  14.596
77736W        W78601  25.335  28.500  16.316
77737W        W78602  25.374  25.694  17.066
77738W        W78603  23.819  26.906  17.620
77739W        W78604  24.312  27.539  18.063
77740W        W78605  23.986  25.516  16.372
77741W        W78606  22.598  26.419  16.435
77742W        W78607  22.152  27.619  17.209
77743W        W78608  24.011  28.812  15.915
77744W        W78609  25.205  26.409  16.787
77745W        W78610  23.842  28.756  17.554
77746W        W78611  25.185  27.815  14.759
77747W        W78612  23.620  27.298  15.820
77748W        W78613  25.472  25.809  17.561
77749W        W78614  23.621  27.644  17.155
77750W        W78615  23.838  26.530  16.600
77751W        W78616  24.690  26.828  15.438
77752W        W78617  24.977  26.561  15.080
77753W        W78618  24.786  28.601  15.469
77754W        W78619  24.620  28.204  16.265
77755W        W78620  24.516  27.283  15.243
77756W        W78621  23.949  27.493  16.229
77757W        W78622  24.830  27.281  16.296
77758W        W78623  22.205  26.296  16.720
77759W        W78624  24.983  27.348  17.547
77760W        W78625  25.334  28.966  16.693
77761W        W78626  23.264  28.410  16.095
77762W        W78627  24.271  28.943  17.419
77763W        W78628  24.265  26.273  17.183
77764W        W78629  23.472  28.981  17.244
77765W        W78630  25.169  25.935  15.710
77766W        W78631  24.960  27.254  17.011
77767W        W78632  21.943  26.575  17.049
77768W        W78633  24.803  26.370  16.067
77769W        W78634  25.214  26.521  17.844
77770W        W78635  24.099  28.220  16.062
77771W        W78636  23.355  28.811  15.675
77772W        W78637  22.470  25.991  14.933
77773W        W78638  23.574  25.645  16.743
77774W        W78639  22.602  28.765  14.591
77775W        W78640  22.976  27.231  15.342
77776W        W78641  23.630  27.860  17.655
77777W        W78642  23.460  26.218  15.645
77778W        W78643  24.816  25.815  16.073
77779W        W78644  24.536  29.097  16.401
77780W        W78645  23.948  28.745  16.741
77781W        W78646  23.344  27.782  16.702
77782W        W78647  25.114  28.505  16.828
77783W        W78648  22.808  26.008  15.597
77784W        W78649  23.330  28.305  16.557
77785W        W78650  22.813  26.236  14.622
77786W        W78651  23.614  26.845  17.016
77787W        W78652  24.462  25.711  16.886
77788W        W78653  21.882  27.554  16.771
77789W        W78654  23.586  27.372  14.929
77790W        W78655  22.854  25.687  14.699
77791W        W78656  23.592  26.768  15.750
77792W        W78657  24.562  25.744  17.449
77793W        W78658  23.150  27.756  17.558
77794W        W78659  23.954  27.538  17.775
77795W        W78660  24.571  27.568  17.668
77796W        W78661  23.855  25.708  18.173
77797W        W78662  23.077  26.324  16.566
77798W        W78663  22.503  26.280  15.964
77799W        W78664  22.289  28.992  15.640
77800W        W78665  23.621  28.322  17.765
77801W        W78666  22.656  27.807  15.124
77802W        W78667  24.336  27.192  16.345
77803W        W78668  24.616  26.991  16.744
77804W        W78669  23.821  27.665  16.678
77805W        W78670  24.291  28.039  14.810
77806W        W78671  23.963  26.060  16.138
77807W        W78672  25.442  26.338  15.406
77808W        W78673  21.936  28.927  17.437
77809W        W78674  22.353  28.153  16.969
77810W        W78675  21.920  28.999  15.201
77811W        W78676  23.819  26.269  17.007
77812W        W78677  23.182  28.292  14.856
77813W        W78678  25.087  28.674  15.042
77814W        W78679  24.062  27.327  15.056
77815W        W78680  22.905  26.518  15.573
77816W        W78681  23.737  26.428  14.625
77817W        W78682  24.321  27.993  17.803
77818W        W78683  24.674  25.899  15.420
77819W        W78684  22.004  25.747  14.868
77820W        W78685  23.290  28.066  17.158
77821W        W78686  23.089  27.982  16.250
77822W        W78687  22.831  27.934  14.648
77823W        W78688  22.072  28.175  15.416
77824W        W78689  22.576  27.245  17.858
77825W        W78690  23.280  25.805  18.044
77826W        W78691  23.989  25.947  17.400
77827W        W78692  23.184  25.715  15.681
77828W        W78693  24.243  25.792  15.186
77829W        W78694  22.188  25.724  16.763
77830W        W78695  22.236  26.687  16.133
77831W        W78696  24.925  25.795  16.539
77832W        W78697  22.347  26.293  15.353
77833W        W78698  24.918  25.981  16.969
77834W        W78699  25.314  27.184  14.654
77835W        W78700  22.606  25.942  16.473
77836W        W78701  23.720  26.514  17.413
77837W        W78702  21.868  26.204  14.891
77838W        W78703  22.654  27.593  17.452
77839W        W78704  24.012  26.991  16.631
77840W        W78705  23.879  29.070  14.927
77841W        W78706  22.025  27.577  14.624
77842W        W78707  22.760  27.988  17.750
77843W        W78708  22.281  27.155  17.381
77844W        W78709  23.272  27.260  17.175
77845W        W78710  25.040  25.619  17.437
77846W        W78711  25.438  27.229  17.428
77847W        W78712  25.426  27.429  15.114
77848W        W78713  24.289  27.761  15.213
77849W        W78714  24.763  29.061  14.908
77850W        W78715  23.940  27.051  18.050
77851W        W78716  22.270  28.018  18.090
77852W        W78717  25.476  25.940  18.042
77853W        W78718  25.194  26.868  16.663
77854W        W78719  23.502  28.998  18.140
77855W        W78720  23.357  25.627  14.867
77856W        W78721  24.896  28.226  14.810
77857W        W78722  22.665  26.319  17.696
77858W        W78723  23.099  28.313  17.558
77859W        W78724  25.225  26.304  17.356
77860W        W78725  24.436  28.963  15.324
77861W        W78726  24.675  27.582  16.691
77862W        W78727  22.925  25.998  17.358
77863W        W78728  23.394  27.067  18.115
77864W        W78729  22.897  28.246  15.309
77865W        W78730  24.652  27.744  15.573
77866W        W78731  22.420  26.370  17.297
77867W        W78732  23.749  28.432  15.761
77868W        W78733  25.499  26.992  15.942
77869W        W78734  23.721  25.625  17.661
77870W        W78735  24.501  28.330  16.740
77871W        W78736  24.804  28.674  16.448
77872W        W78737  24.023  28.476  14.876
77873W        W78738  22.033  28.368  17.718
77874W        W78739  22.776  26.360  16.956
77875W        W78740  22.746  25.708  16.066
77876W        W78741  24.367  26.550  16.758
77877W        W78742  23.165  27.721  14.958
77878W        W78743  25.163  27.663  16.457
77879W        W78744  22.490  28.421  17.880
77880W        W78745  24.877  29.103  15.677
77881W        W78746  22.976  26.123  16.122
77882W        W78747  22.745  27.616  16.212
77883W        W78748  23.058  29.027  16.962
77884W        W78749  25.125  29.123  17.994
77885W        W78750  24.284  27.311  16.927
77886W        W78751  22.133  27.109  14.842
77887W        W78752  25.267  28.767  15.539
77888W        W78753  25.104  26.091  15.158
77889W        W78754  23.243  25.610  17.561
77890W        W78755  24.949  28.412  16.019
77891W        W78756  24.978  26.968  15.924
77892W        W78757  23.095  26.641  16.140
77893W        W78758  23.340  26.903  17.464
77894W        W78759  24.451  28.056  17.327
77895W        W78760  23.101  26.510  17.439
77896W        W78761  23.080  28.976  16.055
77897W        W78762  22.397  28.935  17.689
77898W        W78763  22.509  28.296  14.819
77899W        W78764  25.026  28.054  15.629
77900W        W78765  22.630  26.846  17.515
77901W        W78766  25.403  26.776  14.996
77902W        W78767  23.148  27.833  15.467
77903W        W78768  24.247  27.215  17.548
77904W        W78769  24.138  26.843  17.092
77905W        W78770  22.698  27.215  17.121
77906W        W78771  24.908  29.103  16.950
77907W        W78772  24.699  25.737  17.944
77908W        W78773  22.363  25.887  17.531
77909W        W78774  22.702  26.910  16.584
77910W        W78775  23.071  26.724  14.706
77911W        W78776  21.874  28.483  17.251
77912W        W78777  23.459  27.192  16.694
77913W        W78778  23.282  26.217  14.799
77914W        W78779  22.417  27.033  15.580
77915W        W78780  22.188  28.885  17.017
77916W        W78781  24.983  27.111  15.125
77917W        W78782  25.078  26.027  17.811
77918W        W78783  24.514  28.236  15.774
77919W        W78784  22.112  27.160  17.951
77920W        W78785  25.078  25.624  15.247
77921W        W78786  24.598  28.099  15.258
77922W        W78787  23.500  27.157  15.343
77923W        W78788  24.687  25.961  14.866
77924W        W78789  24.752  26.568  17.052
77925W        W78790  22.461  27.161  16.259
77926W        W78791  22.755  28.100  15.908
77927W        W78792  24.518  26.720  15.873
77928W        W78793  23.541  26.099  16.569
77929W        W78794  25.503  28.010  17.080
77930W        W78795  25.421  25.997  16.641
77931W        W78796  21.960  28.827  16.017
77932W        W78797  22.469  28.014  15.553
77933W        W78798  22.384  25.631  18.106
77934W        W78799  23.503  28.484  18.208
77935W        W78800  25.258  27.452  15.998
77936W        W78801  24.612  27.629  14.878
77937W        W78802  23.907  29.150  17.090
77938W        W78803  24.764  27.872  18.127
77939W        W78804  23.579  25.582  15.407
77940W        W78805  24.292  26.451  16.266
77941W        W78806  21.978  28.038  16.598
77942W        W78807  23.231  26.000  15.239
77943W        W78808  23.035  27.484  18.088
77944W        W78809  24.029  26.465  15.802
77945W        W78810  24.234  27.875  16.924
77946W        W78811  22.388  28.480  17.359
77947W        W78812  22.979  28.463  18.082
77948W        W78813  22.830  26.260  15.096
77949W        W78814  24.347  26.402  15.421
77950W        W78815  24.305  28.510  17.658
77951W        W78816  22.990  27.102  16.257
77952W        W78817  22.645  28.800  17.122
77953W        W78818  25.390  28.917  14.723
77954W        W78819  22.253  27.589  17.719
77955W        W78820  24.248  27.851  16.407
77956W        W78821  22.684  27.500  15.649
77957W        W78822  23.055  28.507  17.044
77958W        W78823  23.433  25.926  16.085
77959W        W78824  22.044  27.910  15.015
77960W        W78825  23.563  26.861  14.885
77961W        W78826  22.209  27.410  15.904
77962W        W78827  23.499  26.052  17.368
77963W        W78828  25.171  25.761  14.795
77964W        W78829  25.264  27.507  17.894
77965W        W78830  23.918  28.764  18.046
77966W        W78831  25.476  27.858  17.568
77967W        W78832  24.884  28.656  18.179
77968W        W78833  22.623  29.112  16.657
77969W        W78834  25.482  27.734  15.531
77970W        W78835  24.012  27.001  16.044
77971W        W78836  23.779  25.613  15.934
77972W        W78837  22.838  28.597  15.771
77973W        W78838  23.337  26.338  16.996
77974W        W78839  23.037  25.707  16.465
77975W        W78840  22.100  28.529  15.013
77976W        W78841  23.916  27.893  15.731
77977W        W78842  22.791  28.688  17.610
77978W        W78843  22.268  27.511  15.306
77979W        W78844  22.153  26.054  16.305
77980W        W78845  23.701  28.019  16.362
77981W        W78846  21.953  25.873  15.382
77982W        W78847  24.617  27.079  17.309
77983W        W78848  24.494  26.465  14.881
77984W        W78849  25.011  28.137  16.529
77985W        W78850  23.672  28.621  16.360
77986W        W78851  23.084  28.725  15.271
77987W        W78852  24.366  25.628  14.701
77988W        W78853  22.166  28.888  16.442
77989W        W78854  24.363  26.646  18.077
77990W        W78855  22.346  26.176  18.076
77991W        W78856  22.077  26.776  15.409
77992W        W78857  22.768  26.765  15.134
77993W        W78858  24.531  27.092  17.951
77994W        W78859  22.874  27.373  16.660
77995W        W78860  24.348  25.659  15.780
77996W        W78861  23.479  29.090  16.283
77997W        W78862  24.693  28.552  17.220
77998W        W78863  24.277  28.701  16.331
77999W        W78864  24.296  27.681  15.925
78000W        W78865  23.758  25.906  14.996
78001W        W78866  25.439  25.534  15.718
78002W        W78867  23.127  27.169  14.881
78003W        W78868  25.293  26.506  15.871
78004W        W78869  23.985  27.676  14.748
78005W        W78870  24.921  27.876  17.496
78006W        W78871  24.575  28.577  14.963
78007W        W78872  23.190  26.252  17.869
78008W        W78873  23.010  26.836  17.110
78009W        W78874  25.102  28.331  17.387
78010W        W78875  24.202  26.281  17.764
78011W        W78876  22.046  26.752  17.541
78012W        W78877  23.806  27.229  17.267
78013W        W78878  22.163  27.987  15.924
78014W        W78879  22.310  27.284  16.814
78015W        W78880  24.627  27.570  17.164
78016W        W78881  24.399  28.950  17.975
78017W        W78882  24.295  26.689  17.528
78018W        W78883  24.572  28.743  15.933
78019W        W78884  23.574  28.463  17.256
78020W        W78885  23.059  28.818  16.525
78021W        W78886  24.864  27.989  16.944
78022W        W78887  23.914  28.061  18.081
78023W        W78888  22.519  28.014  16.420
78024W        W78889  24.865  27.773  16.065
78025W        W78890  24.506  28.839  16.816
78026W        W78891  22.484  28.568  16.686
78027W        W78892  23.505  26.620  17.896
78028W        W78893  23.956  28.786  15.407
78029W        W78894  23.264  28.041  18.045
78030W        W78895  23.390  28.279  15.422
78031W        W78896  22.611  27.019  14.681
78032W        W78897  21.950  29.105  21.580
78033W        W78898  22.326  27.998  21.103
78034W        W78899  25.031  27.728  18.873
78035W        W78900  25.161  28.813  20.900
78036W        W78901  23.079  28.804  18.426
78037W        W78902  23.162  26.956  19.409
78038W        W78903  22.677  26.804  19.573
78039W        W78904  23.668  27.619  19.007
78040W        W78905  23.343  28.711  21.362
78041W        W78906  21.992  26.272  21.325
78042W        W78907  22.754  25.552  21.127
78043W        W78908  24.448  25.940  20.014
78044W        W78909  24.097  26.811  18.584
78045W        W78910  24.667  26.245  21.675
78046W        W78911  22.033  26.037  20.800
78047W        W78912  22.132  28.656  21.821
78048W        W78913  23.654  28.046  18.553
78049W        W78914  22.086  26.829  20.246
78050W        W78915  22.979  26.720  21.483
78051W        W78916  25.438  26.579  19.982
78052W        W78917  25.202  27.622  20.841
78053W        W78918  23.510  26.955  19.868
78054W        W78919  24.056  28.294  20.237
78055W        W78920  22.556  27.728  20.469
78056W        W78921  21.915  27.256  20.040
78057W        W78922  22.951  27.228  21.232
78058W        W78923  25.222  27.011  21.486
78059W        W78924  22.838  28.455  19.931
78060W        W78925  23.959  28.144  21.065
78061W        W78926  23.179  26.784  20.290
78062W        W78927  23.471  27.568  19.933
78063W        W78928  24.468  28.341  21.781
78064W        W78929  23.547  27.661  21.791
78065W        W78930  23.528  27.377  21.269
78066W        W78931  21.937  26.768  21.791
78067W        W78932  24.769  28.303  21.390
78068W        W78933  22.350  25.885  19.388
78069W        W78934  22.877  28.143  20.387
78070W        W78935  25.340  27.926  19.677
78071W        W78936  24.753  26.326  20.244
78072W        W78937  25.038  26.279  18.339
78073W        W78938  25.503  27.080  20.645
78074W        W78939  23.470  28.787  20.398
78075W        W78940  25.244  28.253  18.836
78076W        W78941  22.373  29.039  18.590
78077W        W78942  22.766  29.085  19.266
78078W        W78943  22.563  25.839  20.692
78079W        W78944  25.186  26.857  20.967
78080W        W78945  24.591  27.279  19.426
78081W        W78946  24.557  26.967  18.453
78082W        W78947  23.765  28.111  20.593
78083W        W78948  23.571  26.441  19.792
78084W        W78949  24.171  28.528  20.786
78085W        W78950  25.042  27.319  19.208
78086W        W78951  23.944  25.977  19.224
78087W        W78952  22.601  28.671  18.907
78088W        W78953  21.972  26.170  19.506
78089W        W78954  24.758  26.777  19.980
78090W        W78955  22.216  28.394  19.895
78091W        W78956  23.557  28.744  18.765
78092W        W78957  24.949  26.770  18.229
78093W        W78958  21.972  28.528  20.393
78094W        W78959  22.763  28.100  20.873
78095W        W78960  23.136  27.460  19.492
78096W        W78961  23.158  25.865  20.585
78097W        W78962  25.387  25.627  19.882
78098W        W78963  22.606  27.499  18.350
78099W        W78964  22.261  26.532  18.529
78100W        W78965  22.323  28.488  19.323
78101W        W78966  23.454  27.971  19.571
78102W        W78967  24.786  28.830  21.285
78103W        W78968  23.712  26.472  18.969
78104W        W78969  25.095  28.870  19.741
78105W        W78970  24.772  26.723  21.339
78106W        W78971  25.485  28.379  19.473
78107W        W78972  24.112  27.671  20.957
78108W        W78973  21.878  27.222  19.163
78109W        W78974  22.989  27.637  20.736
78110W        W78975  24.193  26.901  19.114
78111W        W78976  24.070  27.391  19.218
78112W        W78977  22.413  26.811  20.692
78113W        W78978  22.398  26.687  21.614
78114W        W78979  22.288  25.604  19.773
78115W        W78980  24.056  25.951  20.334
78116W        W78981  23.704  26.136  21.497
78117W        W78982  24.059  26.285  18.675
78118W        W78983  25.242  28.678  21.429
78119W        W78984  24.209  25.759  21.468
78120W        W78985  25.228  28.060  21.590
78121W        W78986  24.658  26.227  21.186
78122W        W78987  24.458  26.165  19.456
78123W        W78988  24.851  27.299  21.860
78124W        W78989  22.591  28.875  19.846
78125W        W78990  23.249  26.592  18.832
78126W        W78991  22.818  25.876  21.496
78127W        W78992  24.870  26.360  19.177
78128W        W78993  25.237  26.842  19.122
78129W        W78994  22.980  29.059  21.593
78130W        W78995  22.906  25.595  18.828
78131W        W78996  25.227  26.129  19.863
78132W        W78997  25.377  28.378  18.308
78133W        W78998  22.284  27.581  20.010
78134W        W78999  24.201  26.168  18.240
78135W        W79000  25.335  28.500  19.960
78136W        W79001  25.374  25.694  20.710
78137W        W79002  23.819  26.906  21.264
78138W        W79003  23.912  28.245  18.967
78139W        W79004  24.312  27.539  21.707
78140W        W79005  23.986  25.516  20.016
78141W        W79006  22.598  26.419  20.079
78142W        W79007  22.152  27.619  20.853
78143W        W79008  24.011  28.812  19.559
78144W        W79009  25.205  26.409  20.431
78145W        W79010  23.842  28.756  21.198
78146W        W79011  25.185  27.815  18.403
78147W        W79012  23.620  27.298  19.464
78148W        W79013  25.472  25.809  21.205
78149W        W79014  23.621  27.644  20.799
78150W        W79015  23.838  26.530  20.244
78151W        W79016  24.690  26.828  19.082
78152W        W79017  24.977  26.561  18.724
78153W        W79018  24.786  28.601  19.113
78154W        W79019  24.620  28.204  19.909
78155W        W79020  24.516  27.283  18.887
78156W        W79021  23.949  27.493  19.873
78157W        W79022  24.830  27.281  19.940
78158W        W79023  22.205  26.296  20.364
78159W        W79024  24.983  27.348  21.191
78160W        W79025  25.334  28.966  20.337
78161W        W79026  23.264  28.410  19.739
78162W        W79027  24.271  28.943  21.063
78163W        W79028  24.265  26.273  20.827
78164W        W79029  23.472  28.981  20.888
78165W        W79030  25.169  25.935  19.354
78166W        W79031  24.960  27.254  20.655
78167W        W79032  21.943  26.575  20.693
78168W        W79033  24.803  26.370  19.711
78169W        W79034  25.214  26.521  21.488
78170W        W79035  24.099  28.220  19.706
78171W        W79036  22.470  25.991  18.577
78172W        W79037  23.574  25.645  20.387
78173W        W79038  22.602  28.765  18.235
78174W        W79039  22.976  27.231  18.986
78175W        W79040  23.630  27.860  21.299
78176W        W79041  23.460  26.218  19.289
78177W        W79042  24.816  25.815  19.717
78178W        W79043  24.536  29.097  20.045
78179W        W79044  23.948  28.745  20.385
78180W        W79045  23.344  27.782  20.346
78181W        W79046  25.114  28.505  20.472
78182W        W79047  22.808  26.008  19.241
78183W        W79048  23.330  28.305  20.201
78184W        W79049  22.813  26.236  18.266
78185W        W79050  23.614  26.845  20.660
78186W        W79051  24.462  25.711  20.530
78187W        W79052  21.882  27.554  20.415
78188W        W79053  23.586  27.372  18.573
78189W        W79054  22.854  25.687  18.343
78190W        W79055  23.592  26.768  19.394
78191W        W79056  24.562  25.744  21.093
78192W        W79057  23.150  27.756  21.202
78193W        W79058  23.954  27.538  21.419
78194W        W79059  24.571  27.568  21.312
78195W        W79060  23.855  25.708  21.817
78196W        W79061  23.077  26.324  20.210
78197W        W79062  22.503  26.280  19.608
78198W        W79063  22.289  28.992  19.284
78199W        W79064  23.621  28.322  21.409
78200W        W79065  22.656  27.807  18.768
78201W        W79066  24.336  27.192  19.989
78202W        W79067  24.616  26.991  20.388
78203W        W79068  23.821  27.665  20.322
78204W        W79069  24.291  28.039  18.454
78205W        W79070  23.963  26.060  19.782
78206W        W79071  25.442  26.338  19.050
78207W        W79072  21.936  28.927  21.081
78208W        W79073  22.353  28.153  20.613
78209W        W79074  21.920  28.999  18.845
78210W        W79075  23.819  26.269  20.651
78211W        W79076  23.182  28.292  18.500
78212W        W79077  25.087  28.674  18.686
78213W        W79078  24.062  27.327  18.700
78214W        W79079  22.905  26.518  19.217
78215W        W79080  23.737  26.428  18.269
78216W        W79081  24.321  27.993  21.447
78217W        W79082  24.674  25.899  19.064
78218W        W79083  22.004  25.747  18.512
78219W        W79084  23.290  28.066  20.802
78220W        W79085  23.089  27.982  19.894
78221W        W79086  22.831  27.934  18.292
78222W        W79087  22.072  28.175  19.060
78223W        W79088  22.576  27.245  21.502
78224W        W79089  23.280  25.805  21.688
78225W        W79090  23.989  25.947  21.044
78226W        W79091  23.184  25.715  19.325
78227W        W79092  24.243  25.792  18.830
78228W        W79093  22.188  25.724  20.407
78229W        W79094  22.236  26.687  19.777
78230W        W79095  24.925  25.795  20.183
78231W        W79096  22.347  26.293  18.997
78232W        W79097  24.918  25.981  20.613
78233W        W79098  25.314  27.184  18.298
78234W        W79099  22.606  25.942  20.117
78235W        W79100  23.720  26.514  21.057
78236W        W79101  21.868  26.204  18.535
78237W        W79102  22.654  27.593  21.096
78238W        W79103  24.012  26.991  20.275
78239W        W79104  23.879  29.070  18.571
78240W        W79105  22.025  27.577  18.268
78241W        W79106  22.760  27.988  21.394
78242W        W79107  22.281  27.155  21.025
78243W        W79108  23.272  27.260  20.819
78244W        W79109  25.040  25.619  21.081
78245W        W79110  25.438  27.229  21.072
78246W        W79111  25.426  27.429  18.758
78247W        W79112  24.289  27.761  18.857
78248W        W79113  24.763  29.061  18.552
78249W        W79114  23.940  27.051  21.694
78250W        W79115  22.270  28.018  21.734
78251W        W79116  25.476  25.940  21.686
78252W        W79117  25.194  26.868  20.307
78253W        W79118  23.502  28.998  21.784
78254W        W79119  23.357  25.627  18.511
78255W        W79120  24.896  28.226  18.454
78256W        W79121  22.665  26.319  21.340
78257W        W79122  23.099  28.313  21.202
78258W        W79123  25.225  26.304  21.000
78259W        W79124  24.436  28.963  18.968
78260W        W79125  24.675  27.582  20.335
78261W        W79126  22.925  25.998  21.002
78262W        W79127  23.394  27.067  21.759
78263W        W79128  22.897  28.246  18.953
78264W        W79129  24.652  27.744  19.217
78265W        W79130  22.420  26.370  20.941
78266W        W79131  23.749  28.432  19.405
78267W        W79132  25.499  26.992  19.586
78268W        W79133  23.721  25.625  21.305
78269W        W79134  24.501  28.330  20.384
78270W        W79135  24.804  28.674  20.092
78271W        W79136  24.023  28.476  18.520
78272W        W79137  22.033  28.368  21.362
78273W        W79138  22.776  26.360  20.600
78274W        W79139  22.746  25.708  19.710
78275W        W79140  24.367  26.550  20.402
78276W        W79141  23.165  27.721  18.602
78277W        W79142  25.163  27.663  20.101
78278W        W79143  22.490  28.421  21.524
78279W        W79144  24.877  29.103  19.321
78280W        W79145  22.976  26.123  19.766
78281W        W79146  22.745  27.616  19.856
78282W        W79147  23.058  29.027  20.606
78283W        W79148  25.125  29.123  21.638
78284W        W79149  24.284  27.311  20.571
78285W        W79150  22.133  27.109  18.486
78286W        W79151  25.267  28.767  19.183
78287W        W79152  25.104  26.091  18.802
78288W        W79153  23.243  25.610  21.205
78289W        W79154  24.949  28.412  19.663
78290W        W79155  24.978  26.968  19.568
78291W        W79156  23.095  26.641  19.784
78292W        W79157  23.340  26.903  21.108
78293W        W79158  24.451  28.056  20.971
78294W        W79159  23.101  26.510  21.083
78295W        W79160  22.397  28.935  21.333
78296W        W79161  22.509  28.296  18.463
78297W        W79162  25.026  28.054  19.273
78298W        W79163  22.630  26.846  21.159
78299W        W79164  25.403  26.776  18.640
78300W        W79165  23.148  27.833  19.111
78301W        W79166  24.247  27.215  21.192
78302W        W79167  24.138  26.843  20.736
78303W        W79168  22.698  27.215  20.765
78304W        W79169  24.908  29.103  20.594
78305W        W79170  24.699  25.737  21.588
78306W        W79171  22.363  25.887  21.175
78307W        W79172  22.702  26.910  20.228
78308W        W79173  23.071  26.724  18.350
78309W        W79174  21.874  28.483  20.895
78310W        W79175  23.459  27.192  20.338
78311W        W79176  23.282  26.217  18.443
78312W        W79177  22.417  27.033  19.224
78313W        W79178  22.188  28.885  20.661
78314W        W79179  24.983  27.111  18.769
78315W        W79180  25.078  26.027  21.455
78316W        W79181  24.514  28.236  19.418
78317W        W79182  22.112  27.160  21.595
78318W        W79183  25.078  25.624  18.891
78319W        W79184  24.598  28.099  18.902
78320W        W79185  23.500  27.157  18.987
78321W        W79186  24.687  25.961  18.510
78322W        W79187  24.752  26.568  20.696
78323W        W79188  22.461  27.161  19.903
78324W        W79189  22.755  28.100  19.552
78325W        W79190  24.518  26.720  19.517
78326W        W79191  23.541  26.099  20.213
78327W        W79192  25.503  28.010  20.724
78328W        W79193  25.421  25.997  20.285
78329W        W79194  21.960  28.827  19.661
78330W        W79195  22.469  28.014  19.197
78331W        W79196  22.384  25.631  21.750
78332W        W79197  23.503  28.484  21.852
78333W        W79198  25.258  27.452  19.642
78334W        W79199  24.612  27.629  18.522
78335W        W79200  23.907  29.150  20.734
78336W        W79201  24.764  27.872  21.771
78337W        W79202  23.579  25.582  19.051
78338W        W79203  24.292  26.451  19.910
78339W        W79204  21.978  28.038  20.242
78340W        W79205  23.231  26.000  18.883
78341W        W79206  23.035  27.484  21.732
78342W        W79207  24.029  26.465  19.446
78343W        W79208  24.234  27.875  20.568
78344W        W79209  22.388  28.480  21.003
78345W        W79210  22.979  28.463  21.726
78346W        W79211  22.830  26.260  18.740
78347W        W79212  24.347  26.402  19.065
78348W        W79213  24.305  28.510  21.302
78349W        W79214  22.990  27.102  19.901
78350W        W79215  22.645  28.800  20.766
78351W        W79216  25.390  28.917  18.367
78352W        W79217  22.253  27.589  21.363
78353W        W79218  24.248  27.851  20.051
78354W        W79219  22.684  27.500  19.293
78355W        W79220  23.055  28.507  20.688
78356W        W79221  23.433  25.926  19.729
78357W        W79222  22.044  27.910  18.659
78358W        W79223  23.563  26.861  18.529
78359W        W79224  22.209  27.410  19.548
78360W        W79225  23.499  26.052  21.012
78361W        W79226  25.171  25.761  18.439
78362W        W79227  25.264  27.507  21.538
78363W        W79228  23.918  28.764  21.690
78364W        W79229  25.476  27.858  21.212
78365W        W79230  24.884  28.656  21.823
78366W        W79231  22.623  29.112  20.301
78367W        W79232  25.482  27.734  19.175
78368W        W79233  24.012  27.001  19.688
78369W        W79234  23.779  25.613  19.578
78370W        W79235  22.838  28.597  19.415
78371W        W79236  23.337  26.338  20.640
78372W        W79237  23.037  25.707  20.109
78373W        W79238  22.100  28.529  18.657
78374W        W79239  23.916  27.893  19.375
78375W        W79240  22.791  28.688  21.254
78376W        W79241  22.268  27.511  18.950
78377W        W79242  22.153  26.054  19.949
78378W        W79243  23.701  28.019  20.006
78379W        W79244  21.953  25.873  19.026
78380W        W79245  24.617  27.079  20.953
78381W        W79246  24.494  26.465  18.525
78382W        W79247  25.011  28.137  20.173
78383W        W79248  23.672  28.621  20.004
78384W        W79249  23.084  28.725  18.915
78385W        W79250  24.366  25.628  18.345
78386W        W79251  22.166  28.888  20.086
78387W        W79252  24.363  26.646  21.721
78388W        W79253  22.346  26.176  21.720
78389W        W79254  22.077  26.776  19.053
78390W        W79255  22.768  26.765  18.778
78391W        W79256  24.531  27.092  21.595
78392W        W79257  22.874  27.373  20.304
78393W        W79258  24.348  25.659  19.424
78394W        W79259  23.479  29.090  19.927
78395W        W79260  24.693  28.552  20.864
78396W        W79261  24.277  28.701  19.975
78397W        W79262  24.296  27.681  19.569
78398W        W79263  23.758  25.906  18.640
78399W        W79264  25.439  25.534  19.362
78400W        W79265  23.127  27.169  18.525
78401W        W79266  25.293  26.506  19.515
78402W        W79267  23.985  27.676  18.392
78403W        W79268  24.921  27.876  21.140
78404W        W79269  24.575  28.577  18.607
78405W        W79270  23.190  26.252  21.513
78406W        W79271  23.010  26.836  20.754
78407W        W79272  25.102  28.331  21.031
78408W        W79273  24.202  26.281  21.408
78409W        W79274  22.046  26.752  21.185
78410W        W79275  23.806  27.229  20.911
78411W        W79276  22.163  27.987  19.568
78412W        W79277  22.310  27.284  20.458
78413W        W79278  24.627  27.570  20.808
78414W        W79279  24.399  28.950  21.619
78415W        W79280  24.295  26.689  21.172
78416W        W79281  24.572  28.743  19.577
78417W        W79282  23.574  28.463  20.900
78418W        W79283  23.059  28.818  20.169
78419W        W79284  24.864  27.989  20.588
78420W        W79285  23.914  28.061  21.725
78421W        W79286  22.519  28.014  20.064
78422W        W79287  24.865  27.773  19.709
78423W        W79288  24.506  28.839  20.460
78424W        W79289  22.484  28.568  20.330
78425W        W79290  23.505  26.620  21.540
78426W        W79291  23.956  28.786  19.051
78427W        W79292  23.264  28.041  21.689
78428W        W79293  23.390  28.279  19.066
78429W        W79294  22.611  27.019  18.325
78430W        W79295  21.950  29.105  25.225
78431W        W79296  22.326  27.998  24.748
78432W        W79297  25.031  27.728  22.518
78433W        W79298  25.161  28.813  24.545
78434W        W79299  23.079  28.804  22.071
78435W        W79300  23.162  26.956  23.054
78436W        W79301  22.677  26.804  23.218
78437W        W79302  23.668  27.619  22.652
78438W        W79303  23.343  28.711  25.007
78439W        W79304  21.992  26.272  24.970
78440W        W79305  22.754  25.552  24.772
78441W        W79306  24.448  25.940  23.659
78442W        W79307  24.097  26.811  22.229
78443W        W79308  24.667  26.245  25.320
78444W        W79309  22.033  26.037  24.445
78445W        W79310  22.132  28.656  25.466
78446W        W79311  23.654  28.046  22.198
78447W        W79312  22.086  26.829  23.891
78448W        W79313  22.979  26.720  25.128
78449W        W79314  25.438  26.579  23.627
78450W        W79315  25.202  27.622  24.486
78451W        W79316  23.510  26.955  23.513
78452W        W79317  24.056  28.294  23.882
78453W        W79318  22.556  27.728  24.114
78454W        W79319  21.915  27.256  23.685
78455W        W79320  22.951  27.228  24.877
78456W        W79321  25.222  27.011  25.131
78457W        W79322  22.838  28.455  23.576
78458W        W79323  23.959  28.144  24.710
78459W        W79324  23.179  26.784  23.935
78460W        W79325  23.471  27.568  23.578
78461W        W79326  24.468  28.341  25.426
78462W        W79327  23.547  27.661  25.436
78463W        W79328  23.528  27.377  24.914
78464W        W79329  21.937  26.768  25.436
78465W        W79330  24.769  28.303  25.035
78466W        W79331  22.350  25.885  23.033
78467W        W79332  22.877  28.143  24.032
78468W        W79333  25.340  27.926  23.322
78469W        W79334  24.753  26.326  23.889
78470W        W79335  25.038  26.279  21.984
78471W        W79336  25.503  27.080  24.290
78472W        W79337  23.470  28.787  24.043
78473W        W79338  25.244  28.253  22.481
78474W        W79339  22.373  29.039  22.235
78475W        W79340  22.766  29.085  22.911
78476W        W79341  22.563  25.839  24.337
78477W        W79342  25.186  26.857  24.612
78478W        W79343  24.591  27.279  23.071
78479W        W79344  24.557  26.967  22.098
78480W        W79345  23.765  28.111  24.238
78481W        W79346  23.571  26.441  23.437
78482W        W79347  24.171  28.528  24.431
78483W        W79348  25.042  27.319  22.853
78484W        W79349  23.944  25.977  22.869
78485W        W79350  22.601  28.671  22.552
78486W        W79351  21.972  26.170  23.151
78487W        W79352  24.758  26.777  23.625
78488W        W79353  22.216  28.394  23.540
78489W        W79354  23.557  28.744  22.410
78490W        W79355  24.949  26.770  21.874
78491W        W79356  21.972  28.528  24.038
78492W        W79357  22.763  28.100  24.518
78493W        W79358  23.136  27.460  23.137
78494W        W79359  23.158  25.865  24.230
78495W        W79360  25.387  25.627  23.527
78496W        W79361  22.606  27.499  21.995
78497W        W79362  22.261  26.532  22.174
78498W        W79363  22.323  28.488  22.968
78499W        W79364  23.454  27.971  23.216
78500W        W79365  24.786  28.830  24.930
78501W        W79366  23.712  26.472  22.614
78502W        W79367  25.095  28.870  23.386
78503W        W79368  24.772  26.723  24.984
78504W        W79369  25.485  28.379  23.118
78505W        W79370  24.112  27.671  24.602
78506W        W79371  21.878  27.222  22.808
78507W        W79372  22.989  27.637  24.381
78508W        W79373  24.193  26.901  22.759
78509W        W79374  24.070  27.391  22.863
78510W        W79375  22.413  26.811  24.337
78511W        W79376  22.398  26.687  25.259
78512W        W79377  22.288  25.604  23.418
78513W        W79378  24.056  25.951  23.979
78514W        W79379  23.704  26.136  25.142
78515W        W79380  24.059  26.285  22.320
78516W        W79381  25.242  28.678  25.074
78517W        W79382  24.209  25.759  25.113
78518W        W79383  25.228  28.060  25.235
78519W        W79384  24.658  26.227  24.831
78520W        W79385  24.458  26.165  23.101
78521W        W79386  24.851  27.299  25.505
78522W        W79387  22.591  28.875  23.491
78523W        W79388  23.249  26.592  22.477
78524W        W79389  22.818  25.876  25.141
78525W        W79390  24.870  26.360  22.822
78526W        W79391  25.237  26.842  22.767
78527W        W79392  22.980  29.059  25.238
78528W        W79393  22.906  25.595  22.473
78529W        W79394  25.227  26.129  23.508
78530W        W79395  25.377  28.378  21.953
78531W        W79396  22.284  27.581  23.655
78532W        W79397  24.201  26.168  21.885
78533W        W79398  25.335  28.500  23.605
78534W        W79399  25.374  25.694  24.355
78535W        W79400  23.819  26.906  24.909
78536W        W79401  23.912  28.245  22.612
78537W        W79402  24.312  27.539  25.352
78538W        W79403  23.986  25.516  23.661
78539W        W79404  22.598  26.419  23.724
78540W        W79405  22.152  27.619  24.498
78541W        W79406  24.011  28.812  23.204
78542W        W79407  25.205  26.409  24.076
78543W        W79408  23.842  28.756  24.843
78544W        W79409  25.185  27.815  22.048
78545W        W79410  23.620  27.298  23.109
78546W        W79411  25.472  25.809  24.850
78547W        W79412  23.621  27.644  24.444
78548W        W79413  23.838  26.530  23.889
78549W        W79414  24.690  26.828  22.727
78550W        W79415  24.977  26.561  22.369
78551W        W79416  24.786  28.601  22.758
78552W        W79417  24.620  28.204  23.554
78553W        W79418  24.516  27.283  22.532
78554W        W79419  23.949  27.493  23.518
78555W        W79420  24.830  27.281  23.585
78556W        W79421  22.205  26.296  24.009
78557W        W79422  24.983  27.348  24.836
78558W        W79423  25.334  28.966  23.982
78559W        W79424  23.264  28.410  23.384
78560W        W79425  24.271  28.943  24.708
78561W        W79426  24.265  26.273  24.472
78562W        W79427  23.472  28.981  24.533
78563W        W79428  25.169  25.935  22.999
78564W        W79429  24.960  27.254  24.300
78565W        W79430  21.943  26.575  24.338
78566W        W79431  24.803  26.370  23.356
78567W        W79432  25.214  26.521  25.133
78568W        W79433  24.099  28.220  23.351
78569W        W79434  23.355  28.811  22.964
78570W        W79435  22.470  25.991  22.222
78571W        W79436  23.574  25.645  24.032
78572W        W79437  22.602  28.765  21.880
78573W        W79438  22.976  27.231  22.631
78574W        W79439  23.630  27.860  24.944
78575W        W79440  23.460  26.218  22.934
78576W        W79441  24.816  25.815  23.362
78577W        W79442  24.536  29.097  23.690
78578W        W79443  23.948  28.745  24.030
78579W        W79444  23.344  27.782  23.991
78580W        W79445  25.114  28.505  24.117
78581W        W79446  22.808  26.008  22.886
78582W        W79447  23.330  28.305  23.846
78583W        W79448  22.813  26.236  21.911
78584W        W79449  23.614  26.845  24.305
78585W        W79450  24.462  25.711  24.175
78586W        W79451  21.882  27.554  24.060
78587W        W79452  23.586  27.372  22.218
78588W        W79453  22.854  25.687  21.988
78589W        W79454  23.592  26.768  23.039
78590W        W79455  24.562  25.744  24.738
78591W        W79456  23.150  27.756  24.847
78592W        W79457  23.954  27.538  25.064
78593W        W79458  24.571  27.568  24.957
78594W        W79459  23.855  25.708  25.462
78595W        W79460  23.077  26.324  23.855
78596W        W79461  22.503  26.280  23.253
78597W        W79462  22.289  28.992  22.929
78598W        W79463  23.621  28.322  25.054
78599W        W79464  22.656  27.807  22.413
78600W        W79465  24.336  27.192  23.634
78601W        W79466  24.616  26.991  24.033
78602W        W79467  23.821  27.665  23.967
78603W        W79468  24.291  28.039  22.099
78604W        W79469  23.963  26.060  23.427
78605W        W79470  25.442  26.338  22.695
78606W        W79471  21.936  28.927  24.726
78607W        W79472  22.353  28.153  24.258
78608W        W79473  21.920  28.999  22.490
78609W        W79474  23.819  26.269  24.296
78610W        W79475  23.182  28.292  22.145
78611W        W79476  25.087  28.674  22.331
78612W        W79477  24.062  27.327  22.345
78613W        W79478  22.905  26.518  22.862
78614W        W79479  23.737  26.428  21.914
78615W        W79480  24.321  27.993  25.092
78616W        W79481  24.674  25.899  22.709
78617W        W79482  22.004  25.747  22.157
78618W        W79483  23.290  28.066  24.447
78619W        W79484  23.089  27.982  23.539
78620W        W79485  22.831  27.934  21.937
78621W        W79486  22.072  28.175  22.705
78622W        W79487  22.576  27.245  25.147
78623W        W79488  23.280  25.805  25.333
78624W        W79489  23.989  25.947  24.689
78625W        W79490  23.184  25.715  22.970
78626W        W79491  24.243  25.792  22.475
78627W        W79492  22.188  25.724  24.052
78628W        W79493  22.236  26.687  23.422
78629W        W79494  24.925  25.795  23.828
78630W        W79495  22.347  26.293  22.642
78631W        W79496  24.918  25.981  24.258
78632W        W79497  25.314  27.184  21.943
78633W        W79498  22.606  25.942  23.762
78634W        W79499  23.720  26.514  24.702
78635W        W79500  21.868  26.204  22.180
78636W        W79501  22.654  27.593  24.741
78637W        W79502  24.012  26.991  23.920
78638W        W79503  23.879  29.070  22.216
78639W        W79504  22.025  27.577  21.913
78640W        W79505  22.760  27.988  25.039
78641W        W79506  22.281  27.155  24.670
78642W        W79507  23.272  27.260  24.464
78643W        W79508  25.040  25.619  24.726
78644W        W79509  25.438  27.229  24.717
78645W        W79510  25.426  27.429  22.403
78646W        W79511  24.289  27.761  22.502
78647W        W79512  24.763  29.061  22.197
78648W        W79513  23.940  27.051  25.339
78649W        W79514  22.270  28.018  25.379
78650W        W79515  25.476  25.940  25.331
78651W        W79516  25.194  26.868  23.952
78652W        W79517  23.502  28.998  25.429
78653W        W79518  23.357  25.627  22.156
78654W        W79519  24.896  28.226  22.099
78655W        W79520  22.665  26.319  24.985
78656W        W79521  23.099  28.313  24.847
78657W        W79522  25.225  26.304  24.645
78658W        W79523  24.436  28.963  22.613
78659W        W79524  24.675  27.582  23.980
78660W        W79525  22.925  25.998  24.647
78661W        W79526  23.394  27.067  25.404
78662W        W79527  22.897  28.246  22.598
78663W        W79528  24.652  27.744  22.862
78664W        W79529  22.420  26.370  24.586
78665W        W79530  23.749  28.432  23.050
78666W        W79531  25.499  26.992  23.231
78667W        W79532  23.721  25.625  24.950
78668W        W79533  24.501  28.330  24.029
78669W        W79534  24.804  28.674  23.737
78670W        W79535  24.023  28.476  22.165
78671W        W79536  22.033  28.368  25.007
78672W        W79537  22.776  26.360  24.245
78673W        W79538  22.746  25.708  23.355
78674W        W79539  24.367  26.550  24.047
78675W        W79540  23.165  27.721  22.247
78676W        W79541  25.163  27.663  23.746
78677W        W79542  22.490  28.421  25.169
78678W        W79543  24.877  29.103  22.966
78679W        W79544  22.976  26.123  23.411
78680W        W79545  22.745  27.616  23.501
78681W        W79546  23.058  29.027  24.251
78682W        W79547  25.125  29.123  25.283
78683W        W79548  24.284  27.311  24.216
78684W        W79549  22.133  27.109  22.131
78685W        W79550  25.267  28.767  22.828
78686W        W79551  25.104  26.091  22.447
78687W        W79552  23.243  25.610  24.850
78688W        W79553  24.949  28.412  23.308
78689W        W79554  24.978  26.968  23.213
78690W        W79555  23.095  26.641  23.429
78691W        W79556  23.340  26.903  24.753
78692W        W79557  24.451  28.056  24.616
78693W        W79558  23.101  26.510  24.728
78694W        W79559  23.080  28.976  23.344
78695W        W79560  22.397  28.935  24.978
78696W        W79561  22.509  28.296  22.108
78697W        W79562  25.026  28.054  22.918
78698W        W79563  22.630  26.846  24.804
78699W        W79564  25.403  26.776  22.285
78700W        W79565  23.148  27.833  22.756
78701W        W79566  24.247  27.215  24.837
78702W        W79567  24.138  26.843  24.381
78703W        W79568  22.698  27.215  24.410
78704W        W79569  24.908  29.103  24.239
78705W        W79570  24.699  25.737  25.233
78706W        W79571  22.363  25.887  24.820
78707W        W79572  22.702  26.910  23.873
78708W        W79573  23.071  26.724  21.995
78709W        W79574  21.874  28.483  24.540
78710W        W79575  23.459  27.192  23.983
78711W        W79576  23.282  26.217  22.088
78712W        W79577  22.417  27.033  22.869
78713W        W79578  22.188  28.885  24.306
78714W        W79579  24.983  27.111  22.414
78715W        W79580  25.078  26.027  25.100
78716W        W79581  24.514  28.236  23.063
78717W        W79582  22.112  27.160  25.240
78718W        W79583  25.078  25.624  22.536
78719W        W79584  24.598  28.099  22.547
78720W        W79585  23.500  27.157  22.632
78721W        W79586  24.687  25.961  22.155
78722W        W79587  24.752  26.568  24.341
78723W        W79588  22.461  27.161  23.548
78724W        W79589  22.755  28.100  23.197
78725W        W79590  24.518  26.720  23.162
78726W        W79591  23.541  26.099  23.858
78727W        W79592  25.503  28.010  24.369
78728W        W79593  25.421  25.997  23.930
78729W        W79594  21.960  28.827  23.306
78730W        W79595  22.469  28.014  22.842
78731W        W79596  22.384  25.631  25.395
78732W        W79597  23.503  28.484  25.497
78733W        W79598  25.258  27.452  23.287
78734W        W79599  24.612  27.629  22.167
78735W        W79600  23.907  29.150  24.379
78736W        W79601  24.764  27.872  25.416
78737W        W79602  23.579  25.582  22.696
78738W        W79603  24.292  26.451  23.555
78739W        W79604  21.978  28.038  23.887
78740W        W79605  23.231  26.000  22.528
78741W        W79606  23.035  27.484  25.377
78742W        W79607  24.029  26.465  23.091
78743W        W79608  24.234  27.875  24.213
78744W        W79609  22.388  28.480  24.648
78745W        W79610  22.979  28.463  25.371
78746W        W79611  22.830  26.260  22.385
78747W        W79612  24.347  26.402  22.710
78748W        W79613  24.305  28.510  24.947
78749W        W79614  22.990  27.102  23.546
78750W        W79615  22.645  28.800  24.411
78751W        W79616  25.390  28.917  22.012
78752W        W79617  22.253  27.589  25.008
78753W        W79618  24.248  27.851  23.696
78754W        W79619  22.684  27.500  22.938
78755W        W79620  23.055  28.507  24.333
78756W        W79621  23.433  25.926  23.374
78757W        W79622  22.044  27.910  22.304
78758W        W79623  23.563  26.861  22.174
78759W        W79624  22.209  27.410  23.193
78760W        W79625  23.499  26.052  24.657
78761W        W79626  25.171  25.761  22.084
78762W        W79627  25.264  27.507  25.183
78763W        W79628  23.918  28.764  25.335
78764W        W79629  25.476  27.858  24.857
78765W        W79630  24.884  28.656  25.468
78766W        W79631  22.623  29.112  23.946
78767W        W79632  25.482  27.734  22.820
78768W        W79633  24.012  27.001  23.333
78769W        W79634  23.779  25.613  23.223
78770W        W79635  22.838  28.597  23.060
78771W        W79636  23.337  26.338  24.285
78772W        W79637  23.037  25.707  23.754
78773W        W79638  22.100  28.529  22.302
78774W        W79639  23.916  27.893  23.020
78775W        W79640  22.791  28.688  24.899
78776W        W79641  22.268  27.511  22.595
78777W        W79642  22.153  26.054  23.594
78778W        W79643  23.701  28.019  23.651
78779W        W79644  21.953  25.873  22.671
78780W        W79645  24.617  27.079  24.598
78781W        W79646  24.494  26.465  22.170
78782W        W79647  25.011  28.137  23.818
78783W        W79648  23.672  28.621  23.649
78784W        W79649  23.084  28.725  22.560
78785W        W79650  24.366  25.628  21.990
78786W        W79651  22.166  28.888  23.731
78787W        W79652  24.363  26.646  25.366
78788W        W79653  22.346  26.176  25.365
78789W        W79654  22.077  26.776  22.698
78790W        W79655  22.768  26.765  22.423
78791W        W79656  24.531  27.092  25.240
78792W        W79657  22.874  27.373  23.949
78793W        W79658  24.348  25.659  23.069
78794W        W79659  23.479  29.090  23.572
78795W        W79660  24.693  28.552  24.509
78796W        W79661  24.277  28.701  23.620
78797W        W79662  24.296  27.681  23.214
78798W        W79663  23.758  25.906  22.285
78799W        W79664  25.439  25.534  23.007
78800W        W79665  23.127  27.169  22.170
78801W        W79666  25.293  26.506  23.160
78802W        W79667  23.985  27.676  22.037
78803W        W79668  24.921  27.876  24.785
78804W        W79669  24.575  28.577  22.252
78805W        W79670  23.190  26.252  25.158
78806W        W79671  23.010  26.836  24.399
78807W        W79672  25.102  28.331  24.676
78808W        W79673  24.202  26.281  25.053
78809W        W79674  22.046  26.752  24.830
78810W        W79675  23.806  27.229  24.556
78811W        W79676  22.163  27.987  23.213
78812W        W79677  22.310  27.284  24.103
78813W        W79678  24.627  27.570  24.453
78814W        W79679  24.399  28.950  25.264
78815W        W79680  24.295  26.689  24.817
78816W        W79681  24.572  28.743  23.222
78817W        W79682  23.574  28.463  24.545
78818W        W79683  23.059  28.818  23.814
78819W        W79684  24.864  27.989  24.233
78820W        W79685  23.914  28.061  25.370
78821W        W79686  24.865  27.773  23.354
78822W        W79687  24.506  28.839  24.105
78823W        W79688  22.484  28.568  23.975
78824W        W79689  23.505  26.620  25.185
78825W        W79690  23.956  28.786  22.696
78826W        W79691  23.264  28.041  25.334
78827W        W79692  23.390  28.279  22.711
78828W        W79693  22.611  27.019  21.970
78829W        W79694  21.950  29.105  28.869
78830W        W79695  22.326  27.998  28.392
78831W        W79696  25.031  27.728  26.162
78832W        W79697  25.161  28.813  28.189
78833W        W79698  23.079  28.804  25.715
78834W        W79699  23.162  26.956  26.698
78835W        W79700  22.677  26.804  26.862
78836W        W79701  23.668  27.619  26.296
78837W        W79702  23.343  28.711  28.651
78838W        W79703  22.754  25.552  28.416
78839W        W79704  24.448  25.940  27.303
78840W        W79705  24.097  26.811  25.873
78841W        W79706  24.667  26.245  28.964
78842W        W79707  22.033  26.037  28.089
78843W        W79708  22.132  28.656  29.110
78844W        W79709  23.654  28.046  25.842
78845W        W79710  22.086  26.829  27.535
78846W        W79711  22.979  26.720  28.772
78847W        W79712  25.438  26.579  27.271
78848W        W79713  25.202  27.622  28.130
78849W        W79714  23.510  26.955  27.157
78850W        W79715  24.056  28.294  27.526
78851W        W79716  22.556  27.728  27.758
78852W        W79717  21.915  27.256  27.329
78853W        W79718  22.951  27.228  28.521
78854W        W79719  25.222  27.011  28.775
78855W        W79720  22.838  28.455  27.220
78856W        W79721  23.959  28.144  28.354
78857W        W79722  23.179  26.784  27.579
78858W        W79723  23.471  27.568  27.222
78859W        W79724  24.468  28.341  29.070
78860W        W79725  23.547  27.661  29.080
78861W        W79726  23.528  27.377  28.558
78862W        W79727  21.937  26.768  29.080
78863W        W79728  24.769  28.303  28.679
78864W        W79729  22.350  25.885  26.677
78865W        W79730  22.877  28.143  27.676
78866W        W79731  25.340  27.926  26.966
78867W        W79732  24.753  26.326  27.533
78868W        W79733  25.038  26.279  25.628
78869W        W79734  25.503  27.080  27.934
78870W        W79735  23.470  28.787  27.687
78871W        W79736  25.244  28.253  26.125
78872W        W79737  22.373  29.039  25.879
78873W        W79738  22.766  29.085  26.555
78874W        W79739  22.563  25.839  27.981
78875W        W79740  25.186  26.857  28.256
78876W        W79741  24.591  27.279  26.715
78877W        W79742  24.557  26.967  25.742
78878W        W79743  23.765  28.111  27.882
78879W        W79744  23.571  26.441  27.081
78880W        W79745  24.171  28.528  28.075
78881W        W79746  25.042  27.319  26.497
78882W        W79747  23.944  25.977  26.513
78883W        W79748  22.601  28.671  26.196
78884W        W79749  21.972  26.170  26.795
78885W        W79750  24.758  26.777  27.269
78886W        W79751  22.216  28.394  27.184
78887W        W79752  23.557  28.744  26.054
78888W        W79753  24.949  26.770  25.518
78889W        W79754  21.972  28.528  27.682
78890W        W79755  22.763  28.100  28.162
78891W        W79756  23.136  27.460  26.781
78892W        W79757  23.158  25.865  27.874
78893W        W79758  25.387  25.627  27.171
78894W        W79759  22.606  27.499  25.639
78895W        W79760  22.261  26.532  25.818
78896W        W79761  22.323  28.488  26.612
78897W        W79762  23.454  27.971  26.860
78898W        W79763  24.786  28.830  28.574
78899W        W79764  23.712  26.472  26.258
78900W        W79765  25.095  28.870  27.030
78901W        W79766  24.772  26.723  28.628
78902W        W79767  25.485  28.379  26.762
78903W        W79768  24.112  27.671  28.246
78904W        W79769  21.878  27.222  26.452
78905W        W79770  22.989  27.637  28.025
78906W        W79771  24.193  26.901  26.403
78907W        W79772  24.070  27.391  26.507
78908W        W79773  22.413  26.811  27.981
78909W        W79774  22.398  26.687  28.903
78910W        W79775  22.288  25.604  27.062
78911W        W79776  24.056  25.951  27.623
78912W        W79777  23.704  26.136  28.786
78913W        W79778  24.059  26.285  25.964
78914W        W79779  25.242  28.678  28.718
78915W        W79780  24.209  25.759  28.757
78916W        W79781  25.228  28.060  28.879
78917W        W79782  24.658  26.227  28.475
78918W        W79783  24.458  26.165  26.745
78919W        W79784  24.851  27.299  29.149
78920W        W79785  22.591  28.875  27.135
78921W        W79786  23.249  26.592  26.121
78922W        W79787  22.818  25.876  28.785
78923W        W79788  24.870  26.360  26.466
78924W        W79789  25.237  26.842  26.411
78925W        W79790  22.980  29.059  28.882
78926W        W79791  22.906  25.595  26.117
78927W        W79792  25.227  26.129  27.152
78928W        W79793  25.377  28.378  25.597
78929W        W79794  22.284  27.581  27.299
78930W        W79795  24.201  26.168  25.529
78931W        W79796  25.335  28.500  27.249
78932W        W79797  25.374  25.694  27.999
78933W        W79798  23.819  26.906  28.553
78934W        W79799  23.912  28.245  26.256
78935W        W79800  24.312  27.539  28.996
78936W        W79801  23.986  25.516  27.305
78937W        W79802  22.598  26.419  27.368
78938W        W79803  22.152  27.619  28.142
78939W        W79804  24.011  28.812  26.848
78940W        W79805  25.205  26.409  27.720
78941W        W79806  23.842  28.756  28.487
78942W        W79807  25.185  27.815  25.692
78943W        W79808  23.620  27.298  26.753
78944W        W79809  25.472  25.809  28.494
78945W        W79810  23.621  27.644  28.088
78946W        W79811  23.838  26.530  27.533
78947W        W79812  24.690  26.828  26.371
78948W        W79813  24.977  26.561  26.013
78949W        W79814  24.786  28.601  26.402
78950W        W79815  24.620  28.204  27.198
78951W        W79816  24.516  27.283  26.176
78952W        W79817  23.949  27.493  27.162
78953W        W79818  24.830  27.281  27.229
78954W        W79819  22.205  26.296  27.653
78955W        W79820  24.983  27.348  28.480
78956W        W79821  25.334  28.966  27.626
78957W        W79822  23.264  28.410  27.028
78958W        W79823  24.271  28.943  28.352
78959W        W79824  24.265  26.273  28.116
78960W        W79825  23.472  28.981  28.177
78961W        W79826  25.169  25.935  26.643
78962W        W79827  24.960  27.254  27.944
78963W        W79828  21.943  26.575  27.982
78964W        W79829  24.803  26.370  27.000
78965W        W79830  25.214  26.521  28.777
78966W        W79831  24.099  28.220  26.995
78967W        W79832  23.355  28.811  26.608
78968W        W79833  22.470  25.991  25.866
78969W        W79834  23.574  25.645  27.676
78970W        W79835  22.602  28.765  25.524
78971W        W79836  22.976  27.231  26.275
78972W        W79837  23.630  27.860  28.588
78973W        W79838  23.460  26.218  26.578
78974W        W79839  24.816  25.815  27.006
78975W        W79840  24.536  29.097  27.334
78976W        W79841  23.948  28.745  27.674
78977W        W79842  23.344  27.782  27.635
78978W        W79843  25.114  28.505  27.761
78979W        W79844  22.808  26.008  26.530
78980W        W79845  23.330  28.305  27.490
78981W        W79846  22.813  26.236  25.555
78982W        W79847  23.614  26.845  27.949
78983W        W79848  24.462  25.711  27.819
78984W        W79849  21.882  27.554  27.704
78985W        W79850  23.586  27.372  25.862
78986W        W79851  22.854  25.687  25.632
78987W        W79852  23.592  26.768  26.683
78988W        W79853  24.562  25.744  28.382
78989W        W79854  23.150  27.756  28.491
78990W        W79855  23.954  27.538  28.708
78991W        W79856  24.571  27.568  28.601
78992W        W79857  23.855  25.708  29.106
78993W        W79858  23.077  26.324  27.499
78994W        W79859  22.503  26.280  26.897
78995W        W79860  22.289  28.992  26.573
78996W        W79861  23.621  28.322  28.698
78997W        W79862  22.656  27.807  26.057
78998W        W79863  24.336  27.192  27.278
78999W        W79864  24.616  26.991  27.677
79000W        W79865  23.821  27.665  27.611
79001W        W79866  24.291  28.039  25.743
79002W        W79867  23.963  26.060  27.071
79003W        W79868  25.442  26.338  26.339
79004W        W79869  21.936  28.927  28.370
79005W        W79870  22.353  28.153  27.902
79006W        W79871  21.920  28.999  26.134
79007W        W79872  23.819  26.269  27.940
79008W        W79873  23.182  28.292  25.789
79009W        W79874  25.087  28.674  25.975
79010W        W79875  24.062  27.327  25.989
79011W        W79876  22.905  26.518  26.506
79012W        W79877  23.737  26.428  25.558
79013W        W79878  24.321  27.993  28.736
79014W        W79879  24.674  25.899  26.353
79015W        W79880  22.004  25.747  25.801
79016W        W79881  23.290  28.066  28.091
79017W        W79882  23.089  27.982  27.183
79018W        W79883  22.831  27.934  25.581
79019W        W79884  22.072  28.175  26.349
79020W        W79885  22.576  27.245  28.791
79021W        W79886  23.280  25.805  28.977
79022W        W79887  23.989  25.947  28.333
79023W        W79888  23.184  25.715  26.614
79024W        W79889  24.243  25.792  26.119
79025W        W79890  22.188  25.724  27.696
79026W        W79891  22.236  26.687  27.066
79027W        W79892  24.925  25.795  27.472
79028W        W79893  22.347  26.293  26.286
79029W        W79894  24.918  25.981  27.902
79030W        W79895  25.314  27.184  25.587
79031W        W79896  22.606  25.942  27.406
79032W        W79897  23.720  26.514  28.346
79033W        W79898  21.868  26.204  25.824
79034W        W79899  22.654  27.593  28.385
79035W        W79900  24.012  26.991  27.564
79036W        W79901  23.879  29.070  25.860
79037W        W79902  22.025  27.577  25.557
79038W        W79903  22.760  27.988  28.683
79039W        W79904  22.281  27.155  28.314
79040W        W79905  23.272  27.260  28.108
79041W        W79906  25.040  25.619  28.370
79042W        W79907  25.438  27.229  28.361
79043W        W79908  25.426  27.429  26.047
79044W        W79909  24.289  27.761  26.146
79045W        W79910  24.763  29.061  25.841
79046W        W79911  23.940  27.051  28.983
79047W        W79912  22.270  28.018  29.023
79048W        W79913  25.476  25.940  28.975
79049W        W79914  25.194  26.868  27.596
79050W        W79915  23.502  28.998  29.073
79051W        W79916  23.357  25.627  25.800
79052W        W79917  24.896  28.226  25.743
79053W        W79918  22.665  26.319  28.629
79054W        W79919  23.099  28.313  28.491
79055W        W79920  25.225  26.304  28.289
79056W        W79921  24.436  28.963  26.257
79057W        W79922  24.675  27.582  27.624
79058W        W79923  22.925  25.998  28.291
79059W        W79924  23.394  27.067  29.048
79060W        W79925  22.897  28.246  26.242
79061W        W79926  24.652  27.744  26.506
79062W        W79927  22.420  26.370  28.230
79063W        W79928  23.749  28.432  26.694
79064W        W79929  25.499  26.992  26.875
79065W        W79930  23.721  25.625  28.594
79066W        W79931  24.501  28.330  27.673
79067W        W79932  24.804  28.674  27.381
79068W        W79933  24.023  28.476  25.809
79069W        W79934  22.033  28.368  28.651
79070W        W79935  22.776  26.360  27.889
79071W        W79936  22.746  25.708  26.999
79072W        W79937  24.367  26.550  27.691
79073W        W79938  23.165  27.721  25.891
79074W        W79939  25.163  27.663  27.390
79075W        W79940  22.490  28.421  28.813
79076W        W79941  24.877  29.103  26.610
79077W        W79942  22.976  26.123  27.055
79078W        W79943  22.745  27.616  27.145
79079W        W79944  23.058  29.027  27.895
79080W        W79945  25.125  29.123  28.927
79081W        W79946  24.284  27.311  27.860
79082W        W79947  22.133  27.109  25.775
79083W        W79948  25.267  28.767  26.472
79084W        W79949  25.104  26.091  26.091
79085W        W79950  23.243  25.610  28.494
79086W        W79951  24.949  28.412  26.952
79087W        W79952  24.978  26.968  26.857
79088W        W79953  23.095  26.641  27.073
79089W        W79954  23.340  26.903  28.397
79090W        W79955  24.451  28.056  28.260
79091W        W79956  23.101  26.510  28.372
79092W        W79957  23.080  28.976  26.988
79093W        W79958  22.397  28.935  28.622
79094W        W79959  22.509  28.296  25.752
79095W        W79960  25.026  28.054  26.562
79096W        W79961  22.630  26.846  28.448
79097W        W79962  25.403  26.776  25.929
79098W        W79963  23.148  27.833  26.400
79099W        W79964  24.247  27.215  28.481
79100W        W79965  24.138  26.843  28.025
79101W        W79966  22.698  27.215  28.054
79102W        W79967  24.908  29.103  27.883
79103W        W79968  24.699  25.737  28.877
79104W        W79969  22.363  25.887  28.464
79105W        W79970  22.702  26.910  27.517
79106W        W79971  23.071  26.724  25.639
79107W        W79972  21.874  28.483  28.184
79108W        W79973  23.459  27.192  27.627
79109W        W79974  23.282  26.217  25.732
79110W        W79975  22.417  27.033  26.513
79111W        W79976  22.188  28.885  27.950
79112W        W79977  24.983  27.111  26.058
79113W        W79978  25.078  26.027  28.744
79114W        W79979  24.514  28.236  26.707
79115W        W79980  22.112  27.160  28.884
79116W        W79981  25.078  25.624  26.180
79117W        W79982  24.598  28.099  26.191
79118W        W79983  23.500  27.157  26.276
79119W        W79984  24.687  25.961  25.799
79120W        W79985  24.752  26.568  27.985
79121W        W79986  22.461  27.161  27.192
79122W        W79987  22.755  28.100  26.841
79123W        W79988  24.518  26.720  26.806
79124W        W79989  23.541  26.099  27.502
79125W        W79990  25.503  28.010  28.013
79126W        W79991  25.421  25.997  27.574
79127W        W79992  21.960  28.827  26.950
79128W        W79993  22.469  28.014  26.486
79129W        W79994  22.384  25.631  29.039
79130W        W79995  23.503  28.484  29.141
79131W        W79996  25.258  27.452  26.931
79132W        W79997  24.612  27.629  25.811
79133W        W79998  23.907  29.150  28.023
79134W        W79999  24.764  27.872  29.060
79135W        W80000  23.579  25.582  26.340
79136W        W80001  24.292  26.451  27.199
79137W        W80002  21.978  28.038  27.531
79138W        W80003  23.231  26.000  26.172
79139W        W80004  23.035  27.484  29.021
79140W        W80005  24.029  26.465  26.735
79141W        W80006  24.234  27.875  27.857
79142W        W80007  22.388  28.480  28.292
79143W        W80008  22.979  28.463  29.015
79144W        W80009  22.830  26.260  26.029
79145W        W80010  24.347  26.402  26.354
79146W        W80011  24.305  28.510  28.591
79147W        W80012  22.990  27.102  27.190
79148W        W80013  22.645  28.800  28.055
79149W        W80014  25.390  28.917  25.656
79150W        W80015  22.253  27.589  28.652
79151W        W80016  24.248  27.851  27.340
79152W        W80017  22.684  27.500  26.582
79153W        W80018  23.055  28.507  27.977
79154W        W80019  23.433  25.926  27.018
79155W        W80020  22.044  27.910  25.948
79156W        W80021  23.563  26.861  25.818
79157W        W80022  22.209  27.410  26.837
79158W        W80023  23.499  26.052  28.301
79159W        W80024  25.171  25.761  25.728
79160W        W80025  25.264  27.507  28.827
79161W        W80026  23.918  28.764  28.979
79162W        W80027  25.476  27.858  28.501
79163W        W80028  24.884  28.656  29.112
79164W        W80029  22.623  29.112  27.590
79165W        W80030  25.482  27.734  26.464
79166W        W80031  24.012  27.001  26.977
79167W        W80032  23.779  25.613  26.867
79168W        W80033  22.838  28.597  26.704
79169W        W80034  23.337  26.338  27.929
79170W        W80035  23.037  25.707  27.398
79171W        W80036  22.100  28.529  25.946
79172W        W80037  23.916  27.893  26.664
79173W        W80038  22.791  28.688  28.543
79174W        W80039  22.268  27.511  26.239
79175W        W80040  22.153  26.054  27.238
79176W        W80041  23.701  28.019  27.295
79177W        W80042  21.953  25.873  26.315
79178W        W80043  24.617  27.079  28.242
79179W        W80044  24.494  26.465  25.814
79180W        W80045  25.011  28.137  27.462
79181W        W80046  23.672  28.621  27.293
79182W        W80047  23.084  28.725  26.204
79183W        W80048  24.366  25.628  25.634
79184W        W80049  22.166  28.888  27.375
79185W        W80050  24.363  26.646  29.010
79186W        W80051  22.346  26.176  29.009
79187W        W80052  22.077  26.776  26.342
79188W        W80053  22.768  26.765  26.067
79189W        W80054  24.531  27.092  28.884
79190W        W80055  22.874  27.373  27.593
79191W        W80056  24.348  25.659  26.713
79192W        W80057  23.479  29.090  27.216
79193W        W80058  24.693  28.552  28.153
79194W        W80059  24.277  28.701  27.264
79195W        W80060  24.296  27.681  26.858
79196W        W80061  23.758  25.906  25.929
79197W        W80062  25.439  25.534  26.651
79198W        W80063  23.127  27.169  25.814
79199W        W80064  25.293  26.506  26.804
79200W        W80065  23.985  27.676  25.681
79201W        W80066  24.921  27.876  28.429
79202W        W80067  24.575  28.577  25.896
79203W        W80068  23.190  26.252  28.802
79204W        W80069  23.010  26.836  28.043
79205W        W80070  25.102  28.331  28.320
79206W        W80071  24.202  26.281  28.697
79207W        W80072  22.046  26.752  28.474
79208W        W80073  23.806  27.229  28.200
79209W        W80074  22.163  27.987  26.857
79210W        W80075  22.310  27.284  27.747
79211W        W80076  24.627  27.570  28.097
79212W        W80077  24.399  28.950  28.908
79213W        W80078  24.295  26.689  28.461
79214W        W80079  24.572  28.743  26.866
79215W        W80080  23.574  28.463  28.189
79216W        W80081  23.059  28.818  27.458
79217W        W80082  24.864  27.989  27.877
79218W        W80083  23.914  28.061  29.014
79219W        W80084  22.519  28.014  27.353
79220W        W80085  24.865  27.773  26.998
79221W        W80086  24.506  28.839  27.749
79222W        W80087  22.484  28.568  27.619
79223W        W80088  23.505  26.620  28.829
79224W        W80089  23.956  28.786  26.340
79225W        W80090  23.264  28.041  28.978
79226W        W80091  23.390  28.279  26.355
79227W        W80092  22.611  27.019  25.614
79228W        W80093  25.594   3.595   3.359
79229W        W80094  25.970   2.488   2.882
79230W        W80095  28.675   2.218   0.652
79231W        W80096  28.805   3.303   2.679
79232W        W80097  26.723   3.294   0.205
79233W        W80098  26.806   1.446   1.188
79234W        W80099  26.321   1.294   1.352
79235W        W80100  27.312   2.109   0.786
79236W        W80101  26.987   3.201   3.141
79237W        W80102  25.636   0.762   3.104
79238W        W80103  26.398   0.042   2.906
79239W        W80104  28.092   0.430   1.793
79240W        W80105  27.741   1.301   0.363
79241W        W80106  28.311   0.735   3.454
79242W        W80107  25.677   0.527   2.579
79243W        W80108  25.776   3.146   3.600
79244W        W80109  27.298   2.536   0.332
79245W        W80110  25.730   1.319   2.025
79246W        W80111  26.623   1.210   3.262
79247W        W80112  29.082   1.069   1.761
79248W        W80113  28.846   2.112   2.620
79249W        W80114  27.154   1.445   1.647
79250W        W80115  27.700   2.784   2.016
79251W        W80116  26.200   2.218   2.248
79252W        W80117  25.559   1.746   1.819
79253W        W80118  26.595   1.718   3.011
79254W        W80119  28.866   1.501   3.265
79255W        W80120  26.482   2.945   1.710
79256W        W80121  27.603   2.634   2.844
79257W        W80122  26.823   1.274   2.069
79258W        W80123  27.115   2.058   1.712
79259W        W80124  28.112   2.831   3.560
79260W        W80125  27.191   2.151   3.570
79261W        W80126  27.172   1.867   3.048
79262W        W80127  25.581   1.258   3.570
79263W        W80128  28.413   2.793   3.169
79264W        W80129  25.994   0.375   1.167
79265W        W80130  26.521   2.633   2.166
79266W        W80131  28.984   2.416   1.456
79267W        W80132  28.397   0.816   2.023
79268W        W80133  28.682   0.769   0.118
79269W        W80134  29.147   1.570   2.424
79270W        W80135  27.114   3.277   2.177
79271W        W80136  28.888   2.743   0.615
79272W        W80137  26.017   3.529   0.369
79273W        W80138  26.410   3.575   1.045
79274W        W80139  26.207   0.329   2.471
79275W        W80140  28.830   1.347   2.746
79276W        W80141  28.235   1.769   1.205
79277W        W80142  28.201   1.457   0.232
79278W        W80143  27.409   2.601   2.372
79279W        W80144  27.215   0.931   1.571
79280W        W80145  27.815   3.018   2.565
79281W        W80146  28.686   1.809   0.987
79282W        W80147  27.588   0.467   1.003
79283W        W80148  26.245   3.161   0.686
79284W        W80149  25.616   0.660   1.285
79285W        W80150  28.402   1.267   1.759
79286W        W80151  25.860   2.884   1.674
79287W        W80152  27.201   3.234   0.544
79288W        W80153  28.593   1.260   0.008
79289W        W80154  25.616   3.018   2.172
79290W        W80155  26.407   2.590   2.652
79291W        W80156  26.780   1.950   1.271
79292W        W80157  26.802   0.355   2.364
79293W        W80158  29.031   0.117   1.661
79294W        W80159  26.250   1.989   0.129
79295W        W80160  25.905   1.022   0.308
79296W        W80161  25.967   2.978   1.102
79297W        W80162  27.098   2.461   1.350
79298W        W80163  28.430   3.320   3.064
79299W        W80164  27.356   0.962   0.748
79300W        W80165  28.739   3.360   1.520
79301W        W80166  28.416   1.213   3.118
79302W        W80167  29.129   2.869   1.252
79303W        W80168  27.756   2.161   2.736
79304W        W80169  25.522   1.712   0.942
79305W        W80170  26.633   2.127   2.515
79306W        W80171  27.837   1.391   0.893
79307W        W80172  27.714   1.881   0.997
79308W        W80173  26.057   1.301   2.471
79309W        W80174  26.042   1.177   3.393
79310W        W80175  25.932   0.094   1.552
79311W        W80176  27.700   0.441   2.113
79312W        W80177  27.348   0.626   3.276
79313W        W80178  27.703   0.775   0.454
79314W        W80179  28.886   3.168   3.208
79315W        W80180  27.853   0.249   3.247
79316W        W80181  28.872   2.550   3.369
79317W        W80182  28.302   0.717   2.965
79318W        W80183  28.102   0.655   1.235
79319W        W80184  28.495   1.789   3.639
79320W        W80185  26.235   3.365   1.625
79321W        W80186  26.893   1.082   0.611
79322W        W80187  26.462   0.366   3.275
79323W        W80188  28.514   0.850   0.956
79324W        W80189  28.881   1.332   0.901
79325W        W80190  26.624   3.549   3.372
79326W        W80191  26.550   0.085   0.607
79327W        W80192  28.871   0.619   1.642
79328W        W80193  29.021   2.868   0.087
79329W        W80194  25.928   2.071   1.789
79330W        W80195  27.845   0.658   0.019
79331W        W80196  28.979   2.990   1.739
79332W        W80197  29.018   0.184   2.489
79333W        W80198  27.463   1.396   3.043
79334W        W80199  27.556   2.735   0.746
79335W        W80200  27.956   2.029   3.486
79336W        W80201  27.630   0.006   1.795
79337W        W80202  26.242   0.909   1.858
79338W        W80203  25.796   2.109   2.632
79339W        W80204  27.655   3.302   1.338
79340W        W80205  28.849   0.899   2.210
79341W        W80206  27.486   3.246   2.977
79342W        W80207  28.829   2.305   0.182
79343W        W80208  27.264   1.788   1.243
79344W        W80209  29.116   0.299   2.984
79345W        W80210  27.265   2.134   2.578
79346W        W80211  27.482   1.020   2.023
79347W        W80212  28.334   1.318   0.861
79348W        W80213  28.621   1.051   0.503
79349W        W80214  28.430   3.091   0.892
79350W        W80215  28.264   2.694   1.688
79351W        W80216  28.160   1.773   0.666
79352W        W80217  27.593   1.983   1.652
79353W        W80218  28.474   1.771   1.719
79354W        W80219  25.849   0.786   2.143
79355W        W80220  28.627   1.838   2.970
79356W        W80221  28.978   3.456   2.116
79357W        W80222  26.908   2.900   1.518
79358W        W80223  27.915   3.433   2.842
79359W        W80224  27.909   0.763   2.606
79360W        W80225  27.116   3.471   2.667
79361W        W80226  28.813   0.425   1.133
79362W        W80227  28.604   1.744   2.434
79363W        W80228  25.587   1.065   2.472
79364W        W80229  28.447   0.860   1.490
79365W        W80230  28.858   1.011   3.267
79366W        W80231  27.743   2.710   1.485
79367W        W80232  26.999   3.301   1.098
79368W        W80233  26.114   0.481   0.356
79369W        W80234  27.218   0.135   2.166
79370W        W80235  26.246   3.255   0.014
79371W        W80236  26.620   1.721   0.765
79372W        W80237  27.274   2.350   3.078
79373W        W80238  27.104   0.708   1.068
79374W        W80239  28.460   0.305   1.496
79375W        W80240  28.180   3.587   1.824
79376W        W80241  27.592   3.235   2.164
79377W        W80242  26.988   2.272   2.125
79378W        W80243  28.758   2.995   2.251
79379W        W80244  26.452   0.498   1.020
79380W        W80245  26.974   2.795   1.980
79381W        W80246  26.457   0.726   0.045
79382W        W80247  27.258   1.335   2.439
79383W        W80248  28.106   0.201   2.309
79384W        W80249  25.526   2.044   2.194
79385W        W80250  27.230   1.862   0.352
79386W        W80251  26.498   0.177   0.122
79387W        W80252  27.236   1.258   1.173
79388W        W80253  28.206   0.234   2.872
79389W        W80254  26.794   2.246   2.981
79390W        W80255  27.598   2.028   3.198
79391W        W80256  28.215   2.058   3.091
79392W        W80257  27.499   0.198   3.596
79393W        W80258  26.721   0.814   1.989
79394W        W80259  26.147   0.770   1.387
79395W        W80260  25.933   3.482   1.063
79396W        W80261  27.265   2.812   3.188
79397W        W80262  26.300   2.297   0.547
79398W        W80263  27.980   1.682   1.768
79399W        W80264  28.260   1.481   2.167
79400W        W80265  27.465   2.155   2.101
79401W        W80266  27.935   2.529   0.233
79402W        W80267  27.607   0.550   1.561
79403W        W80268  29.086   0.828   0.829
79404W        W80269  25.580   3.417   2.860
79405W        W80270  25.997   2.643   2.392
79406W        W80271  25.564   3.489   0.624
79407W        W80272  27.463   0.759   2.430
79408W        W80273  26.826   2.782   0.279
79409W        W80274  28.731   3.164   0.465
79410W        W80275  27.706   1.817   0.479
79411W        W80276  26.549   1.008   0.996
79412W        W80277  27.381   0.918   0.048
79413W        W80278  27.965   2.483   3.226
79414W        W80279  28.318   0.389   0.843
79415W        W80280  25.648   0.237   0.291
79416W        W80281  26.934   2.556   2.581
79417W        W80282  26.733   2.472   1.673
79418W        W80283  26.475   2.424   0.071
79419W        W80284  25.716   2.665   0.839
79420W        W80285  26.220   1.735   3.281
79421W        W80286  26.924   0.295   3.467
79422W        W80287  27.633   0.437   2.823
79423W        W80288  26.828   0.205   1.104
79424W        W80289  27.887   0.282   0.609
79425W        W80290  25.832   0.214   2.186
79426W        W80291  25.880   1.177   1.556
79427W        W80292  28.569   0.285   1.962
79428W        W80293  25.991   0.783   0.776
79429W        W80294  28.562   0.471   2.392
79430W        W80295  28.958   1.674   0.077
79431W        W80296  26.250   0.432   1.896
79432W        W80297  27.364   1.004   2.836
79433W        W80298  25.512   0.694   0.314
79434W        W80299  26.298   2.083   2.875
79435W        W80300  27.656   1.481   2.054
79436W        W80301  27.523   3.560   0.350
79437W        W80302  25.669   2.067   0.047
79438W        W80303  26.404   2.478   3.173
79439W        W80304  25.925   1.645   2.804
79440W        W80305  26.916   1.750   2.598
79441W        W80306  28.684   0.109   2.860
79442W        W80307  29.082   1.719   2.851
79443W        W80308  29.070   1.919   0.537
79444W        W80309  27.933   2.251   0.636
79445W        W80310  28.407   3.551   0.331
79446W        W80311  27.584   1.541   3.473
79447W        W80312  25.914   2.508   3.513
79448W        W80313  29.120   0.430   3.465
79449W        W80314  28.838   1.358   2.086
79450W        W80315  27.146   3.488   3.563
79451W        W80316  27.001   0.117   0.290
79452W        W80317  28.540   2.716   0.233
79453W        W80318  26.309   0.809   3.119
79454W        W80319  26.743   2.803   2.981
79455W        W80320  28.869   0.794   2.779
79456W        W80321  28.080   3.453   0.747
79457W        W80322  28.319   2.072   2.114
79458W        W80323  26.569   0.488   2.781
79459W        W80324  27.038   1.557   3.538
79460W        W80325  26.541   2.736   0.732
79461W        W80326  28.296   2.234   0.996
79462W        W80327  26.064   0.860   2.720
79463W        W80328  27.393   2.922   1.184
79464W        W80329  29.143   1.482   1.365
79465W        W80330  27.365   0.115   3.084
79466W        W80331  28.145   2.820   2.163
79467W        W80332  28.448   3.164   1.871
79468W        W80333  27.667   2.966   0.299
79469W        W80334  25.677   2.858   3.141
79470W        W80335  26.420   0.850   2.379
79471W        W80336  26.390   0.198   1.489
79472W        W80337  28.011   1.040   2.181
79473W        W80338  26.809   2.211   0.381
79474W        W80339  28.807   2.153   1.880
79475W        W80340  26.134   2.911   3.303
79476W        W80341  28.521   3.593   1.100
79477W        W80342  26.620   0.613   1.545
79478W        W80343  26.389   2.106   1.635
79479W        W80344  26.702   3.517   2.385
79480W        W80345  28.769   3.613   3.417
79481W        W80346  27.928   1.801   2.350
79482W        W80347  25.777   1.599   0.265
79483W        W80348  28.911   3.257   0.962
79484W        W80349  28.748   0.581   0.581
79485W        W80350  26.887   0.100   2.984
79486W        W80351  28.593   2.902   1.442
79487W        W80352  28.622   1.458   1.347
79488W        W80353  26.739   1.131   1.563
79489W        W80354  26.984   1.393   2.887
79490W        W80355  28.095   2.546   2.750
79491W        W80356  26.745   1.000   2.862
79492W        W80357  26.724   3.466   1.478
79493W        W80358  26.041   3.425   3.112
79494W        W80359  26.153   2.786   0.242
79495W        W80360  28.670   2.544   1.052
79496W        W80361  26.274   1.336   2.938
79497W        W80362  29.047   1.266   0.419
79498W        W80363  26.792   2.323   0.890
79499W        W80364  27.891   1.705   2.971
79500W        W80365  27.782   1.333   2.515
79501W        W80366  26.342   1.705   2.544
79502W        W80367  28.552   3.593   2.373
79503W        W80368  28.343   0.227   3.367
79504W        W80369  26.007   0.377   2.954
79505W        W80370  26.346   1.400   2.007
79506W        W80371  26.715   1.214   0.129
79507W        W80372  25.518   2.973   2.674
79508W        W80373  27.103   1.682   2.117
79509W        W80374  26.926   0.707   0.222
79510W        W80375  26.061   1.523   1.003
79511W        W80376  25.832   3.375   2.440
79512W        W80377  28.627   1.601   0.548
79513W        W80378  28.722   0.517   3.234
79514W        W80379  28.158   2.726   1.197
79515W        W80380  25.756   1.650   3.374
79516W        W80381  28.722   0.114   0.670
79517W        W80382  28.242   2.589   0.681
79518W        W80383  27.144   1.647   0.766
79519W        W80384  28.331   0.451   0.289
79520W        W80385  28.396   1.058   2.475
79521W        W80386  26.105   1.651   1.682
79522W        W80387  26.399   2.590   1.331
79523W        W80388  28.162   1.210   1.296
79524W        W80389  27.185   0.589   1.992
79525W        W80390  29.147   2.500   2.503
79526W        W80391  29.065   0.487   2.064
79527W        W80392  25.604   3.317   1.440
79528W        W80393  26.113   2.504   0.976
79529W        W80394  26.028   0.121   3.529
79530W        W80395  27.147   2.974   3.631
79531W        W80396  28.902   1.942   1.421
79532W        W80397  28.256   2.119   0.301
79533W        W80398  27.551   3.640   2.513
79534W        W80399  28.408   2.362   3.550
79535W        W80400  27.223   0.072   0.830
79536W        W80401  27.936   0.941   1.689
79537W        W80402  25.622   2.528   2.021
79538W        W80403  26.875   0.490   0.662
79539W        W80404  26.679   1.974   3.511
79540W        W80405  27.673   0.955   1.225
79541W        W80406  27.878   2.365   2.347
79542W        W80407  26.032   2.970   2.782
79543W        W80408  26.623   2.953   3.505
79544W        W80409  26.474   0.750   0.519
79545W        W80410  27.991   0.892   0.844
79546W        W80411  27.949   3.000   3.081
79547W        W80412  26.634   1.592   1.680
79548W        W80413  26.289   3.290   2.545
79549W        W80414  29.034   3.407   0.146
79550W        W80415  25.897   2.079   3.142
79551W        W80416  27.892   2.341   1.830
79552W        W80417  26.328   1.990   1.072
79553W        W80418  26.699   2.997   2.467
79554W        W80419  27.077   0.416   1.508
79555W        W80420  25.688   2.400   0.438
79556W        W80421  27.207   1.351   0.308
79557W        W80422  25.853   1.900   1.327
79558W        W80423  27.143   0.542   2.791
79559W        W80424  28.815   0.251   0.218
79560W        W80425  28.908   1.997   3.317
79561W        W80426  27.562   3.254   3.469
79562W        W80427  29.120   2.348   2.991
79563W        W80428  28.528   3.146   3.602
79564W        W80429  26.267   3.602   2.080
79565W        W80430  29.126   2.224   0.954
79566W        W80431  27.656   1.491   1.467
79567W        W80432  27.423   0.103   1.357
79568W        W80433  26.482   3.087   1.194
79569W        W80434  26.981   0.828   2.419
79570W        W80435  26.681   0.197   1.888
79571W        W80436  25.744   3.019   0.436
79572W        W80437  27.560   2.383   1.154
79573W        W80438  26.435   3.178   3.033
79574W        W80439  25.912   2.001   0.729
79575W        W80440  25.797   0.544   1.728
79576W        W80441  27.345   2.509   1.785
79577W        W80442  25.597   0.363   0.805
79578W        W80443  28.261   1.569   2.732
79579W        W80444  28.138   0.955   0.304
79580W        W80445  28.655   2.627   1.952
79581W        W80446  27.316   3.111   1.783
79582W        W80447  26.728   3.215   0.694
79583W        W80448  28.010   0.118   0.124
79584W        W80449  25.810   3.378   1.865
79585W        W80450  28.007   1.136   3.500
79586W        W80451  25.990   0.666   3.499
79587W        W80452  25.721   1.266   0.832
79588W        W80453  26.412   1.255   0.557
79589W        W80454  28.175   1.582   3.374
79590W        W80455  26.518   1.863   2.083
79591W        W80456  27.992   0.149   1.203
79592W        W80457  27.123   3.580   1.706
79593W        W80458  28.337   3.042   2.643
79594W        W80459  27.921   3.191   1.754
79595W        W80460  27.940   2.171   1.348
79596W        W80461  27.402   0.396   0.419
79597W        W80462  29.083   0.024   1.141
79598W        W80463  26.771   1.659   0.304
79599W        W80464  28.937   0.996   1.294
79600W        W80465  27.629   2.166   0.171
79601W        W80466  28.565   2.366   2.919
79602W        W80467  28.219   3.067   0.386
79603W        W80468  26.834   0.742   3.292
79604W        W80469  26.654   1.326   2.533
79605W        W80470  28.746   2.821   2.810
79606W        W80471  27.846   0.771   3.187
79607W        W80472  25.690   1.242   2.964
79608W        W80473  27.450   1.719   2.690
79609W        W80474  25.807   2.477   1.347
79610W        W80475  25.954   1.774   2.237
79611W        W80476  28.271   2.060   2.587
79612W        W80477  28.043   3.440   3.398
79613W        W80478  27.939   1.179   2.951
79614W        W80479  28.216   3.233   1.356
79615W        W80480  27.218   2.953   2.679
79616W        W80481  26.703   3.308   1.948
79617W        W80482  28.508   2.479   2.367
79618W        W80483  27.558   2.551   3.504
79619W        W80484  26.163   2.504   1.843
79620W        W80485  28.509   2.263   1.488
79621W        W80486  28.150   3.329   2.239
79622W        W80487  26.128   3.058   2.109
79623W        W80488  27.149   1.110   3.319
79624W        W80489  27.600   3.276   0.830
79625W        W80490  26.908   2.531   3.468
79626W        W80491  27.034   2.769   0.845
79627W        W80492  26.255   1.509   0.104
79628W        W80493  25.594   3.595   7.003
79629W        W80494  25.970   2.488   6.526
79630W        W80495  28.675   2.218   4.296
79631W        W80496  28.805   3.303   6.323
79632W        W80497  26.723   3.294   3.849
79633W        W80498  26.806   1.446   4.832
79634W        W80499  26.321   1.294   4.996
79635W        W80500  27.312   2.109   4.430
79636W        W80501  26.987   3.201   6.785
79637W        W80502  25.636   0.762   6.748
79638W        W80503  26.398   0.042   6.550
79639W        W80504  28.092   0.430   5.437
79640W        W80505  27.741   1.301   4.007
79641W        W80506  28.311   0.735   7.098
79642W        W80507  25.677   0.527   6.223
79643W        W80508  25.776   3.146   7.244
79644W        W80509  27.298   2.536   3.976
79645W        W80510  25.730   1.319   5.669
79646W        W80511  26.623   1.210   6.906
79647W        W80512  29.082   1.069   5.405
79648W        W80513  28.846   2.112   6.264
79649W        W80514  27.154   1.445   5.291
79650W        W80515  27.700   2.784   5.660
79651W        W80516  26.200   2.218   5.892
79652W        W80517  25.559   1.746   5.463
79653W        W80518  26.595   1.718   6.655
79654W        W80519  28.866   1.501   6.909
79655W        W80520  26.482   2.945   5.354
79656W        W80521  27.603   2.634   6.488
79657W        W80522  26.823   1.274   5.713
79658W        W80523  27.115   2.058   5.356
79659W        W80524  28.112   2.831   7.204
79660W        W80525  27.191   2.151   7.214
79661W        W80526  27.172   1.867   6.692
79662W        W80527  25.581   1.258   7.214
79663W        W80528  28.413   2.793   6.813
79664W        W80529  25.994   0.375   4.811
79665W        W80530  26.521   2.633   5.810
79666W        W80531  28.984   2.416   5.100
79667W        W80532  28.397   0.816   5.667
79668W        W80533  28.682   0.769   3.762
79669W        W80534  29.147   1.570   6.068
79670W        W80535  27.114   3.277   5.821
79671W        W80536  28.888   2.743   4.259
79672W        W80537  26.017   3.529   4.013
79673W        W80538  26.410   3.575   4.689
79674W        W80539  26.207   0.329   6.115
79675W        W80540  28.830   1.347   6.390
79676W        W80541  28.235   1.769   4.849
79677W        W80542  28.201   1.457   3.876
79678W        W80543  27.409   2.601   6.016
79679W        W80544  27.215   0.931   5.215
79680W        W80545  27.815   3.018   6.209
79681W        W80546  28.686   1.809   4.631
79682W        W80547  27.588   0.467   4.647
79683W        W80548  26.245   3.161   4.330
79684W        W80549  25.616   0.660   4.929
79685W        W80550  28.402   1.267   5.403
79686W        W80551  25.860   2.884   5.318
79687W        W80552  27.201   3.234   4.188
79688W        W80553  28.593   1.260   3.652
79689W        W80554  25.616   3.018   5.816
79690W        W80555  26.407   2.590   6.296
79691W        W80556  26.780   1.950   4.915
79692W        W80557  26.802   0.355   6.008
79693W        W80558  29.031   0.117   5.305
79694W        W80559  26.250   1.989   3.773
79695W        W80560  25.905   1.022   3.952
79696W        W80561  25.967   2.978   4.746
79697W        W80562  27.098   2.461   4.994
79698W        W80563  28.430   3.320   6.708
79699W        W80564  27.356   0.962   4.392
79700W        W80565  28.739   3.360   5.164
79701W        W80566  28.416   1.213   6.762
79702W        W80567  29.129   2.869   4.896
79703W        W80568  27.756   2.161   6.380
79704W        W80569  25.522   1.712   4.586
79705W        W80570  26.633   2.127   6.159
79706W        W80571  27.837   1.391   4.537
79707W        W80572  27.714   1.881   4.641
79708W        W80573  26.057   1.301   6.115
79709W        W80574  26.042   1.177   7.037
79710W        W80575  25.932   0.094   5.196
79711W        W80576  27.700   0.441   5.757
79712W        W80577  27.348   0.626   6.920
79713W        W80578  27.703   0.775   4.098
79714W        W80579  28.886   3.168   6.852
79715W        W80580  27.853   0.249   6.891
79716W        W80581  28.872   2.550   7.013
79717W        W80582  28.302   0.717   6.609
79718W        W80583  28.102   0.655   4.879
79719W        W80584  28.495   1.789   7.283
79720W        W80585  26.235   3.365   5.269
79721W        W80586  26.893   1.082   4.255
79722W        W80587  26.462   0.366   6.919
79723W        W80588  28.514   0.850   4.600
79724W        W80589  28.881   1.332   4.545
79725W        W80590  26.624   3.549   7.016
79726W        W80591  26.550   0.085   4.251
79727W        W80592  28.871   0.619   5.286
79728W        W80593  29.021   2.868   3.731
79729W        W80594  25.928   2.071   5.433
79730W        W80595  27.845   0.658   3.663
79731W        W80596  28.979   2.990   5.383
79732W        W80597  29.018   0.184   6.133
79733W        W80598  27.463   1.396   6.687
79734W        W80599  27.556   2.735   4.390
79735W        W80600  27.956   2.029   7.130
79736W        W80601  27.630   0.006   5.439
79737W        W80602  26.242   0.909   5.502
79738W        W80603  25.796   2.109   6.276
79739W        W80604  27.655   3.302   4.982
79740W        W80605  28.849   0.899   5.854
79741W        W80606  27.486   3.246   6.621
79742W        W80607  28.829   2.305   3.826
79743W        W80608  27.264   1.788   4.887
79744W        W80609  29.116   0.299   6.628
79745W        W80610  27.265   2.134   6.222
79746W        W80611  27.482   1.020   5.667
79747W        W80612  28.334   1.318   4.505
79748W        W80613  28.621   1.051   4.147
79749W        W80614  28.430   3.091   4.536
79750W        W80615  28.264   2.694   5.332
79751W        W80616  28.160   1.773   4.310
79752W        W80617  27.593   1.983   5.296
79753W        W80618  28.474   1.771   5.363
79754W        W80619  25.849   0.786   5.787
79755W        W80620  28.627   1.838   6.614
79756W        W80621  28.978   3.456   5.760
79757W        W80622  26.908   2.900   5.162
79758W        W80623  27.915   3.433   6.486
79759W        W80624  27.909   0.763   6.250
79760W        W80625  27.116   3.471   6.311
79761W        W80626  28.813   0.425   4.777
79762W        W80627  28.604   1.744   6.078
79763W        W80628  25.587   1.065   6.116
79764W        W80629  28.447   0.860   5.134
79765W        W80630  28.858   1.011   6.911
79766W        W80631  27.743   2.710   5.129
79767W        W80632  26.999   3.301   4.742
79768W        W80633  26.114   0.481   4.000
79769W        W80634  27.218   0.135   5.810
79770W        W80635  26.246   3.255   3.658
79771W        W80636  26.620   1.721   4.409
79772W        W80637  27.274   2.350   6.722
79773W        W80638  27.104   0.708   4.712
79774W        W80639  28.460   0.305   5.140
79775W        W80640  28.180   3.587   5.468
79776W        W80641  27.592   3.235   5.808
79777W        W80642  26.988   2.272   5.769
79778W        W80643  28.758   2.995   5.895
79779W        W80644  26.452   0.498   4.664
79780W        W80645  26.974   2.795   5.624
79781W        W80646  26.457   0.726   3.689
79782W        W80647  27.258   1.335   6.083
79783W        W80648  28.106   0.201   5.953
79784W        W80649  25.526   2.044   5.838
79785W        W80650  27.230   1.862   3.996
79786W        W80651  26.498   0.177   3.766
79787W        W80652  27.236   1.258   4.817
79788W        W80653  28.206   0.234   6.516
79789W        W80654  26.794   2.246   6.625
79790W        W80655  27.598   2.028   6.842
79791W        W80656  28.215   2.058   6.735
79792W        W80657  27.499   0.198   7.240
79793W        W80658  26.721   0.814   5.633
79794W        W80659  26.147   0.770   5.031
79795W        W80660  25.933   3.482   4.707
79796W        W80661  27.265   2.812   6.832
79797W        W80662  26.300   2.297   4.191
79798W        W80663  27.980   1.682   5.412
79799W        W80664  28.260   1.481   5.811
79800W        W80665  27.465   2.155   5.745
79801W        W80666  27.935   2.529   3.877
79802W        W80667  27.607   0.550   5.205
79803W        W80668  29.086   0.828   4.473
79804W        W80669  25.580   3.417   6.504
79805W        W80670  25.997   2.643   6.036
79806W        W80671  25.564   3.489   4.268
79807W        W80672  27.463   0.759   6.074
79808W        W80673  26.826   2.782   3.923
79809W        W80674  28.731   3.164   4.109
79810W        W80675  27.706   1.817   4.123
79811W        W80676  26.549   1.008   4.640
79812W        W80677  27.381   0.918   3.692
79813W        W80678  27.965   2.483   6.870
79814W        W80679  28.318   0.389   4.487
79815W        W80680  25.648   0.237   3.935
79816W        W80681  26.934   2.556   6.225
79817W        W80682  26.733   2.472   5.317
79818W        W80683  26.475   2.424   3.715
79819W        W80684  25.716   2.665   4.483
79820W        W80685  26.220   1.735   6.925
79821W        W80686  26.924   0.295   7.111
79822W        W80687  27.633   0.437   6.467
79823W        W80688  26.828   0.205   4.748
79824W        W80689  27.887   0.282   4.253
79825W        W80690  25.832   0.214   5.830
79826W        W80691  25.880   1.177   5.200
79827W        W80692  28.569   0.285   5.606
79828W        W80693  25.991   0.783   4.420
79829W        W80694  28.562   0.471   6.036
79830W        W80695  28.958   1.674   3.721
79831W        W80696  26.250   0.432   5.540
79832W        W80697  27.364   1.004   6.480
79833W        W80698  25.512   0.694   3.958
79834W        W80699  26.298   2.083   6.519
79835W        W80700  27.656   1.481   5.698
79836W        W80701  27.523   3.560   3.994
79837W        W80702  25.669   2.067   3.691
79838W        W80703  26.404   2.478   6.817
79839W        W80704  25.925   1.645   6.448
79840W        W80705  26.916   1.750   6.242
79841W        W80706  28.684   0.109   6.504
79842W        W80707  29.082   1.719   6.495
79843W        W80708  29.070   1.919   4.181
79844W        W80709  27.933   2.251   4.280
79845W        W80710  28.407   3.551   3.975
79846W        W80711  27.584   1.541   7.117
79847W        W80712  25.914   2.508   7.157
79848W        W80713  29.120   0.430   7.109
79849W        W80714  28.838   1.358   5.730
79850W        W80715  27.146   3.488   7.207
79851W        W80716  27.001   0.117   3.934
79852W        W80717  28.540   2.716   3.877
79853W        W80718  26.309   0.809   6.763
79854W        W80719  26.743   2.803   6.625
79855W        W80720  28.869   0.794   6.423
79856W        W80721  28.080   3.453   4.391
79857W        W80722  28.319   2.072   5.758
79858W        W80723  26.569   0.488   6.425
79859W        W80724  27.038   1.557   7.182
79860W        W80725  26.541   2.736   4.376
79861W        W80726  28.296   2.234   4.640
79862W        W80727  26.064   0.860   6.364
79863W        W80728  27.393   2.922   4.828
79864W        W80729  29.143   1.482   5.009
79865W        W80730  27.365   0.115   6.728
79866W        W80731  28.145   2.820   5.807
79867W        W80732  28.448   3.164   5.515
79868W        W80733  27.667   2.966   3.943
79869W        W80734  25.677   2.858   6.785
79870W        W80735  26.420   0.850   6.023
79871W        W80736  26.390   0.198   5.133
79872W        W80737  28.011   1.040   5.825
79873W        W80738  26.809   2.211   4.025
79874W        W80739  28.807   2.153   5.524
79875W        W80740  26.134   2.911   6.947
79876W        W80741  28.521   3.593   4.744
79877W        W80742  26.620   0.613   5.189
79878W        W80743  26.389   2.106   5.279
79879W        W80744  26.702   3.517   6.029
79880W        W80745  28.769   3.613   7.061
79881W        W80746  27.928   1.801   5.994
79882W        W80747  25.777   1.599   3.909
79883W        W80748  28.911   3.257   4.606
79884W        W80749  28.748   0.581   4.225
79885W        W80750  26.887   0.100   6.628
79886W        W80751  28.593   2.902   5.086
79887W        W80752  28.622   1.458   4.991
79888W        W80753  26.739   1.131   5.207
79889W        W80754  26.984   1.393   6.531
79890W        W80755  28.095   2.546   6.394
79891W        W80756  26.745   1.000   6.506
79892W        W80757  26.724   3.466   5.122
79893W        W80758  26.041   3.425   6.756
79894W        W80759  26.153   2.786   3.886
79895W        W80760  28.670   2.544   4.696
79896W        W80761  26.274   1.336   6.582
79897W        W80762  29.047   1.266   4.063
79898W        W80763  26.792   2.323   4.534
79899W        W80764  27.782   1.333   6.159
79900W        W80765  26.342   1.705   6.188
79901W        W80766  28.552   3.593   6.017
79902W        W80767  28.343   0.227   7.011
79903W        W80768  26.007   0.377   6.598
79904W        W80769  26.346   1.400   5.651
79905W        W80770  26.715   1.214   3.773
79906W        W80771  25.518   2.973   6.318
79907W        W80772  27.103   1.682   5.761
79908W        W80773  26.926   0.707   3.866
79909W        W80774  26.061   1.523   4.647
79910W        W80775  25.832   3.375   6.084
79911W        W80776  28.627   1.601   4.192
79912W        W80777  28.722   0.517   6.878
79913W        W80778  28.158   2.726   4.841
79914W        W80779  25.756   1.650   7.018
79915W        W80780  28.722   0.114   4.314
79916W        W80781  28.242   2.589   4.325
79917W        W80782  27.144   1.647   4.410
79918W        W80783  28.331   0.451   3.933
79919W        W80784  28.396   1.058   6.119
79920W        W80785  26.105   1.651   5.326
79921W        W80786  26.399   2.590   4.975
79922W        W80787  28.162   1.210   4.940
79923W        W80788  27.185   0.589   5.636
79924W        W80789  29.147   2.500   6.147
79925W        W80790  29.065   0.487   5.708
79926W        W80791  25.604   3.317   5.084
79927W        W80792  26.113   2.504   4.620
79928W        W80793  26.028   0.121   7.173
79929W        W80794  27.147   2.974   7.275
79930W        W80795  28.902   1.942   5.065
79931W        W80796  28.256   2.119   3.945
79932W        W80797  27.551   3.640   6.157
79933W        W80798  28.408   2.362   7.194
79934W        W80799  27.223   0.072   4.474
79935W        W80800  27.936   0.941   5.333
79936W        W80801  25.622   2.528   5.665
79937W        W80802  26.875   0.490   4.306
79938W        W80803  26.679   1.974   7.155
79939W        W80804  27.673   0.955   4.869
79940W        W80805  27.878   2.365   5.991
79941W        W80806  26.032   2.970   6.426
79942W        W80807  26.623   2.953   7.149
79943W        W80808  26.474   0.750   4.163
79944W        W80809  27.991   0.892   4.488
79945W        W80810  27.949   3.000   6.725
79946W        W80811  26.634   1.592   5.324
79947W        W80812  26.289   3.290   6.189
79948W        W80813  29.034   3.407   3.790
79949W        W80814  25.897   2.079   6.786
79950W        W80815  27.892   2.341   5.474
79951W        W80816  26.328   1.990   4.716
79952W        W80817  26.699   2.997   6.111
79953W        W80818  27.077   0.416   5.152
79954W        W80819  25.688   2.400   4.082
79955W        W80820  27.207   1.351   3.952
79956W        W80821  25.853   1.900   4.971
79957W        W80822  27.143   0.542   6.435
79958W        W80823  28.815   0.251   3.862
79959W        W80824  28.908   1.997   6.961
79960W        W80825  27.562   3.254   7.113
79961W        W80826  29.120   2.348   6.635
79962W        W80827  28.528   3.146   7.246
79963W        W80828  26.267   3.602   5.724
79964W        W80829  29.126   2.224   4.598
79965W        W80830  27.656   1.491   5.111
79966W        W80831  27.423   0.103   5.001
79967W        W80832  26.482   3.087   4.838
79968W        W80833  26.981   0.828   6.063
79969W        W80834  26.681   0.197   5.532
79970W        W80835  25.744   3.019   4.080
79971W        W80836  27.560   2.383   4.798
79972W        W80837  26.435   3.178   6.677
79973W        W80838  25.912   2.001   4.373
79974W        W80839  25.797   0.544   5.372
79975W        W80840  27.345   2.509   5.429
79976W        W80841  25.597   0.363   4.449
79977W        W80842  28.261   1.569   6.376
79978W        W80843  28.138   0.955   3.948
79979W        W80844  28.655   2.627   5.596
79980W        W80845  27.316   3.111   5.427
79981W        W80846  26.728   3.215   4.338
79982W        W80847  28.010   0.118   3.768
79983W        W80848  25.810   3.378   5.509
79984W        W80849  28.007   1.136   7.144
79985W        W80850  25.990   0.666   7.143
79986W        W80851  25.721   1.266   4.476
79987W        W80852  26.412   1.255   4.201
79988W        W80853  28.175   1.582   7.018
79989W        W80854  26.518   1.863   5.727
79990W        W80855  27.992   0.149   4.847
79991W        W80856  27.123   3.580   5.350
79992W        W80857  28.337   3.042   6.287
79993W        W80858  27.921   3.191   5.398
79994W        W80859  27.940   2.171   4.992
79995W        W80860  27.402   0.396   4.063
79996W        W80861  29.083   0.024   4.785
79997W        W80862  26.771   1.659   3.948
79998W        W80863  28.937   0.996   4.938
79999W        W80864  27.629   2.166   3.815
80000W        W80865  28.565   2.366   6.563
80001W        W80866  28.219   3.067   4.030
80002W        W80867  26.834   0.742   6.936
80003W        W80868  26.654   1.326   6.177
80004W        W80869  28.746   2.821   6.454
80005W        W80870  27.846   0.771   6.831
80006W        W80871  25.690   1.242   6.608
80007W        W80872  27.450   1.719   6.334
80008W        W80873  25.807   2.477   4.991
80009W        W80874  25.954   1.774   5.881
80010W        W80875  28.271   2.060   6.231
80011W        W80876  28.043   3.440   7.042
80012W        W80877  27.939   1.179   6.595
80013W        W80878  28.216   3.233   5.000
80014W        W80879  27.218   2.953   6.323
80015W        W80880  26.703   3.308   5.592
80016W        W80881  28.508   2.479   6.011
80017W        W80882  27.558   2.551   7.148
80018W        W80883  26.163   2.504   5.487
80019W        W80884  28.509   2.263   5.132
80020W        W80885  28.150   3.329   5.883
80021W        W80886  26.128   3.058   5.753
80022W        W80887  27.149   1.110   6.963
80023W        W80888  27.600   3.276   4.474
80024W        W80889  26.908   2.531   7.112
80025W        W80890  27.034   2.769   4.489
80026W        W80891  26.255   1.509   3.748
80027W        W80892  25.594   3.595  10.648
80028W        W80893  25.970   2.488  10.171
80029W        W80894  28.675   2.218   7.941
80030W        W80895  28.805   3.303   9.968
80031W        W80896  26.723   3.294   7.494
80032W        W80897  26.806   1.446   8.477
80033W        W80898  26.321   1.294   8.641
80034W        W80899  27.312   2.109   8.075
80035W        W80900  26.987   3.201  10.430
80036W        W80901  25.636   0.762  10.393
80037W        W80902  26.398   0.042  10.195
80038W        W80903  28.092   0.430   9.082
80039W        W80904  27.741   1.301   7.652
80040W        W80905  28.311   0.735  10.743
80041W        W80906  25.677   0.527   9.868
80042W        W80907  25.776   3.146  10.889
80043W        W80908  27.298   2.536   7.621
80044W        W80909  25.730   1.319   9.314
80045W        W80910  26.623   1.210  10.551
80046W        W80911  29.082   1.069   9.050
80047W        W80912  28.846   2.112   9.909
80048W        W80913  27.154   1.445   8.936
80049W        W80914  27.700   2.784   9.305
80050W        W80915  26.200   2.218   9.537
80051W        W80916  25.559   1.746   9.108
80052W        W80917  26.595   1.718  10.300
80053W        W80918  28.866   1.501  10.554
80054W        W80919  26.482   2.945   8.999
80055W        W80920  27.603   2.634  10.133
80056W        W80921  26.823   1.274   9.358
80057W        W80922  27.115   2.058   9.001
80058W        W80923  28.112   2.831  10.849
80059W        W80924  27.191   2.151  10.859
80060W        W80925  27.172   1.867  10.337
80061W        W80926  25.581   1.258  10.859
80062W        W80927  28.413   2.793  10.458
80063W        W80928  25.994   0.375   8.456
80064W        W80929  26.521   2.633   9.455
80065W        W80930  28.984   2.416   8.745
80066W        W80931  28.397   0.816   9.312
80067W        W80932  28.682   0.769   7.407
80068W        W80933  29.147   1.570   9.713
80069W        W80934  27.114   3.277   9.466
80070W        W80935  28.888   2.743   7.904
80071W        W80936  26.017   3.529   7.658
80072W        W80937  26.410   3.575   8.334
80073W        W80938  26.207   0.329   9.760
80074W        W80939  28.830   1.347  10.035
80075W        W80940  28.235   1.769   8.494
80076W        W80941  28.201   1.457   7.521
80077W        W80942  27.409   2.601   9.661
80078W        W80943  27.215   0.931   8.860
80079W        W80944  27.815   3.018   9.854
80080W        W80945  28.686   1.809   8.276
80081W        W80946  27.588   0.467   8.292
80082W        W80947  26.245   3.161   7.975
80083W        W80948  25.616   0.660   8.574
80084W        W80949  28.402   1.267   9.048
80085W        W80950  25.860   2.884   8.963
80086W        W80951  27.201   3.234   7.833
80087W        W80952  28.593   1.260   7.297
80088W        W80953  25.616   3.018   9.461
80089W        W80954  26.407   2.590   9.941
80090W        W80955  26.780   1.950   8.560
80091W        W80956  26.802   0.355   9.653
80092W        W80957  29.031   0.117   8.950
80093W        W80958  26.250   1.989   7.418
80094W        W80959  25.905   1.022   7.597
80095W        W80960  25.967   2.978   8.391
80096W        W80961  27.098   2.461   8.639
80097W        W80962  28.430   3.320  10.353
80098W        W80963  27.356   0.962   8.037
80099W        W80964  28.739   3.360   8.809
80100W        W80965  28.416   1.213  10.407
80101W        W80966  29.129   2.869   8.541
80102W        W80967  27.756   2.161  10.025
80103W        W80968  25.522   1.712   8.231
80104W        W80969  26.633   2.127   9.804
80105W        W80970  27.837   1.391   8.182
80106W        W80971  27.714   1.881   8.286
80107W        W80972  26.057   1.301   9.760
80108W        W80973  26.042   1.177  10.682
80109W        W80974  25.932   0.094   8.841
80110W        W80975  27.700   0.441   9.402
80111W        W80976  27.348   0.626  10.565
80112W        W80977  27.703   0.775   7.743
80113W        W80978  28.886   3.168  10.497
80114W        W80979  27.853   0.249  10.536
80115W        W80980  28.872   2.550  10.658
80116W        W80981  28.302   0.717  10.254
80117W        W80982  28.102   0.655   8.524
80118W        W80983  28.495   1.789  10.928
80119W        W80984  26.235   3.365   8.914
80120W        W80985  26.893   1.082   7.900
80121W        W80986  26.462   0.366  10.564
80122W        W80987  28.514   0.850   8.245
80123W        W80988  28.881   1.332   8.190
80124W        W80989  26.624   3.549  10.661
80125W        W80990  26.550   0.085   7.896
80126W        W80991  28.871   0.619   8.931
80127W        W80992  29.021   2.868   7.376
80128W        W80993  25.928   2.071   9.078
80129W        W80994  27.845   0.658   7.308
80130W        W80995  28.979   2.990   9.028
80131W        W80996  29.018   0.184   9.778
80132W        W80997  27.463   1.396  10.332
80133W        W80998  27.556   2.735   8.035
80134W        W80999  27.956   2.029  10.775
80135W        W81000  27.630   0.006   9.084
80136W        W81001  26.242   0.909   9.147
80137W        W81002  25.796   2.109   9.921
80138W        W81003  27.655   3.302   8.627
80139W        W81004  28.849   0.899   9.499
80140W        W81005  27.486   3.246  10.266
80141W        W81006  28.829   2.305   7.471
80142W        W81007  27.264   1.788   8.532
80143W        W81008  29.116   0.299  10.273
80144W        W81009  27.265   2.134   9.867
80145W        W81010  27.482   1.020   9.312
80146W        W81011  28.334   1.318   8.150
80147W        W81012  28.621   1.051   7.792
80148W        W81013  28.430   3.091   8.181
80149W        W81014  28.264   2.694   8.977
80150W        W81015  28.160   1.773   7.955
80151W        W81016  27.593   1.983   8.941
80152W        W81017  28.474   1.771   9.008
80153W        W81018  25.849   0.786   9.432
80154W        W81019  28.627   1.838  10.259
80155W        W81020  28.978   3.456   9.405
80156W        W81021  26.908   2.900   8.807
80157W        W81022  27.915   3.433  10.131
80158W        W81023  27.909   0.763   9.895
80159W        W81024  27.116   3.471   9.956
80160W        W81025  28.813   0.425   8.422
80161W        W81026  28.604   1.744   9.723
80162W        W81027  25.587   1.065   9.761
80163W        W81028  28.447   0.860   8.779
80164W        W81029  28.858   1.011  10.556
80165W        W81030  27.743   2.710   8.774
80166W        W81031  26.999   3.301   8.387
80167W        W81032  26.114   0.481   7.645
80168W        W81033  27.218   0.135   9.455
80169W        W81034  26.246   3.255   7.303
80170W        W81035  26.620   1.721   8.054
80171W        W81036  27.274   2.350  10.367
80172W        W81037  27.104   0.708   8.357
80173W        W81038  28.460   0.305   8.785
80174W        W81039  28.180   3.587   9.113
80175W        W81040  27.592   3.235   9.453
80176W        W81041  26.988   2.272   9.414
80177W        W81042  28.758   2.995   9.540
80178W        W81043  26.452   0.498   8.309
80179W        W81044  26.974   2.795   9.269
80180W        W81045  26.457   0.726   7.334
80181W        W81046  27.258   1.335   9.728
80182W        W81047  28.106   0.201   9.598
80183W        W81048  25.526   2.044   9.483
80184W        W81049  27.230   1.862   7.641
80185W        W81050  26.498   0.177   7.411
80186W        W81051  27.236   1.258   8.462
80187W        W81052  28.206   0.234  10.161
80188W        W81053  26.794   2.246  10.270
80189W        W81054  27.598   2.028  10.487
80190W        W81055  28.215   2.058  10.380
80191W        W81056  27.499   0.198  10.885
80192W        W81057  26.721   0.814   9.278
80193W        W81058  26.147   0.770   8.676
80194W        W81059  25.933   3.482   8.352
80195W        W81060  27.265   2.812  10.477
80196W        W81061  26.300   2.297   7.836
80197W        W81062  27.980   1.682   9.057
80198W        W81063  28.260   1.481   9.456
80199W        W81064  27.465   2.155   9.390
80200W        W81065  27.935   2.529   7.522
80201W        W81066  27.607   0.550   8.850
80202W        W81067  29.086   0.828   8.118
80203W        W81068  25.580   3.417  10.149
80204W        W81069  25.997   2.643   9.681
80205W        W81070  25.564   3.489   7.913
80206W        W81071  27.463   0.759   9.719
80207W        W81072  26.826   2.782   7.568
80208W        W81073  28.731   3.164   7.754
80209W        W81074  27.706   1.817   7.768
80210W        W81075  26.549   1.008   8.285
80211W        W81076  27.381   0.918   7.337
80212W        W81077  27.965   2.483  10.515
80213W        W81078  28.318   0.389   8.132
80214W        W81079  25.648   0.237   7.580
80215W        W81080  26.934   2.556   9.870
80216W        W81081  26.733   2.472   8.962
80217W        W81082  26.475   2.424   7.360
80218W        W81083  25.716   2.665   8.128
80219W        W81084  26.220   1.735  10.570
80220W        W81085  26.924   0.295  10.756
80221W        W81086  27.633   0.437  10.112
80222W        W81087  26.828   0.205   8.393
80223W        W81088  27.887   0.282   7.898
80224W        W81089  25.832   0.214   9.475
80225W        W81090  25.880   1.177   8.845
80226W        W81091  28.569   0.285   9.251
80227W        W81092  25.991   0.783   8.065
80228W        W81093  28.562   0.471   9.681
80229W        W81094  28.958   1.674   7.366
80230W        W81095  26.250   0.432   9.185
80231W        W81096  27.364   1.004  10.125
80232W        W81097  25.512   0.694   7.603
80233W        W81098  26.298   2.083  10.164
80234W        W81099  27.656   1.481   9.343
80235W        W81100  27.523   3.560   7.639
80236W        W81101  25.669   2.067   7.336
80237W        W81102  26.404   2.478  10.462
80238W        W81103  25.925   1.645  10.093
80239W        W81104  26.916   1.750   9.887
80240W        W81105  28.684   0.109  10.149
80241W        W81106  29.082   1.719  10.140
80242W        W81107  29.070   1.919   7.826
80243W        W81108  27.933   2.251   7.925
80244W        W81109  28.407   3.551   7.620
80245W        W81110  27.584   1.541  10.762
80246W        W81111  25.914   2.508  10.802
80247W        W81112  29.120   0.430  10.754
80248W        W81113  28.838   1.358   9.375
80249W        W81114  27.146   3.488  10.852
80250W        W81115  27.001   0.117   7.579
80251W        W81116  28.540   2.716   7.522
80252W        W81117  26.309   0.809  10.408
80253W        W81118  26.743   2.803  10.270
80254W        W81119  28.869   0.794  10.068
80255W        W81120  28.080   3.453   8.036
80256W        W81121  28.319   2.072   9.403
80257W        W81122  26.569   0.488  10.070
80258W        W81123  27.038   1.557  10.827
80259W        W81124  26.541   2.736   8.021
80260W        W81125  28.296   2.234   8.285
80261W        W81126  26.064   0.860  10.009
80262W        W81127  27.393   2.922   8.473
80263W        W81128  29.143   1.482   8.654
80264W        W81129  27.365   0.115  10.373
80265W        W81130  28.145   2.820   9.452
80266W        W81131  28.448   3.164   9.160
80267W        W81132  27.667   2.966   7.588
80268W        W81133  25.677   2.858  10.430
80269W        W81134  26.420   0.850   9.668
80270W        W81135  26.390   0.198   8.778
80271W        W81136  28.011   1.040   9.470
80272W        W81137  26.809   2.211   7.670
80273W        W81138  28.807   2.153   9.169
80274W        W81139  26.134   2.911  10.592
80275W        W81140  28.521   3.593   8.389
80276W        W81141  26.620   0.613   8.834
80277W        W81142  26.389   2.106   8.924
80278W        W81143  26.702   3.517   9.674
80279W        W81144  28.769   3.613  10.706
80280W        W81145  27.928   1.801   9.639
80281W        W81146  25.777   1.599   7.554
80282W        W81147  28.911   3.257   8.251
80283W        W81148  28.748   0.581   7.870
80284W        W81149  26.887   0.100  10.273
80285W        W81150  28.593   2.902   8.731
80286W        W81151  28.622   1.458   8.636
80287W        W81152  26.739   1.131   8.852
80288W        W81153  26.984   1.393  10.176
80289W        W81154  28.095   2.546  10.039
80290W        W81155  26.745   1.000  10.151
80291W        W81156  26.724   3.466   8.767
80292W        W81157  26.041   3.425  10.401
80293W        W81158  26.153   2.786   7.531
80294W        W81159  28.670   2.544   8.341
80295W        W81160  26.274   1.336  10.227
80296W        W81161  29.047   1.266   7.708
80297W        W81162  26.792   2.323   8.179
80298W        W81163  27.891   1.705  10.260
80299W        W81164  27.782   1.333   9.804
80300W        W81165  26.342   1.705   9.833
80301W        W81166  28.552   3.593   9.662
80302W        W81167  28.343   0.227  10.656
80303W        W81168  26.007   0.377  10.243
80304W        W81169  26.346   1.400   9.296
80305W        W81170  26.715   1.214   7.418
80306W        W81171  25.518   2.973   9.963
80307W        W81172  27.103   1.682   9.406
80308W        W81173  26.926   0.707   7.511
80309W        W81174  26.061   1.523   8.292
80310W        W81175  25.832   3.375   9.729
80311W        W81176  28.627   1.601   7.837
80312W        W81177  28.722   0.517  10.523
80313W        W81178  28.158   2.726   8.486
80314W        W81179  25.756   1.650  10.663
80315W        W81180  28.722   0.114   7.959
80316W        W81181  28.242   2.589   7.970
80317W        W81182  27.144   1.647   8.055
80318W        W81183  28.331   0.451   7.578
80319W        W81184  28.396   1.058   9.764
80320W        W81185  26.105   1.651   8.971
80321W        W81186  26.399   2.590   8.620
80322W        W81187  28.162   1.210   8.585
80323W        W81188  27.185   0.589   9.281
80324W        W81189  29.147   2.500   9.792
80325W        W81190  29.065   0.487   9.353
80326W        W81191  25.604   3.317   8.729
80327W        W81192  26.113   2.504   8.265
80328W        W81193  26.028   0.121  10.818
80329W        W81194  27.147   2.974  10.920
80330W        W81195  28.902   1.942   8.710
80331W        W81196  28.256   2.119   7.590
80332W        W81197  27.551   3.640   9.802
80333W        W81198  28.408   2.362  10.839
80334W        W81199  27.223   0.072   8.119
80335W        W81200  27.936   0.941   8.978
80336W        W81201  25.622   2.528   9.310
80337W        W81202  26.875   0.490   7.951
80338W        W81203  26.679   1.974  10.800
80339W        W81204  27.673   0.955   8.514
80340W        W81205  27.878   2.365   9.636
80341W        W81206  26.032   2.970  10.071
80342W        W81207  26.623   2.953  10.794
80343W        W81208  26.474   0.750   7.808
80344W        W81209  27.991   0.892   8.133
80345W        W81210  27.949   3.000  10.370
80346W        W81211  26.634   1.592   8.969
80347W        W81212  26.289   3.290   9.834
80348W        W81213  29.034   3.407   7.435
80349W        W81214  25.897   2.079  10.431
80350W        W81215  27.892   2.341   9.119
80351W        W81216  26.328   1.990   8.361
80352W        W81217  26.699   2.997   9.756
80353W        W81218  27.077   0.416   8.797
80354W        W81219  25.688   2.400   7.727
80355W        W81220  27.207   1.351   7.597
80356W        W81221  25.853   1.900   8.616
80357W        W81222  27.143   0.542  10.080
80358W        W81223  28.815   0.251   7.507
80359W        W81224  28.908   1.997  10.606
80360W        W81225  27.562   3.254  10.758
80361W        W81226  29.120   2.348  10.280
80362W        W81227  28.528   3.146  10.891
80363W        W81228  26.267   3.602   9.369
80364W        W81229  29.126   2.224   8.243
80365W        W81230  27.656   1.491   8.756
80366W        W81231  27.423   0.103   8.646
80367W        W81232  26.482   3.087   8.483
80368W        W81233  26.981   0.828   9.708
80369W        W81234  26.681   0.197   9.177
80370W        W81235  25.744   3.019   7.725
80371W        W81236  27.560   2.383   8.443
80372W        W81237  26.435   3.178  10.322
80373W        W81238  25.912   2.001   8.018
80374W        W81239  25.797   0.544   9.017
80375W        W81240  27.345   2.509   9.074
80376W        W81241  25.597   0.363   8.094
80377W        W81242  28.261   1.569  10.021
80378W        W81243  28.138   0.955   7.593
80379W        W81244  28.655   2.627   9.241
80380W        W81245  27.316   3.111   9.072
80381W        W81246  26.728   3.215   7.983
80382W        W81247  28.010   0.118   7.413
80383W        W81248  25.810   3.378   9.154
80384W        W81249  28.007   1.136  10.789
80385W        W81250  25.990   0.666  10.788
80386W        W81251  25.721   1.266   8.121
80387W        W81252  26.412   1.255   7.846
80388W        W81253  28.175   1.582  10.663
80389W        W81254  26.518   1.863   9.372
80390W        W81255  27.992   0.149   8.492
80391W        W81256  27.123   3.580   8.995
80392W        W81257  28.337   3.042   9.932
80393W        W81258  27.921   3.191   9.043
80394W        W81259  27.940   2.171   8.637
80395W        W81260  27.402   0.396   7.708
80396W        W81261  29.083   0.024   8.430
80397W        W81262  26.771   1.659   7.593
80398W        W81263  28.937   0.996   8.583
80399W        W81264  27.629   2.166   7.460
80400W        W81265  28.565   2.366  10.208
80401W        W81266  28.219   3.067   7.675
80402W        W81267  26.834   0.742  10.581
80403W        W81268  26.654   1.326   9.822
80404W        W81269  28.746   2.821  10.099
80405W        W81270  27.846   0.771  10.476
80406W        W81271  25.690   1.242  10.253
80407W        W81272  27.450   1.719   9.979
80408W        W81273  25.807   2.477   8.636
80409W        W81274  25.954   1.774   9.526
80410W        W81275  28.271   2.060   9.876
80411W        W81276  28.043   3.440  10.687
80412W        W81277  27.939   1.179  10.240
80413W        W81278  28.216   3.233   8.645
80414W        W81279  27.218   2.953   9.968
80415W        W81280  26.703   3.308   9.237
80416W        W81281  28.508   2.479   9.656
80417W        W81282  27.558   2.551  10.793
80418W        W81283  26.163   2.504   9.132
80419W        W81284  28.509   2.263   8.777
80420W        W81285  28.150   3.329   9.528
80421W        W81286  26.128   3.058   9.398
80422W        W81287  27.149   1.110  10.608
80423W        W81288  27.600   3.276   8.119
80424W        W81289  26.908   2.531  10.757
80425W        W81290  27.034   2.769   8.134
80426W        W81291  26.255   1.509   7.393
80427W        W81292  25.594   3.595  14.292
80428W        W81293  25.970   2.488  13.815
80429W        W81294  28.675   2.218  11.585
80430W        W81295  28.805   3.303  13.612
80431W        W81296  26.723   3.294  11.138
80432W        W81297  26.806   1.446  12.121
80433W        W81298  26.321   1.294  12.285
80434W        W81299  27.312   2.109  11.719
80435W        W81300  26.987   3.201  14.074
80436W        W81301  25.636   0.762  14.037
80437W        W81302  26.398   0.042  13.839
80438W        W81303  28.092   0.430  12.726
80439W        W81304  27.741   1.301  11.296
80440W        W81305  28.311   0.735  14.387
80441W        W81306  25.677   0.527  13.512
80442W        W81307  25.776   3.146  14.533
80443W        W81308  27.298   2.536  11.265
80444W        W81309  25.730   1.319  12.958
80445W        W81310  26.623   1.210  14.195
80446W        W81311  29.082   1.069  12.694
80447W        W81312  28.846   2.112  13.553
80448W        W81313  27.154   1.445  12.580
80449W        W81314  27.700   2.784  12.949
80450W        W81315  26.200   2.218  13.181
80451W        W81316  25.559   1.746  12.752
80452W        W81317  26.595   1.718  13.944
80453W        W81318  28.866   1.501  14.198
80454W        W81319  26.482   2.945  12.643
80455W        W81320  27.603   2.634  13.777
80456W        W81321  26.823   1.274  13.002
80457W        W81322  27.115   2.058  12.645
80458W        W81323  28.112   2.831  14.493
80459W        W81324  27.191   2.151  14.503
80460W        W81325  27.172   1.867  13.981
80461W        W81326  25.581   1.258  14.503
80462W        W81327  28.413   2.793  14.102
80463W        W81328  25.994   0.375  12.100
80464W        W81329  26.521   2.633  13.099
80465W        W81330  28.984   2.416  12.389
80466W        W81331  28.397   0.816  12.956
80467W        W81332  28.682   0.769  11.051
80468W        W81333  29.147   1.570  13.357
80469W        W81334  27.114   3.277  13.110
80470W        W81335  28.888   2.743  11.548
80471W        W81336  26.017   3.529  11.302
80472W        W81337  26.410   3.575  11.978
80473W        W81338  26.207   0.329  13.404
80474W        W81339  28.830   1.347  13.679
80475W        W81340  28.235   1.769  12.138
80476W        W81341  28.201   1.457  11.165
80477W        W81342  27.409   2.601  13.305
80478W        W81343  27.215   0.931  12.504
80479W        W81344  27.815   3.018  13.498
80480W        W81345  28.686   1.809  11.920
80481W        W81346  27.588   0.467  11.936
80482W        W81347  26.245   3.161  11.619
80483W        W81348  25.616   0.660  12.218
80484W        W81349  28.402   1.267  12.692
80485W        W81350  25.860   2.884  12.607
80486W        W81351  27.201   3.234  11.477
80487W        W81352  28.593   1.260  10.941
80488W        W81353  25.616   3.018  13.105
80489W        W81354  26.407   2.590  13.585
80490W        W81355  26.780   1.950  12.204
80491W        W81356  26.802   0.355  13.297
80492W        W81357  29.031   0.117  12.594
80493W        W81358  26.250   1.989  11.062
80494W        W81359  25.905   1.022  11.241
80495W        W81360  25.967   2.978  12.035
80496W        W81361  27.098   2.461  12.283
80497W        W81362  28.430   3.320  13.997
80498W        W81363  27.356   0.962  11.681
80499W        W81364  28.739   3.360  12.453
80500W        W81365  28.416   1.213  14.051
80501W        W81366  29.129   2.869  12.185
80502W        W81367  27.756   2.161  13.669
80503W        W81368  25.522   1.712  11.875
80504W        W81369  26.633   2.127  13.448
80505W        W81370  27.837   1.391  11.826
80506W        W81371  27.714   1.881  11.930
80507W        W81372  26.057   1.301  13.404
80508W        W81373  26.042   1.177  14.326
80509W        W81374  25.932   0.094  12.485
80510W        W81375  27.700   0.441  13.046
80511W        W81376  27.348   0.626  14.209
80512W        W81377  27.703   0.775  11.387
80513W        W81378  28.886   3.168  14.141
80514W        W81379  27.853   0.249  14.180
80515W        W81380  28.872   2.550  14.302
80516W        W81381  28.302   0.717  13.898
80517W        W81382  28.102   0.655  12.168
80518W        W81383  28.495   1.789  14.572
80519W        W81384  26.235   3.365  12.558
80520W        W81385  26.893   1.082  11.544
80521W        W81386  26.462   0.366  14.208
80522W        W81387  28.514   0.850  11.889
80523W        W81388  28.881   1.332  11.834
80524W        W81389  26.624   3.549  14.305
80525W        W81390  26.550   0.085  11.540
80526W        W81391  28.871   0.619  12.575
80527W        W81392  29.021   2.868  11.020
80528W        W81393  25.928   2.071  12.722
80529W        W81394  27.845   0.658  10.952
80530W        W81395  28.979   2.990  12.672
80531W        W81396  29.018   0.184  13.422
80532W        W81397  27.463   1.396  13.976
80533W        W81398  27.556   2.735  11.679
80534W        W81399  27.956   2.029  14.419
80535W        W81400  27.630   0.006  12.728
80536W        W81401  26.242   0.909  12.791
80537W        W81402  25.796   2.109  13.565
80538W        W81403  27.655   3.302  12.271
80539W        W81404  28.849   0.899  13.143
80540W        W81405  27.486   3.246  13.910
80541W        W81406  28.829   2.305  11.115
80542W        W81407  27.264   1.788  12.176
80543W        W81408  29.116   0.299  13.917
80544W        W81409  27.265   2.134  13.511
80545W        W81410  27.482   1.020  12.956
80546W        W81411  28.334   1.318  11.794
80547W        W81412  28.621   1.051  11.436
80548W        W81413  28.430   3.091  11.825
80549W        W81414  28.264   2.694  12.621
80550W        W81415  28.160   1.773  11.599
80551W        W81416  27.593   1.983  12.585
80552W        W81417  28.474   1.771  12.652
80553W        W81418  25.849   0.786  13.076
80554W        W81419  28.627   1.838  13.903
80555W        W81420  28.978   3.456  13.049
80556W        W81421  26.908   2.900  12.451
80557W        W81422  27.915   3.433  13.775
80558W        W81423  27.909   0.763  13.539
80559W        W81424  27.116   3.471  13.600
80560W        W81425  28.813   0.425  12.066
80561W        W81426  28.604   1.744  13.367
80562W        W81427  25.587   1.065  13.405
80563W        W81428  28.447   0.860  12.423
80564W        W81429  28.858   1.011  14.200
80565W        W81430  27.743   2.710  12.418
80566W        W81431  26.999   3.301  12.031
80567W        W81432  26.114   0.481  11.289
80568W        W81433  27.218   0.135  13.099
80569W        W81434  26.246   3.255  10.947
80570W        W81435  26.620   1.721  11.698
80571W        W81436  27.274   2.350  14.011
80572W        W81437  27.104   0.708  12.001
80573W        W81438  28.460   0.305  12.429
80574W        W81439  28.180   3.587  12.757
80575W        W81440  27.592   3.235  13.097
80576W        W81441  26.988   2.272  13.058
80577W        W81442  28.758   2.995  13.184
80578W        W81443  26.452   0.498  11.953
80579W        W81444  26.974   2.795  12.913
80580W        W81445  26.457   0.726  10.978
80581W        W81446  27.258   1.335  13.372
80582W        W81447  28.106   0.201  13.242
80583W        W81448  25.526   2.044  13.127
80584W        W81449  27.230   1.862  11.285
80585W        W81450  26.498   0.177  11.055
80586W        W81451  27.236   1.258  12.106
80587W        W81452  28.206   0.234  13.805
80588W        W81453  26.794   2.246  13.914
80589W        W81454  27.598   2.028  14.131
80590W        W81455  28.215   2.058  14.024
80591W        W81456  27.499   0.198  14.529
80592W        W81457  26.721   0.814  12.922
80593W        W81458  26.147   0.770  12.320
80594W        W81459  25.933   3.482  11.996
80595W        W81460  27.265   2.812  14.121
80596W        W81461  26.300   2.297  11.480
80597W        W81462  27.980   1.682  12.701
80598W        W81463  28.260   1.481  13.100
80599W        W81464  27.465   2.155  13.034
80600W        W81465  27.935   2.529  11.166
80601W        W81466  27.607   0.550  12.494
80602W        W81467  29.086   0.828  11.762
80603W        W81468  25.580   3.417  13.793
80604W        W81469  25.997   2.643  13.325
80605W        W81470  25.564   3.489  11.557
80606W        W81471  27.463   0.759  13.363
80607W        W81472  26.826   2.782  11.212
80608W        W81473  28.731   3.164  11.398
80609W        W81474  27.706   1.817  11.412
80610W        W81475  26.549   1.008  11.929
80611W        W81476  27.381   0.918  10.981
80612W        W81477  27.965   2.483  14.159
80613W        W81478  28.318   0.389  11.776
80614W        W81479  25.648   0.237  11.224
80615W        W81480  26.934   2.556  13.514
80616W        W81481  26.733   2.472  12.606
80617W        W81482  26.475   2.424  11.004
80618W        W81483  25.716   2.665  11.772
80619W        W81484  26.220   1.735  14.214
80620W        W81485  27.633   0.437  13.756
80621W        W81486  26.828   0.205  12.037
80622W        W81487  27.887   0.282  11.542
80623W        W81488  25.832   0.214  13.119
80624W        W81489  25.880   1.177  12.489
80625W        W81490  28.569   0.285  12.895
80626W        W81491  25.991   0.783  11.709
80627W        W81492  28.562   0.471  13.325
80628W        W81493  28.958   1.674  11.010
80629W        W81494  26.250   0.432  12.829
80630W        W81495  27.364   1.004  13.769
80631W        W81496  25.512   0.694  11.247
80632W        W81497  26.298   2.083  13.808
80633W        W81498  27.656   1.481  12.987
80634W        W81499  27.523   3.560  11.283
80635W        W81500  25.669   2.067  10.980
80636W        W81501  26.404   2.478  14.106
80637W        W81502  25.925   1.645  13.737
80638W        W81503  26.916   1.750  13.531
80639W        W81504  28.684   0.109  13.793
80640W        W81505  29.082   1.719  13.784
80641W        W81506  29.070   1.919  11.470
80642W        W81507  27.933   2.251  11.569
80643W        W81508  28.407   3.551  11.264
80644W        W81509  27.584   1.541  14.406
80645W        W81510  25.914   2.508  14.446
80646W        W81511  29.120   0.430  14.398
80647W        W81512  28.838   1.358  13.019
80648W        W81513  27.146   3.488  14.496
80649W        W81514  27.001   0.117  11.223
80650W        W81515  28.540   2.716  11.166
80651W        W81516  26.309   0.809  14.052
80652W        W81517  26.743   2.803  13.914
80653W        W81518  28.869   0.794  13.712
80654W        W81519  28.080   3.453  11.680
80655W        W81520  28.319   2.072  13.047
80656W        W81521  26.569   0.488  13.714
80657W        W81522  27.038   1.557  14.471
80658W        W81523  26.541   2.736  11.665
80659W        W81524  28.296   2.234  11.929
80660W        W81525  26.064   0.860  13.653
80661W        W81526  27.393   2.922  12.117
80662W        W81527  29.143   1.482  12.298
80663W        W81528  27.365   0.115  14.017
80664W        W81529  28.145   2.820  13.096
80665W        W81530  28.448   3.164  12.804
80666W        W81531  27.667   2.966  11.232
80667W        W81532  25.677   2.858  14.074
80668W        W81533  26.420   0.850  13.312
80669W        W81534  26.390   0.198  12.422
80670W        W81535  28.011   1.040  13.114
80671W        W81536  26.809   2.211  11.314
80672W        W81537  28.807   2.153  12.813
80673W        W81538  26.134   2.911  14.236
80674W        W81539  28.521   3.593  12.033
80675W        W81540  26.620   0.613  12.478
80676W        W81541  26.389   2.106  12.568
80677W        W81542  26.702   3.517  13.318
80678W        W81543  28.769   3.613  14.350
80679W        W81544  27.928   1.801  13.283
80680W        W81545  25.777   1.599  11.198
80681W        W81546  28.911   3.257  11.895
80682W        W81547  28.748   0.581  11.514
80683W        W81548  26.887   0.100  13.917
80684W        W81549  28.593   2.902  12.375
80685W        W81550  28.622   1.458  12.280
80686W        W81551  26.739   1.131  12.496
80687W        W81552  26.984   1.393  13.820
80688W        W81553  28.095   2.546  13.683
80689W        W81554  26.745   1.000  13.795
80690W        W81555  26.724   3.466  12.411
80691W        W81556  26.041   3.425  14.045
80692W        W81557  26.153   2.786  11.175
80693W        W81558  28.670   2.544  11.985
80694W        W81559  26.274   1.336  13.871
80695W        W81560  29.047   1.266  11.352
80696W        W81561  26.792   2.323  11.823
80697W        W81562  27.891   1.705  13.904
80698W        W81563  27.782   1.333  13.448
80699W        W81564  26.342   1.705  13.477
80700W        W81565  28.552   3.593  13.306
80701W        W81566  28.343   0.227  14.300
80702W        W81567  26.007   0.377  13.887
80703W        W81568  26.346   1.400  12.940
80704W        W81569  26.715   1.214  11.062
80705W        W81570  25.518   2.973  13.607
80706W        W81571  27.103   1.682  13.050
80707W        W81572  26.926   0.707  11.155
80708W        W81573  26.061   1.523  11.936
80709W        W81574  25.832   3.375  13.373
80710W        W81575  28.627   1.601  11.481
80711W        W81576  28.722   0.517  14.167
80712W        W81577  28.158   2.726  12.130
80713W        W81578  25.756   1.650  14.307
80714W        W81579  28.722   0.114  11.603
80715W        W81580  28.242   2.589  11.614
80716W        W81581  27.144   1.647  11.699
80717W        W81582  28.331   0.451  11.222
80718W        W81583  28.396   1.058  13.408
80719W        W81584  26.105   1.651  12.615
80720W        W81585  26.399   2.590  12.264
80721W        W81586  28.162   1.210  12.229
80722W        W81587  27.185   0.589  12.925
80723W        W81588  29.147   2.500  13.436
80724W        W81589  29.065   0.487  12.997
80725W        W81590  25.604   3.317  12.373
80726W        W81591  26.113   2.504  11.909
80727W        W81592  26.028   0.121  14.462
80728W        W81593  27.147   2.974  14.564
80729W        W81594  28.902   1.942  12.354
80730W        W81595  28.256   2.119  11.234
80731W        W81596  27.551   3.640  13.446
80732W        W81597  28.408   2.362  14.483
80733W        W81598  27.223   0.072  11.763
80734W        W81599  27.936   0.941  12.622
80735W        W81600  25.622   2.528  12.954
80736W        W81601  26.875   0.490  11.595
80737W        W81602  26.679   1.974  14.444
80738W        W81603  27.673   0.955  12.158
80739W        W81604  27.878   2.365  13.280
80740W        W81605  26.032   2.970  13.715
80741W        W81606  26.623   2.953  14.438
80742W        W81607  26.474   0.750  11.452
80743W        W81608  27.991   0.892  11.777
80744W        W81609  27.949   3.000  14.014
80745W        W81610  26.634   1.592  12.613
80746W        W81611  26.289   3.290  13.478
80747W        W81612  29.034   3.407  11.079
80748W        W81613  25.897   2.079  14.075
80749W        W81614  27.892   2.341  12.763
80750W        W81615  26.328   1.990  12.005
80751W        W81616  26.699   2.997  13.400
80752W        W81617  27.077   0.416  12.441
80753W        W81618  25.688   2.400  11.371
80754W        W81619  27.207   1.351  11.241
80755W        W81620  25.853   1.900  12.260
80756W        W81621  27.143   0.542  13.724
80757W        W81622  28.815   0.251  11.151
80758W        W81623  28.908   1.997  14.250
80759W        W81624  27.562   3.254  14.402
80760W        W81625  29.120   2.348  13.924
80761W        W81626  28.528   3.146  14.535
80762W        W81627  26.267   3.602  13.013
80763W        W81628  29.126   2.224  11.887
80764W        W81629  27.656   1.491  12.400
80765W        W81630  27.423   0.103  12.290
80766W        W81631  26.482   3.087  12.127
80767W        W81632  26.981   0.828  13.352
80768W        W81633  26.681   0.197  12.821
80769W        W81634  25.744   3.019  11.369
80770W        W81635  27.560   2.383  12.087
80771W        W81636  26.435   3.178  13.966
80772W        W81637  25.912   2.001  11.662
80773W        W81638  25.797   0.544  12.661
80774W        W81639  27.345   2.509  12.718
80775W        W81640  25.597   0.363  11.738
80776W        W81641  28.261   1.569  13.665
80777W        W81642  28.138   0.955  11.237
80778W        W81643  28.655   2.627  12.885
80779W        W81644  27.316   3.111  12.716
80780W        W81645  26.728   3.215  11.627
80781W        W81646  28.010   0.118  11.057
80782W        W81647  25.810   3.378  12.798
80783W        W81648  28.007   1.136  14.433
80784W        W81649  25.990   0.666  14.432
80785W        W81650  25.721   1.266  11.765
80786W        W81651  26.412   1.255  11.490
80787W        W81652  28.175   1.582  14.307
80788W        W81653  26.518   1.863  13.016
80789W        W81654  27.992   0.149  12.136
80790W        W81655  27.123   3.580  12.639
80791W        W81656  28.337   3.042  13.576
80792W        W81657  27.921   3.191  12.687
80793W        W81658  27.940   2.171  12.281
80794W        W81659  27.402   0.396  11.352
80795W        W81660  29.083   0.024  12.074
80796W        W81661  26.771   1.659  11.237
80797W        W81662  28.937   0.996  12.227
80798W        W81663  27.629   2.166  11.104
80799W        W81664  28.565   2.366  13.852
80800W        W81665  28.219   3.067  11.319
80801W        W81666  26.654   1.326  13.466
80802W        W81667  28.746   2.821  13.743
80803W        W81668  27.846   0.771  14.120
80804W        W81669  25.690   1.242  13.897
80805W        W81670  27.450   1.719  13.623
80806W        W81671  25.807   2.477  12.280
80807W        W81672  25.954   1.774  13.170
80808W        W81673  28.271   2.060  13.520
80809W        W81674  28.043   3.440  14.331
80810W        W81675  27.939   1.179  13.884
80811W        W81676  28.216   3.233  12.289
80812W        W81677  27.218   2.953  13.612
80813W        W81678  26.703   3.308  12.881
80814W        W81679  28.508   2.479  13.300
80815W        W81680  27.558   2.551  14.437
80816W        W81681  26.163   2.504  12.776
80817W        W81682  28.509   2.263  12.421
80818W        W81683  28.150   3.329  13.172
80819W        W81684  26.128   3.058  13.042
80820W        W81685  27.149   1.110  14.252
80821W        W81686  27.600   3.276  11.763
80822W        W81687  26.908   2.531  14.401
80823W        W81688  27.034   2.769  11.778
80824W        W81689  26.255   1.509  11.037
80825W        W81690  25.594   3.595  17.936
80826W        W81691  25.970   2.488  17.459
80827W        W81692  28.675   2.218  15.229
80828W        W81693  28.805   3.303  17.256
80829W        W81694  26.723   3.294  14.782
80830W        W81695  26.806   1.446  15.765
80831W        W81696  26.321   1.294  15.929
80832W        W81697  27.312   2.109  15.363
80833W        W81698  26.987   3.201  17.718
80834W        W81699  25.636   0.762  17.681
80835W        W81700  26.398   0.042  17.483
80836W        W81701  28.092   0.430  16.370
80837W        W81702  27.741   1.301  14.940
80838W        W81703  28.311   0.735  18.031
80839W        W81704  25.677   0.527  17.156
80840W        W81705  25.776   3.146  18.177
80841W        W81706  27.298   2.536  14.909
80842W        W81707  25.730   1.319  16.602
80843W        W81708  26.623   1.210  17.839
80844W        W81709  29.082   1.069  16.338
80845W        W81710  28.846   2.112  17.197
80846W        W81711  27.154   1.445  16.224
80847W        W81712  27.700   2.784  16.593
80848W        W81713  26.200   2.218  16.825
80849W        W81714  25.559   1.746  16.396
80850W        W81715  26.595   1.718  17.588
80851W        W81716  28.866   1.501  17.842
80852W        W81717  26.482   2.945  16.287
80853W        W81718  27.603   2.634  17.421
80854W        W81719  26.823   1.274  16.646
80855W        W81720  27.115   2.058  16.289
80856W        W81721  28.112   2.831  18.137
80857W        W81722  27.191   2.151  18.147
80858W        W81723  27.172   1.867  17.625
80859W        W81724  25.581   1.258  18.147
80860W        W81725  28.413   2.793  17.746
80861W        W81726  25.994   0.375  15.744
80862W        W81727  26.521   2.633  16.743
80863W        W81728  28.984   2.416  16.033
80864W        W81729  28.397   0.816  16.600
80865W        W81730  28.682   0.769  14.695
80866W        W81731  29.147   1.570  17.001
80867W        W81732  27.114   3.277  16.754
80868W        W81733  28.888   2.743  15.192
80869W        W81734  26.017   3.529  14.946
80870W        W81735  26.410   3.575  15.622
80871W        W81736  26.207   0.329  17.048
80872W        W81737  28.830   1.347  17.323
80873W        W81738  28.235   1.769  15.782
80874W        W81739  28.201   1.457  14.809
80875W        W81740  27.409   2.601  16.949
80876W        W81741  27.215   0.931  16.148
80877W        W81742  27.815   3.018  17.142
80878W        W81743  28.686   1.809  15.564
80879W        W81744  27.588   0.467  15.580
80880W        W81745  26.245   3.161  15.263
80881W        W81746  25.616   0.660  15.862
80882W        W81747  28.402   1.267  16.336
80883W        W81748  25.860   2.884  16.251
80884W        W81749  27.201   3.234  15.121
80885W        W81750  28.593   1.260  14.585
80886W        W81751  25.616   3.018  16.749
80887W        W81752  26.407   2.590  17.229
80888W        W81753  26.780   1.950  15.848
80889W        W81754  26.802   0.355  16.941
80890W        W81755  29.031   0.117  16.238
80891W        W81756  26.250   1.989  14.706
80892W        W81757  25.905   1.022  14.885
80893W        W81758  25.967   2.978  15.679
80894W        W81759  27.098   2.461  15.927
80895W        W81760  28.430   3.320  17.641
80896W        W81761  27.356   0.962  15.325
80897W        W81762  28.739   3.360  16.097
80898W        W81763  28.416   1.213  17.695
80899W        W81764  29.129   2.869  15.829
80900W        W81765  27.756   2.161  17.313
80901W        W81766  25.522   1.712  15.519
80902W        W81767  26.633   2.127  17.092
80903W        W81768  27.837   1.391  15.470
80904W        W81769  27.714   1.881  15.574
80905W        W81770  26.057   1.301  17.048
80906W        W81771  26.042   1.177  17.970
80907W        W81772  25.932   0.094  16.129
80908W        W81773  27.700   0.441  16.690
80909W        W81774  27.348   0.626  17.853
80910W        W81775  27.703   0.775  15.031
80911W        W81776  28.886   3.168  17.785
80912W        W81777  27.853   0.249  17.824
80913W        W81778  28.872   2.550  17.946
80914W        W81779  28.302   0.717  17.542
80915W        W81780  28.102   0.655  15.812
80916W        W81781  28.495   1.789  18.216
80917W        W81782  26.235   3.365  16.202
80918W        W81783  26.893   1.082  15.188
80919W        W81784  26.462   0.366  17.852
80920W        W81785  28.514   0.850  15.533
80921W        W81786  28.881   1.332  15.478
80922W        W81787  26.624   3.549  17.949
80923W        W81788  26.550   0.085  15.184
80924W        W81789  28.871   0.619  16.219
80925W        W81790  29.021   2.868  14.664
80926W        W81791  25.928   2.071  16.366
80927W        W81792  27.845   0.658  14.596
80928W        W81793  28.979   2.990  16.316
80929W        W81794  29.018   0.184  17.066
80930W        W81795  27.463   1.396  17.620
80931W        W81796  27.556   2.735  15.323
80932W        W81797  27.956   2.029  18.063
80933W        W81798  27.630   0.006  16.372
80934W        W81799  26.242   0.909  16.435
80935W        W81800  25.796   2.109  17.209
80936W        W81801  27.655   3.302  15.915
80937W        W81802  28.849   0.899  16.787
80938W        W81803  27.486   3.246  17.554
80939W        W81804  28.829   2.305  14.759
80940W        W81805  27.264   1.788  15.820
80941W        W81806  29.116   0.299  17.561
80942W        W81807  27.265   2.134  17.155
80943W        W81808  27.482   1.020  16.600
80944W        W81809  28.334   1.318  15.438
80945W        W81810  28.621   1.051  15.080
80946W        W81811  28.430   3.091  15.469
80947W        W81812  28.264   2.694  16.265
80948W        W81813  28.160   1.773  15.243
80949W        W81814  27.593   1.983  16.229
80950W        W81815  28.474   1.771  16.296
80951W        W81816  25.849   0.786  16.720
80952W        W81817  28.627   1.838  17.547
80953W        W81818  28.978   3.456  16.693
80954W        W81819  26.908   2.900  16.095
80955W        W81820  27.915   3.433  17.419
80956W        W81821  27.909   0.763  17.183
80957W        W81822  27.116   3.471  17.244
80958W        W81823  28.813   0.425  15.710
80959W        W81824  28.604   1.744  17.011
80960W        W81825  25.587   1.065  17.049
80961W        W81826  28.447   0.860  16.067
80962W        W81827  28.858   1.011  17.844
80963W        W81828  27.743   2.710  16.062
80964W        W81829  26.999   3.301  15.675
80965W        W81830  26.114   0.481  14.933
80966W        W81831  27.218   0.135  16.743
80967W        W81832  26.246   3.255  14.591
80968W        W81833  26.620   1.721  15.342
80969W        W81834  27.274   2.350  17.655
80970W        W81835  27.104   0.708  15.645
80971W        W81836  28.460   0.305  16.073
80972W        W81837  28.180   3.587  16.401
80973W        W81838  27.592   3.235  16.741
80974W        W81839  26.988   2.272  16.702
80975W        W81840  28.758   2.995  16.828
80976W        W81841  26.452   0.498  15.597
80977W        W81842  26.974   2.795  16.557
80978W        W81843  26.457   0.726  14.622
80979W        W81844  27.258   1.335  17.016
80980W        W81845  28.106   0.201  16.886
80981W        W81846  25.526   2.044  16.771
80982W        W81847  27.230   1.862  14.929
80983W        W81848  26.498   0.177  14.699
80984W        W81849  27.236   1.258  15.750
80985W        W81850  28.206   0.234  17.449
80986W        W81851  26.794   2.246  17.558
80987W        W81852  27.598   2.028  17.775
80988W        W81853  28.215   2.058  17.668
80989W        W81854  27.499   0.198  18.173
80990W        W81855  26.721   0.814  16.566
80991W        W81856  26.147   0.770  15.964
80992W        W81857  25.933   3.482  15.640
80993W        W81858  27.265   2.812  17.765
80994W        W81859  26.300   2.297  15.124
80995W        W81860  27.980   1.682  16.345
80996W        W81861  28.260   1.481  16.744
80997W        W81862  27.465   2.155  16.678
80998W        W81863  27.935   2.529  14.810
80999W        W81864  27.607   0.550  16.138
81000W        W81865  29.086   0.828  15.406
81001W        W81866  25.580   3.417  17.437
81002W        W81867  25.997   2.643  16.969
81003W        W81868  25.564   3.489  15.201
81004W        W81869  27.463   0.759  17.007
81005W        W81870  26.826   2.782  14.856
81006W        W81871  28.731   3.164  15.042
81007W        W81872  27.706   1.817  15.056
81008W        W81873  26.549   1.008  15.573
81009W        W81874  27.381   0.918  14.625
81010W        W81875  27.965   2.483  17.803
81011W        W81876  28.318   0.389  15.420
81012W        W81877  25.648   0.237  14.868
81013W        W81878  26.934   2.556  17.158
81014W        W81879  26.733   2.472  16.250
81015W        W81880  26.475   2.424  14.648
81016W        W81881  25.716   2.665  15.416
81017W        W81882  26.220   1.735  17.858
81018W        W81883  26.924   0.295  18.044
81019W        W81884  27.633   0.437  17.400
81020W        W81885  26.828   0.205  15.681
81021W        W81886  25.832   0.214  16.763
81022W        W81887  25.880   1.177  16.133
81023W        W81888  28.569   0.285  16.539
81024W        W81889  25.991   0.783  15.353
81025W        W81890  28.562   0.471  16.969
81026W        W81891  28.958   1.674  14.654
81027W        W81892  26.250   0.432  16.473
81028W        W81893  27.364   1.004  17.413
81029W        W81894  25.512   0.694  14.891
81030W        W81895  26.298   2.083  17.452
81031W        W81896  27.656   1.481  16.631
81032W        W81897  27.523   3.560  14.927
81033W        W81898  25.669   2.067  14.624
81034W        W81899  26.404   2.478  17.750
81035W        W81900  25.925   1.645  17.381
81036W        W81901  26.916   1.750  17.175
81037W        W81902  28.684   0.109  17.437
81038W        W81903  29.082   1.719  17.428
81039W        W81904  29.070   1.919  15.114
81040W        W81905  27.933   2.251  15.213
81041W        W81906  28.407   3.551  14.908
81042W        W81907  27.584   1.541  18.050
81043W        W81908  25.914   2.508  18.090
81044W        W81909  29.120   0.430  18.042
81045W        W81910  28.838   1.358  16.663
81046W        W81911  27.146   3.488  18.140
81047W        W81912  27.001   0.117  14.867
81048W        W81913  28.540   2.716  14.810
81049W        W81914  26.309   0.809  17.696
81050W        W81915  26.743   2.803  17.558
81051W        W81916  28.869   0.794  17.356
81052W        W81917  28.080   3.453  15.324
81053W        W81918  28.319   2.072  16.691
81054W        W81919  26.569   0.488  17.358
81055W        W81920  27.038   1.557  18.115
81056W        W81921  26.541   2.736  15.309
81057W        W81922  28.296   2.234  15.573
81058W        W81923  26.064   0.860  17.297
81059W        W81924  27.393   2.922  15.761
81060W        W81925  29.143   1.482  15.942
81061W        W81926  27.365   0.115  17.661
81062W        W81927  28.145   2.820  16.740
81063W        W81928  28.448   3.164  16.448
81064W        W81929  27.667   2.966  14.876
81065W        W81930  25.677   2.858  17.718
81066W        W81931  26.420   0.850  16.956
81067W        W81932  26.390   0.198  16.066
81068W        W81933  28.011   1.040  16.758
81069W        W81934  26.809   2.211  14.958
81070W        W81935  28.807   2.153  16.457
81071W        W81936  26.134   2.911  17.880
81072W        W81937  28.521   3.593  15.677
81073W        W81938  26.620   0.613  16.122
81074W        W81939  26.389   2.106  16.212
81075W        W81940  26.702   3.517  16.962
81076W        W81941  28.769   3.613  17.994
81077W        W81942  27.928   1.801  16.927
81078W        W81943  25.777   1.599  14.842
81079W        W81944  28.911   3.257  15.539
81080W        W81945  28.748   0.581  15.158
81081W        W81946  26.887   0.100  17.561
81082W        W81947  28.593   2.902  16.019
81083W        W81948  28.622   1.458  15.924
81084W        W81949  26.739   1.131  16.140
81085W        W81950  26.984   1.393  17.464
81086W        W81951  28.095   2.546  17.327
81087W        W81952  26.745   1.000  17.439
81088W        W81953  26.724   3.466  16.055
81089W        W81954  26.041   3.425  17.689
81090W        W81955  26.153   2.786  14.819
81091W        W81956  28.670   2.544  15.629
81092W        W81957  26.274   1.336  17.515
81093W        W81958  29.047   1.266  14.996
81094W        W81959  26.792   2.323  15.467
81095W        W81960  27.891   1.705  17.548
81096W        W81961  27.782   1.333  17.092
81097W        W81962  26.342   1.705  17.121
81098W        W81963  28.552   3.593  16.950
81099W        W81964  28.343   0.227  17.944
81100W        W81965  26.007   0.377  17.531
81101W        W81966  26.346   1.400  16.584
81102W        W81967  26.715   1.214  14.706
81103W        W81968  25.518   2.973  17.251
81104W        W81969  27.103   1.682  16.694
81105W        W81970  26.926   0.707  14.799
81106W        W81971  26.061   1.523  15.580
81107W        W81972  25.832   3.375  17.017
81108W        W81973  28.627   1.601  15.125
81109W        W81974  28.722   0.517  17.811
81110W        W81975  28.158   2.726  15.774
81111W        W81976  25.756   1.650  17.951
81112W        W81977  28.722   0.114  15.247
81113W        W81978  28.242   2.589  15.258
81114W        W81979  27.144   1.647  15.343
81115W        W81980  28.331   0.451  14.866
81116W        W81981  28.396   1.058  17.052
81117W        W81982  26.105   1.651  16.259
81118W        W81983  26.399   2.590  15.908
81119W        W81984  28.162   1.210  15.873
81120W        W81985  27.185   0.589  16.569
81121W        W81986  29.147   2.500  17.080
81122W        W81987  29.065   0.487  16.641
81123W        W81988  25.604   3.317  16.017
81124W        W81989  26.113   2.504  15.553
81125W        W81990  26.028   0.121  18.106
81126W        W81991  27.147   2.974  18.208
81127W        W81992  28.902   1.942  15.998
81128W        W81993  28.256   2.119  14.878
81129W        W81994  27.551   3.640  17.090
81130W        W81995  28.408   2.362  18.127
81131W        W81996  27.223   0.072  15.407
81132W        W81997  27.936   0.941  16.266
81133W        W81998  25.622   2.528  16.598
81134W        W81999  26.875   0.490  15.239
81135W        W82000  26.679   1.974  18.088
81136W        W82001  27.673   0.955  15.802
81137W        W82002  27.878   2.365  16.924
81138W        W82003  26.032   2.970  17.359
81139W        W82004  26.623   2.953  18.082
81140W        W82005  26.474   0.750  15.096
81141W        W82006  27.991   0.892  15.421
81142W        W82007  27.949   3.000  17.658
81143W        W82008  26.634   1.592  16.257
81144W        W82009  26.289   3.290  17.122
81145W        W82010  29.034   3.407  14.723
81146W        W82011  25.897   2.079  17.719
81147W        W82012  27.892   2.341  16.407
81148W        W82013  26.328   1.990  15.649
81149W        W82014  26.699   2.997  17.044
81150W        W82015  27.077   0.416  16.085
81151W        W82016  25.688   2.400  15.015
81152W        W82017  27.207   1.351  14.885
81153W        W82018  25.853   1.900  15.904
81154W        W82019  27.143   0.542  17.368
81155W        W82020  28.815   0.251  14.795
81156W        W82021  28.908   1.997  17.894
81157W        W82022  27.562   3.254  18.046
81158W        W82023  29.120   2.348  17.568
81159W        W82024  28.528   3.146  18.179
81160W        W82025  26.267   3.602  16.657
81161W        W82026  29.126   2.224  15.531
81162W        W82027  27.656   1.491  16.044
81163W        W82028  27.423   0.103  15.934
81164W        W82029  26.482   3.087  15.771
81165W        W82030  26.981   0.828  16.996
81166W        W82031  26.681   0.197  16.465
81167W        W82032  25.744   3.019  15.013
81168W        W82033  27.560   2.383  15.731
81169W        W82034  26.435   3.178  17.610
81170W        W82035  25.912   2.001  15.306
81171W        W82036  25.797   0.544  16.305
81172W        W82037  27.345   2.509  16.362
81173W        W82038  25.597   0.363  15.382
81174W        W82039  28.261   1.569  17.309
81175W        W82040  28.138   0.955  14.881
81176W        W82041  28.655   2.627  16.529
81177W        W82042  27.316   3.111  16.360
81178W        W82043  26.728   3.215  15.271
81179W        W82044  28.010   0.118  14.701
81180W        W82045  25.810   3.378  16.442
81181W        W82046  28.007   1.136  18.077
81182W        W82047  25.990   0.666  18.076
81183W        W82048  25.721   1.266  15.409
81184W        W82049  26.412   1.255  15.134
81185W        W82050  28.175   1.582  17.951
81186W        W82051  26.518   1.863  16.660
81187W        W82052  27.992   0.149  15.780
81188W        W82053  27.123   3.580  16.283
81189W        W82054  28.337   3.042  17.220
81190W        W82055  27.921   3.191  16.331
81191W        W82056  27.940   2.171  15.925
81192W        W82057  27.402   0.396  14.996
81193W        W82058  29.083   0.024  15.718
81194W        W82059  26.771   1.659  14.881
81195W        W82060  28.937   0.996  15.871
81196W        W82061  27.629   2.166  14.748
81197W        W82062  28.565   2.366  17.496
81198W        W82063  28.219   3.067  14.963
81199W        W82064  26.834   0.742  17.869
81200W        W82065  26.654   1.326  17.110
81201W        W82066  28.746   2.821  17.387
81202W        W82067  27.846   0.771  17.764
81203W        W82068  25.690   1.242  17.541
81204W        W82069  27.450   1.719  17.267
81205W        W82070  25.807   2.477  15.924
81206W        W82071  25.954   1.774  16.814
81207W        W82072  28.271   2.060  17.164
81208W        W82073  28.043   3.440  17.975
81209W        W82074  27.939   1.179  17.528
81210W        W82075  28.216   3.233  15.933
81211W        W82076  27.218   2.953  17.256
81212W        W82077  26.703   3.308  16.525
81213W        W82078  28.508   2.479  16.944
81214W        W82079  27.558   2.551  18.081
81215W        W82080  26.163   2.504  16.420
81216W        W82081  28.509   2.263  16.065
81217W        W82082  28.150   3.329  16.816
81218W        W82083  26.128   3.058  16.686
81219W        W82084  27.149   1.110  17.896
81220W        W82085  27.600   3.276  15.407
81221W        W82086  26.908   2.531  18.045
81222W        W82087  27.034   2.769  15.422
81223W        W82088  26.255   1.509  14.681
81224W        W82089  25.594   3.595  21.580
81225W        W82090  25.970   2.488  21.103
81226W        W82091  28.675   2.218  18.873
81227W        W82092  28.805   3.303  20.900
81228W        W82093  26.723   3.294  18.426
81229W        W82094  26.806   1.446  19.409
81230W        W82095  26.321   1.294  19.573
81231W        W82096  27.312   2.109  19.007
81232W        W82097  26.987   3.201  21.362
81233W        W82098  25.636   0.762  21.325
81234W        W82099  26.398   0.042  21.127
81235W        W82100  28.092   0.430  20.014
81236W        W82101  27.741   1.301  18.584
81237W        W82102  28.311   0.735  21.675
81238W        W82103  25.677   0.527  20.800
81239W        W82104  25.776   3.146  21.821
81240W        W82105  27.298   2.536  18.553
81241W        W82106  25.730   1.319  20.246
81242W        W82107  26.623   1.210  21.483
81243W        W82108  29.082   1.069  19.982
81244W        W82109  28.846   2.112  20.841
81245W        W82110  27.154   1.445  19.868
81246W        W82111  27.700   2.784  20.237
81247W        W82112  26.200   2.218  20.469
81248W        W82113  25.559   1.746  20.040
81249W        W82114  26.595   1.718  21.232
81250W        W82115  28.866   1.501  21.486
81251W        W82116  26.482   2.945  19.931
81252W        W82117  27.603   2.634  21.065
81253W        W82118  26.823   1.274  20.290
81254W        W82119  27.115   2.058  19.933
81255W        W82120  28.112   2.831  21.781
81256W        W82121  27.191   2.151  21.791
81257W        W82122  27.172   1.867  21.269
81258W        W82123  25.581   1.258  21.791
81259W        W82124  28.413   2.793  21.390
81260W        W82125  25.994   0.375  19.388
81261W        W82126  26.521   2.633  20.387
81262W        W82127  28.984   2.416  19.677
81263W        W82128  28.397   0.816  20.244
81264W        W82129  28.682   0.769  18.339
81265W        W82130  29.147   1.570  20.645
81266W        W82131  27.114   3.277  20.398
81267W        W82132  28.888   2.743  18.836
81268W        W82133  26.017   3.529  18.590
81269W        W82134  26.410   3.575  19.266
81270W        W82135  26.207   0.329  20.692
81271W        W82136  28.830   1.347  20.967
81272W        W82137  28.235   1.769  19.426
81273W        W82138  28.201   1.457  18.453
81274W        W82139  27.409   2.601  20.593
81275W        W82140  27.215   0.931  19.792
81276W        W82141  27.815   3.018  20.786
81277W        W82142  28.686   1.809  19.208
81278W        W82143  27.588   0.467  19.224
81279W        W82144  26.245   3.161  18.907
81280W        W82145  25.616   0.660  19.506
81281W        W82146  28.402   1.267  19.980
81282W        W82147  25.860   2.884  19.895
81283W        W82148  27.201   3.234  18.765
81284W        W82149  28.593   1.260  18.229
81285W        W82150  25.616   3.018  20.393
81286W        W82151  26.407   2.590  20.873
81287W        W82152  26.780   1.950  19.492
81288W        W82153  26.802   0.355  20.585
81289W        W82154  29.031   0.117  19.882
81290W        W82155  26.250   1.989  18.350
81291W        W82156  25.905   1.022  18.529
81292W        W82157  25.967   2.978  19.323
81293W        W82158  27.098   2.461  19.571
81294W        W82159  28.430   3.320  21.285
81295W        W82160  27.356   0.962  18.969
81296W        W82161  28.739   3.360  19.741
81297W        W82162  28.416   1.213  21.339
81298W        W82163  29.129   2.869  19.473
81299W        W82164  27.756   2.161  20.957
81300W        W82165  25.522   1.712  19.163
81301W        W82166  26.633   2.127  20.736
81302W        W82167  27.837   1.391  19.114
81303W        W82168  27.714   1.881  19.218
81304W        W82169  26.057   1.301  20.692
81305W        W82170  26.042   1.177  21.614
81306W        W82171  25.932   0.094  19.773
81307W        W82172  27.700   0.441  20.334
81308W        W82173  27.348   0.626  21.497
81309W        W82174  27.703   0.775  18.675
81310W        W82175  28.886   3.168  21.429
81311W        W82176  27.853   0.249  21.468
81312W        W82177  28.872   2.550  21.590
81313W        W82178  28.302   0.717  21.186
81314W        W82179  28.102   0.655  19.456
81315W        W82180  28.495   1.789  21.860
81316W        W82181  26.235   3.365  19.846
81317W        W82182  26.893   1.082  18.832
81318W        W82183  26.462   0.366  21.496
81319W        W82184  28.514   0.850  19.177
81320W        W82185  28.881   1.332  19.122
81321W        W82186  26.624   3.549  21.593
81322W        W82187  26.550   0.085  18.828
81323W        W82188  28.871   0.619  19.863
81324W        W82189  29.021   2.868  18.308
81325W        W82190  25.928   2.071  20.010
81326W        W82191  27.845   0.658  18.240
81327W        W82192  28.979   2.990  19.960
81328W        W82193  29.018   0.184  20.710
81329W        W82194  27.463   1.396  21.264
81330W        W82195  27.556   2.735  18.967
81331W        W82196  27.956   2.029  21.707
81332W        W82197  27.630   0.006  20.016
81333W        W82198  26.242   0.909  20.079
81334W        W82199  25.796   2.109  20.853
81335W        W82200  27.655   3.302  19.559
81336W        W82201  28.849   0.899  20.431
81337W        W82202  27.486   3.246  21.198
81338W        W82203  28.829   2.305  18.403
81339W        W82204  27.264   1.788  19.464
81340W        W82205  29.116   0.299  21.205
81341W        W82206  27.265   2.134  20.799
81342W        W82207  27.482   1.020  20.244
81343W        W82208  28.334   1.318  19.082
81344W        W82209  28.621   1.051  18.724
81345W        W82210  28.430   3.091  19.113
81346W        W82211  28.264   2.694  19.909
81347W        W82212  28.160   1.773  18.887
81348W        W82213  27.593   1.983  19.873
81349W        W82214  28.474   1.771  19.940
81350W        W82215  25.849   0.786  20.364
81351W        W82216  28.627   1.838  21.191
81352W        W82217  28.978   3.456  20.337
81353W        W82218  26.908   2.900  19.739
81354W        W82219  27.915   3.433  21.063
81355W        W82220  27.909   0.763  20.827
81356W        W82221  27.116   3.471  20.888
81357W        W82222  28.813   0.425  19.354
81358W        W82223  28.604   1.744  20.655
81359W        W82224  25.587   1.065  20.693
81360W        W82225  28.447   0.860  19.711
81361W        W82226  28.858   1.011  21.488
81362W        W82227  27.743   2.710  19.706
81363W        W82228  26.999   3.301  19.319
81364W        W82229  26.114   0.481  18.577
81365W        W82230  27.218   0.135  20.387
81366W        W82231  26.246   3.255  18.235
81367W        W82232  26.620   1.721  18.986
81368W        W82233  27.274   2.350  21.299
81369W        W82234  27.104   0.708  19.289
81370W        W82235  28.460   0.305  19.717
81371W        W82236  28.180   3.587  20.045
81372W        W82237  27.592   3.235  20.385
81373W        W82238  26.988   2.272  20.346
81374W        W82239  28.758   2.995  20.472
81375W        W82240  26.452   0.498  19.241
81376W        W82241  26.974   2.795  20.201
81377W        W82242  26.457   0.726  18.266
81378W        W82243  27.258   1.335  20.660
81379W        W82244  28.106   0.201  20.530
81380W        W82245  25.526   2.044  20.415
81381W        W82246  27.230   1.862  18.573
81382W        W82247  26.498   0.177  18.343
81383W        W82248  27.236   1.258  19.394
81384W        W82249  28.206   0.234  21.093
81385W        W82250  26.794   2.246  21.202
81386W        W82251  27.598   2.028  21.419
81387W        W82252  28.215   2.058  21.312
81388W        W82253  27.499   0.198  21.817
81389W        W82254  26.721   0.814  20.210
81390W        W82255  26.147   0.770  19.608
81391W        W82256  25.933   3.482  19.284
81392W        W82257  27.265   2.812  21.409
81393W        W82258  26.300   2.297  18.768
81394W        W82259  27.980   1.682  19.989
81395W        W82260  28.260   1.481  20.388
81396W        W82261  27.465   2.155  20.322
81397W        W82262  27.935   2.529  18.454
81398W        W82263  27.607   0.550  19.782
81399W        W82264  29.086   0.828  19.050
81400W        W82265  25.580   3.417  21.081
81401W        W82266  25.997   2.643  20.613
81402W        W82267  25.564   3.489  18.845
81403W        W82268  27.463   0.759  20.651
81404W        W82269  26.826   2.782  18.500
81405W        W82270  28.731   3.164  18.686
81406W        W82271  27.706   1.817  18.700
81407W        W82272  26.549   1.008  19.217
81408W        W82273  27.381   0.918  18.269
81409W        W82274  27.965   2.483  21.447
81410W        W82275  28.318   0.389  19.064
81411W        W82276  25.648   0.237  18.512
81412W        W82277  26.934   2.556  20.802
81413W        W82278  26.733   2.472  19.894
81414W        W82279  26.475   2.424  18.292
81415W        W82280  25.716   2.665  19.060
81416W        W82281  26.220   1.735  21.502
81417W        W82282  26.924   0.295  21.688
81418W        W82283  27.633   0.437  21.044
81419W        W82284  26.828   0.205  19.325
81420W        W82285  27.887   0.282  18.830
81421W        W82286  25.832   0.214  20.407
81422W        W82287  25.880   1.177  19.777
81423W        W82288  28.569   0.285  20.183
81424W        W82289  25.991   0.783  18.997
81425W        W82290  28.562   0.471  20.613
81426W        W82291  28.958   1.674  18.298
81427W        W82292  26.250   0.432  20.117
81428W        W82293  27.364   1.004  21.057
81429W        W82294  25.512   0.694  18.535
81430W        W82295  26.298   2.083  21.096
81431W        W82296  27.656   1.481  20.275
81432W        W82297  27.523   3.560  18.571
81433W        W82298  25.669   2.067  18.268
81434W        W82299  26.404   2.478  21.394
81435W        W82300  25.925   1.645  21.025
81436W        W82301  26.916   1.750  20.819
81437W        W82302  28.684   0.109  21.081
81438W        W82303  29.082   1.719  21.072
81439W        W82304  29.070   1.919  18.758
81440W        W82305  27.933   2.251  18.857
81441W        W82306  28.407   3.551  18.552
81442W        W82307  27.584   1.541  21.694
81443W        W82308  25.914   2.508  21.734
81444W        W82309  29.120   0.430  21.686
81445W        W82310  28.838   1.358  20.307
81446W        W82311  27.146   3.488  21.784
81447W        W82312  27.001   0.117  18.511
81448W        W82313  28.540   2.716  18.454
81449W        W82314  26.309   0.809  21.340
81450W        W82315  26.743   2.803  21.202
81451W        W82316  28.869   0.794  21.000
81452W        W82317  28.080   3.453  18.968
81453W        W82318  28.319   2.072  20.335
81454W        W82319  26.569   0.488  21.002
81455W        W82320  27.038   1.557  21.759
81456W        W82321  26.541   2.736  18.953
81457W        W82322  28.296   2.234  19.217
81458W        W82323  26.064   0.860  20.941
81459W        W82324  27.393   2.922  19.405
81460W        W82325  29.143   1.482  19.586
81461W        W82326  27.365   0.115  21.305
81462W        W82327  28.145   2.820  20.384
81463W        W82328  28.448   3.164  20.092
81464W        W82329  27.667   2.966  18.520
81465W        W82330  25.677   2.858  21.362
81466W        W82331  26.420   0.850  20.600
81467W        W82332  26.390   0.198  19.710
81468W        W82333  28.011   1.040  20.402
81469W        W82334  26.809   2.211  18.602
81470W        W82335  28.807   2.153  20.101
81471W        W82336  26.134   2.911  21.524
81472W        W82337  28.521   3.593  19.321
81473W        W82338  26.620   0.613  19.766
81474W        W82339  26.389   2.106  19.856
81475W        W82340  26.702   3.517  20.606
81476W        W82341  28.769   3.613  21.638
81477W        W82342  27.928   1.801  20.571
81478W        W82343  25.777   1.599  18.486
81479W        W82344  28.911   3.257  19.183
81480W        W82345  28.748   0.581  18.802
81481W        W82346  26.887   0.100  21.205
81482W        W82347  28.593   2.902  19.663
81483W        W82348  28.622   1.458  19.568
81484W        W82349  26.739   1.131  19.784
81485W        W82350  26.984   1.393  21.108
81486W        W82351  28.095   2.546  20.971
81487W        W82352  26.745   1.000  21.083
81488W        W82353  26.724   3.466  19.699
81489W        W82354  26.041   3.425  21.333
81490W        W82355  26.153   2.786  18.463
81491W        W82356  28.670   2.544  19.273
81492W        W82357  26.274   1.336  21.159
81493W        W82358  29.047   1.266  18.640
81494W        W82359  26.792   2.323  19.111
81495W        W82360  27.891   1.705  21.192
81496W        W82361  27.782   1.333  20.736
81497W        W82362  26.342   1.705  20.765
81498W        W82363  28.552   3.593  20.594
81499W        W82364  28.343   0.227  21.588
81500W        W82365  26.007   0.377  21.175
81501W        W82366  26.346   1.400  20.228
81502W        W82367  26.715   1.214  18.350
81503W        W82368  25.518   2.973  20.895
81504W        W82369  27.103   1.682  20.338
81505W        W82370  26.926   0.707  18.443
81506W        W82371  26.061   1.523  19.224
81507W        W82372  25.832   3.375  20.661
81508W        W82373  28.627   1.601  18.769
81509W        W82374  28.722   0.517  21.455
81510W        W82375  28.158   2.726  19.418
81511W        W82376  25.756   1.650  21.595
81512W        W82377  28.722   0.114  18.891
81513W        W82378  28.242   2.589  18.902
81514W        W82379  27.144   1.647  18.987
81515W        W82380  28.331   0.451  18.510
81516W        W82381  28.396   1.058  20.696
81517W        W82382  26.105   1.651  19.903
81518W        W82383  26.399   2.590  19.552
81519W        W82384  28.162   1.210  19.517
81520W        W82385  27.185   0.589  20.213
81521W        W82386  29.147   2.500  20.724
81522W        W82387  29.065   0.487  20.285
81523W        W82388  25.604   3.317  19.661
81524W        W82389  26.113   2.504  19.197
81525W        W82390  26.028   0.121  21.750
81526W        W82391  27.147   2.974  21.852
81527W        W82392  28.902   1.942  19.642
81528W        W82393  28.256   2.119  18.522
81529W        W82394  27.551   3.640  20.734
81530W        W82395  28.408   2.362  21.771
81531W        W82396  27.223   0.072  19.051
81532W        W82397  27.936   0.941  19.910
81533W        W82398  25.622   2.528  20.242
81534W        W82399  26.875   0.490  18.883
81535W        W82400  26.679   1.974  21.732
81536W        W82401  27.673   0.955  19.446
81537W        W82402  27.878   2.365  20.568
81538W        W82403  26.032   2.970  21.003
81539W        W82404  26.623   2.953  21.726
81540W        W82405  26.474   0.750  18.740
81541W        W82406  27.991   0.892  19.065
81542W        W82407  27.949   3.000  21.302
81543W        W82408  26.634   1.592  19.901
81544W        W82409  26.289   3.290  20.766
81545W        W82410  29.034   3.407  18.367
81546W        W82411  25.897   2.079  21.363
81547W        W82412  27.892   2.341  20.051
81548W        W82413  26.328   1.990  19.293
81549W        W82414  26.699   2.997  20.688
81550W        W82415  27.077   0.416  19.729
81551W        W82416  25.688   2.400  18.659
81552W        W82417  27.207   1.351  18.529
81553W        W82418  25.853   1.900  19.548
81554W        W82419  27.143   0.542  21.012
81555W        W82420  28.815   0.251  18.439
81556W        W82421  28.908   1.997  21.538
81557W        W82422  27.562   3.254  21.690
81558W        W82423  29.120   2.348  21.212
81559W        W82424  28.528   3.146  21.823
81560W        W82425  26.267   3.602  20.301
81561W        W82426  29.126   2.224  19.175
81562W        W82427  27.656   1.491  19.688
81563W        W82428  27.423   0.103  19.578
81564W        W82429  26.482   3.087  19.415
81565W        W82430  26.981   0.828  20.640
81566W        W82431  26.681   0.197  20.109
81567W        W82432  25.744   3.019  18.657
81568W        W82433  27.560   2.383  19.375
81569W        W82434  26.435   3.178  21.254
81570W        W82435  25.912   2.001  18.950
81571W        W82436  25.797   0.544  19.949
81572W        W82437  27.345   2.509  20.006
81573W        W82438  25.597   0.363  19.026
81574W        W82439  28.261   1.569  20.953
81575W        W82440  28.138   0.955  18.525
81576W        W82441  28.655   2.627  20.173
81577W        W82442  27.316   3.111  20.004
81578W        W82443  26.728   3.215  18.915
81579W        W82444  28.010   0.118  18.345
81580W        W82445  25.810   3.378  20.086
81581W        W82446  28.007   1.136  21.721
81582W        W82447  25.990   0.666  21.720
81583W        W82448  25.721   1.266  19.053
81584W        W82449  26.412   1.255  18.778
81585W        W82450  28.175   1.582  21.595
81586W        W82451  26.518   1.863  20.304
81587W        W82452  27.992   0.149  19.424
81588W        W82453  27.123   3.580  19.927
81589W        W82454  28.337   3.042  20.864
81590W        W82455  27.921   3.191  19.975
81591W        W82456  27.940   2.171  19.569
81592W        W82457  27.402   0.396  18.640
81593W        W82458  29.083   0.024  19.362
81594W        W82459  26.771   1.659  18.525
81595W        W82460  28.937   0.996  19.515
81596W        W82461  27.629   2.166  18.392
81597W        W82462  28.565   2.366  21.140
81598W        W82463  28.219   3.067  18.607
81599W        W82464  26.834   0.742  21.513
81600W        W82465  26.654   1.326  20.754
81601W        W82466  28.746   2.821  21.031
81602W        W82467  27.846   0.771  21.408
81603W        W82468  25.690   1.242  21.185
81604W        W82469  27.450   1.719  20.911
81605W        W82470  25.807   2.477  19.568
81606W        W82471  25.954   1.774  20.458
81607W        W82472  28.271   2.060  20.808
81608W        W82473  28.043   3.440  21.619
81609W        W82474  27.939   1.179  21.172
81610W        W82475  28.216   3.233  19.577
81611W        W82476  27.218   2.953  20.900
81612W        W82477  26.703   3.308  20.169
81613W        W82478  28.508   2.479  20.588
81614W        W82479  27.558   2.551  21.725
81615W        W82480  26.163   2.504  20.064
81616W        W82481  28.509   2.263  19.709
81617W        W82482  28.150   3.329  20.460
81618W        W82483  26.128   3.058  20.330
81619W        W82484  27.149   1.110  21.540
81620W        W82485  27.600   3.276  19.051
81621W        W82486  26.908   2.531  21.689
81622W        W82487  27.034   2.769  19.066
81623W        W82488  26.255   1.509  18.325
81624W        W82489  25.594   3.595  25.225
81625W        W82490  25.970   2.488  24.748
81626W        W82491  28.675   2.218  22.518
81627W        W82492  28.805   3.303  24.545
81628W        W82493  26.723   3.294  22.071
81629W        W82494  26.806   1.446  23.054
81630W        W82495  26.321   1.294  23.218
81631W        W82496  27.312   2.109  22.652
81632W        W82497  26.987   3.201  25.007
81633W        W82498  25.636   0.762  24.970
81634W        W82499  26.398   0.042  24.772
81635W        W82500  28.092   0.430  23.659
81636W        W82501  27.741   1.301  22.229
81637W        W82502  28.311   0.735  25.320
81638W        W82503  25.677   0.527  24.445
81639W        W82504  25.776   3.146  25.466
81640W        W82505  27.298   2.536  22.198
81641W        W82506  25.730   1.319  23.891
81642W        W82507  26.623   1.210  25.128
81643W        W82508  29.082   1.069  23.627
81644W        W82509  28.846   2.112  24.486
81645W        W82510  27.154   1.445  23.513
81646W        W82511  27.700   2.784  23.882
81647W        W82512  26.200   2.218  24.114
81648W        W82513  25.559   1.746  23.685
81649W        W82514  26.595   1.718  24.877
81650W        W82515  28.866   1.501  25.131
81651W        W82516  26.482   2.945  23.576
81652W        W82517  27.603   2.634  24.710
81653W        W82518  26.823   1.274  23.935
81654W        W82519  27.115   2.058  23.578
81655W        W82520  28.112   2.831  25.426
81656W        W82521  27.191   2.151  25.436
81657W        W82522  27.172   1.867  24.914
81658W        W82523  25.581   1.258  25.436
81659W        W82524  28.413   2.793  25.035
81660W        W82525  25.994   0.375  23.033
81661W        W82526  26.521   2.633  24.032
81662W        W82527  28.984   2.416  23.322
81663W        W82528  28.397   0.816  23.889
81664W        W82529  28.682   0.769  21.984
81665W        W82530  29.147   1.570  24.290
81666W        W82531  27.114   3.277  24.043
81667W        W82532  28.888   2.743  22.481
81668W        W82533  26.017   3.529  22.235
81669W        W82534  26.410   3.575  22.911
81670W        W82535  26.207   0.329  24.337
81671W        W82536  28.830   1.347  24.612
81672W        W82537  28.235   1.769  23.071
81673W        W82538  28.201   1.457  22.098
81674W        W82539  27.409   2.601  24.238
81675W        W82540  27.215   0.931  23.437
81676W        W82541  27.815   3.018  24.431
81677W        W82542  28.686   1.809  22.853
81678W        W82543  27.588   0.467  22.869
81679W        W82544  26.245   3.161  22.552
81680W        W82545  25.616   0.660  23.151
81681W        W82546  28.402   1.267  23.625
81682W        W82547  25.860   2.884  23.540
81683W        W82548  27.201   3.234  22.410
81684W        W82549  28.593   1.260  21.874
81685W        W82550  25.616   3.018  24.038
81686W        W82551  26.407   2.590  24.518
81687W        W82552  26.780   1.950  23.137
81688W        W82553  26.802   0.355  24.230
81689W        W82554  29.031   0.117  23.527
81690W        W82555  26.250   1.989  21.995
81691W        W82556  25.905   1.022  22.174
81692W        W82557  25.967   2.978  22.968
81693W        W82558  27.098   2.461  23.216
81694W        W82559  28.430   3.320  24.930
81695W        W82560  27.356   0.962  22.614
81696W        W82561  28.739   3.360  23.386
81697W        W82562  28.416   1.213  24.984
81698W        W82563  29.129   2.869  23.118
81699W        W82564  27.756   2.161  24.602
81700W        W82565  25.522   1.712  22.808
81701W        W82566  26.633   2.127  24.381
81702W        W82567  27.837   1.391  22.759
81703W        W82568  27.714   1.881  22.863
81704W        W82569  26.057   1.301  24.337
81705W        W82570  26.042   1.177  25.259
81706W        W82571  25.932   0.094  23.418
81707W        W82572  27.700   0.441  23.979
81708W        W82573  27.348   0.626  25.142
81709W        W82574  27.703   0.775  22.320
81710W        W82575  28.886   3.168  25.074
81711W        W82576  27.853   0.249  25.113
81712W        W82577  28.872   2.550  25.235
81713W        W82578  28.302   0.717  24.831
81714W        W82579  28.102   0.655  23.101
81715W        W82580  28.495   1.789  25.505
81716W        W82581  26.235   3.365  23.491
81717W        W82582  26.893   1.082  22.477
81718W        W82583  26.462   0.366  25.141
81719W        W82584  28.514   0.850  22.822
81720W        W82585  28.881   1.332  22.767
81721W        W82586  26.624   3.549  25.238
81722W        W82587  26.550   0.085  22.473
81723W        W82588  28.871   0.619  23.508
81724W        W82589  29.021   2.868  21.953
81725W        W82590  25.928   2.071  23.655
81726W        W82591  27.845   0.658  21.885
81727W        W82592  28.979   2.990  23.605
81728W        W82593  29.018   0.184  24.355
81729W        W82594  27.463   1.396  24.909
81730W        W82595  27.556   2.735  22.612
81731W        W82596  27.956   2.029  25.352
81732W        W82597  27.630   0.006  23.661
81733W        W82598  26.242   0.909  23.724
81734W        W82599  25.796   2.109  24.498
81735W        W82600  27.655   3.302  23.204
81736W        W82601  28.849   0.899  24.076
81737W        W82602  27.486   3.246  24.843
81738W        W82603  28.829   2.305  22.048
81739W        W82604  27.264   1.788  23.109
81740W        W82605  29.116   0.299  24.850
81741W        W82606  27.265   2.134  24.444
81742W        W82607  27.482   1.020  23.889
81743W        W82608  28.334   1.318  22.727
81744W        W82609  28.621   1.051  22.369
81745W        W82610  28.430   3.091  22.758
81746W        W82611  28.264   2.694  23.554
81747W        W82612  28.160   1.773  22.532
81748W        W82613  27.593   1.983  23.518
81749W        W82614  28.474   1.771  23.585
81750W        W82615  25.849   0.786  24.009
81751W        W82616  28.627   1.838  24.836
81752W        W82617  28.978   3.456  23.982
81753W        W82618  26.908   2.900  23.384
81754W        W82619  27.915   3.433  24.708
81755W        W82620  27.909   0.763  24.472
81756W        W82621  27.116   3.471  24.533
81757W        W82622  28.813   0.425  22.999
81758W        W82623  28.604   1.744  24.300
81759W        W82624  25.587   1.065  24.338
81760W        W82625  28.447   0.860  23.356
81761W        W82626  28.858   1.011  25.133
81762W        W82627  27.743   2.710  23.351
81763W        W82628  26.999   3.301  22.964
81764W        W82629  26.114   0.481  22.222
81765W        W82630  27.218   0.135  24.032
81766W        W82631  26.246   3.255  21.880
81767W        W82632  26.620   1.721  22.631
81768W        W82633  27.274   2.350  24.944
81769W        W82634  27.104   0.708  22.934
81770W        W82635  28.460   0.305  23.362
81771W        W82636  28.180   3.587  23.690
81772W        W82637  27.592   3.235  24.030
81773W        W82638  26.988   2.272  23.991
81774W        W82639  28.758   2.995  24.117
81775W        W82640  26.452   0.498  22.886
81776W        W82641  26.974   2.795  23.846
81777W        W82642  26.457   0.726  21.911
81778W        W82643  27.258   1.335  24.305
81779W        W82644  28.106   0.201  24.175
81780W        W82645  25.526   2.044  24.060
81781W        W82646  27.230   1.862  22.218
81782W        W82647  26.498   0.177  21.988
81783W        W82648  27.236   1.258  23.039
81784W        W82649  28.206   0.234  24.738
81785W        W82650  26.794   2.246  24.847
81786W        W82651  27.598   2.028  25.064
81787W        W82652  28.215   2.058  24.957
81788W        W82653  27.499   0.198  25.462
81789W        W82654  26.721   0.814  23.855
81790W        W82655  26.147   0.770  23.253
81791W        W82656  25.933   3.482  22.929
81792W        W82657  27.265   2.812  25.054
81793W        W82658  26.300   2.297  22.413
81794W        W82659  27.980   1.682  23.634
81795W        W82660  28.260   1.481  24.033
81796W        W82661  27.465   2.155  23.967
81797W        W82662  27.935   2.529  22.099
81798W        W82663  27.607   0.550  23.427
81799W        W82664  29.086   0.828  22.695
81800W        W82665  25.580   3.417  24.726
81801W        W82666  25.997   2.643  24.258
81802W        W82667  25.564   3.489  22.490
81803W        W82668  27.463   0.759  24.296
81804W        W82669  26.826   2.782  22.145
81805W        W82670  28.731   3.164  22.331
81806W        W82671  27.706   1.817  22.345
81807W        W82672  26.549   1.008  22.862
81808W        W82673  27.381   0.918  21.914
81809W        W82674  27.965   2.483  25.092
81810W        W82675  28.318   0.389  22.709
81811W        W82676  25.648   0.237  22.157
81812W        W82677  26.934   2.556  24.447
81813W        W82678  26.733   2.472  23.539
81814W        W82679  26.475   2.424  21.937
81815W        W82680  25.716   2.665  22.705
81816W        W82681  26.220   1.735  25.147
81817W        W82682  26.924   0.295  25.333
81818W        W82683  27.633   0.437  24.689
81819W        W82684  26.828   0.205  22.970
81820W        W82685  27.887   0.282  22.475
81821W        W82686  25.832   0.214  24.052
81822W        W82687  25.880   1.177  23.422
81823W        W82688  28.569   0.285  23.828
81824W        W82689  25.991   0.783  22.642
81825W        W82690  28.562   0.471  24.258
81826W        W82691  28.958   1.674  21.943
81827W        W82692  26.250   0.432  23.762
81828W        W82693  27.364   1.004  24.702
81829W        W82694  25.512   0.694  22.180
81830W        W82695  26.298   2.083  24.741
81831W        W82696  27.656   1.481  23.920
81832W        W82697  27.523   3.560  22.216
81833W        W82698  25.669   2.067  21.913
81834W        W82699  26.404   2.478  25.039
81835W        W82700  25.925   1.645  24.670
81836W        W82701  26.916   1.750  24.464
81837W        W82702  28.684   0.109  24.726
81838W        W82703  29.082   1.719  24.717
81839W        W82704  29.070   1.919  22.403
81840W        W82705  27.933   2.251  22.502
81841W        W82706  28.407   3.551  22.197
81842W        W82707  27.584   1.541  25.339
81843W        W82708  25.914   2.508  25.379
81844W        W82709  29.120   0.430  25.331
81845W        W82710  28.838   1.358  23.952
81846W        W82711  27.146   3.488  25.429
81847W        W82712  27.001   0.117  22.156
81848W        W82713  28.540   2.716  22.099
81849W        W82714  26.309   0.809  24.985
81850W        W82715  26.743   2.803  24.847
81851W        W82716  28.869   0.794  24.645
81852W        W82717  28.080   3.453  22.613
81853W        W82718  28.319   2.072  23.980
81854W        W82719  26.569   0.488  24.647
81855W        W82720  27.038   1.557  25.404
81856W        W82721  26.541   2.736  22.598
81857W        W82722  28.296   2.234  22.862
81858W        W82723  26.064   0.860  24.586
81859W        W82724  27.393   2.922  23.050
81860W        W82725  29.143   1.482  23.231
81861W        W82726  27.365   0.115  24.950
81862W        W82727  28.145   2.820  24.029
81863W        W82728  28.448   3.164  23.737
81864W        W82729  27.667   2.966  22.165
81865W        W82730  25.677   2.858  25.007
81866W        W82731  26.420   0.850  24.245
81867W        W82732  26.390   0.198  23.355
81868W        W82733  28.011   1.040  24.047
81869W        W82734  26.809   2.211  22.247
81870W        W82735  28.807   2.153  23.746
81871W        W82736  26.134   2.911  25.169
81872W        W82737  28.521   3.593  22.966
81873W        W82738  26.620   0.613  23.411
81874W        W82739  26.389   2.106  23.501
81875W        W82740  26.702   3.517  24.251
81876W        W82741  28.769   3.613  25.283
81877W        W82742  27.928   1.801  24.216
81878W        W82743  25.777   1.599  22.131
81879W        W82744  28.911   3.257  22.828
81880W        W82745  28.748   0.581  22.447
81881W        W82746  26.887   0.100  24.850
81882W        W82747  28.593   2.902  23.308
81883W        W82748  28.622   1.458  23.213
81884W        W82749  26.739   1.131  23.429
81885W        W82750  26.984   1.393  24.753
81886W        W82751  28.095   2.546  24.616
81887W        W82752  26.745   1.000  24.728
81888W        W82753  26.724   3.466  23.344
81889W        W82754  26.041   3.425  24.978
81890W        W82755  26.153   2.786  22.108
81891W        W82756  28.670   2.544  22.918
81892W        W82757  26.274   1.336  24.804
81893W        W82758  29.047   1.266  22.285
81894W        W82759  26.792   2.323  22.756
81895W        W82760  27.891   1.705  24.837
81896W        W82761  27.782   1.333  24.381
81897W        W82762  26.342   1.705  24.410
81898W        W82763  28.552   3.593  24.239
81899W        W82764  28.343   0.227  25.233
81900W        W82765  26.007   0.377  24.820
81901W        W82766  26.346   1.400  23.873
81902W        W82767  26.715   1.214  21.995
81903W        W82768  25.518   2.973  24.540
81904W        W82769  27.103   1.682  23.983
81905W        W82770  26.926   0.707  22.088
81906W        W82771  26.061   1.523  22.869
81907W        W82772  25.832   3.375  24.306
81908W        W82773  28.627   1.601  22.414
81909W        W82774  28.722   0.517  25.100
81910W        W82775  28.158   2.726  23.063
81911W        W82776  25.756   1.650  25.240
81912W        W82777  28.722   0.114  22.536
81913W        W82778  28.242   2.589  22.547
81914W        W82779  27.144   1.647  22.632
81915W        W82780  28.331   0.451  22.155
81916W        W82781  28.396   1.058  24.341
81917W        W82782  26.105   1.651  23.548
81918W        W82783  26.399   2.590  23.197
81919W        W82784  28.162   1.210  23.162
81920W        W82785  27.185   0.589  23.858
81921W        W82786  29.147   2.500  24.369
81922W        W82787  29.065   0.487  23.930
81923W        W82788  25.604   3.317  23.306
81924W        W82789  26.113   2.504  22.842
81925W        W82790  26.028   0.121  25.395
81926W        W82791  27.147   2.974  25.497
81927W        W82792  28.902   1.942  23.287
81928W        W82793  28.256   2.119  22.167
81929W        W82794  27.551   3.640  24.379
81930W        W82795  28.408   2.362  25.416
81931W        W82796  27.223   0.072  22.696
81932W        W82797  27.936   0.941  23.555
81933W        W82798  25.622   2.528  23.887
81934W        W82799  26.875   0.490  22.528
81935W        W82800  26.679   1.974  25.377
81936W        W82801  27.673   0.955  23.091
81937W        W82802  27.878   2.365  24.213
81938W        W82803  26.032   2.970  24.648
81939W        W82804  26.623   2.953  25.371
81940W        W82805  26.474   0.750  22.385
81941W        W82806  27.991   0.892  22.710
81942W        W82807  27.949   3.000  24.947
81943W        W82808  26.634   1.592  23.546
81944W        W82809  26.289   3.290  24.411
81945W        W82810  29.034   3.407  22.012
81946W        W82811  25.897   2.079  25.008
81947W        W82812  27.892   2.341  23.696
81948W        W82813  26.328   1.990  22.938
81949W        W82814  26.699   2.997  24.333
81950W        W82815  27.077   0.416  23.374
81951W        W82816  25.688   2.400  22.304
81952W        W82817  27.207   1.351  22.174
81953W        W82818  25.853   1.900  23.193
81954W        W82819  27.143   0.542  24.657
81955W        W82820  28.815   0.251  22.084
81956W        W82821  28.908   1.997  25.183
81957W        W82822  27.562   3.254  25.335
81958W        W82823  29.120   2.348  24.857
81959W        W82824  28.528   3.146  25.468
81960W        W82825  26.267   3.602  23.946
81961W        W82826  29.126   2.224  22.820
81962W        W82827  27.656   1.491  23.333
81963W        W82828  27.423   0.103  23.223
81964W        W82829  26.482   3.087  23.060
81965W        W82830  26.981   0.828  24.285
81966W        W82831  26.681   0.197  23.754
81967W        W82832  25.744   3.019  22.302
81968W        W82833  27.560   2.383  23.020
81969W        W82834  26.435   3.178  24.899
81970W        W82835  25.912   2.001  22.595
81971W        W82836  25.797   0.544  23.594
81972W        W82837  27.345   2.509  23.651
81973W        W82838  25.597   0.363  22.671
81974W        W82839  28.261   1.569  24.598
81975W        W82840  28.138   0.955  22.170
81976W        W82841  28.655   2.627  23.818
81977W        W82842  27.316   3.111  23.649
81978W        W82843  26.728   3.215  22.560
81979W        W82844  28.010   0.118  21.990
81980W        W82845  25.810   3.378  23.731
81981W        W82846  28.007   1.136  25.366
81982W        W82847  25.990   0.666  25.365
81983W        W82848  25.721   1.266  22.698
81984W        W82849  26.412   1.255  22.423
81985W        W82850  28.175   1.582  25.240
81986W        W82851  26.518   1.863  23.949
81987W        W82852  27.992   0.149  23.069
81988W        W82853  27.123   3.580  23.572
81989W        W82854  28.337   3.042  24.509
81990W        W82855  27.921   3.191  23.620
81991W        W82856  27.940   2.171  23.214
81992W        W82857  27.402   0.396  22.285
81993W        W82858  29.083   0.024  23.007
81994W        W82859  26.771   1.659  22.170
81995W        W82860  28.937   0.996  23.160
81996W        W82861  27.629   2.166  22.037
81997W        W82862  28.565   2.366  24.785
81998W        W82863  28.219   3.067  22.252
81999W        W82864  26.834   0.742  25.158
82000W        W82865  26.654   1.326  24.399
82001W        W82866  28.746   2.821  24.676
82002W        W82867  27.846   0.771  25.053
82003W        W82868  25.690   1.242  24.830
82004W        W82869  27.450   1.719  24.556
82005W        W82870  25.807   2.477  23.213
82006W        W82871  25.954   1.774  24.103
82007W        W82872  28.271   2.060  24.453
82008W        W82873  28.043   3.440  25.264
82009W        W82874  27.939   1.179  24.817
82010W        W82875  28.216   3.233  23.222
82011W        W82876  27.218   2.953  24.545
82012W        W82877  26.703   3.308  23.814
82013W        W82878  28.508   2.479  24.233
82014W        W82879  27.558   2.551  25.370
82015W        W82880  26.163   2.504  23.709
82016W        W82881  28.509   2.263  23.354
82017W        W82882  28.150   3.329  24.105
82018W        W82883  26.128   3.058  23.975
82019W        W82884  27.149   1.110  25.185
82020W        W82885  27.600   3.276  22.696
82021W        W82886  26.908   2.531  25.334
82022W        W82887  27.034   2.769  22.711
82023W        W82888  26.255   1.509  21.970
82024W        W82889  25.594   3.595  28.869
82025W        W82890  25.970   2.488  28.392
82026W        W82891  28.675   2.218  26.162
82027W        W82892  28.805   3.303  28.189
82028W        W82893  26.723   3.294  25.715
82029W        W82894  26.806   1.446  26.698
82030W        W82895  26.321   1.294  26.862
82031W        W82896  27.312   2.109  26.296
82032W        W82897  26.987   3.201  28.651
82033W        W82898  25.636   0.762  28.614
82034W        W82899  26.398   0.042  28.416
82035W        W82900  28.092   0.430  27.303
82036W        W82901  27.741   1.301  25.873
82037W        W82902  28.311   0.735  28.964
82038W        W82903  25.677   0.527  28.089
82039W        W82904  25.776   3.146  29.110
82040W        W82905  27.298   2.536  25.842
82041W        W82906  25.730   1.319  27.535
82042W        W82907  26.623   1.210  28.772
82043W        W82908  29.082   1.069  27.271
82044W        W82909  28.846   2.112  28.130
82045W        W82910  27.154   1.445  27.157
82046W        W82911  27.700   2.784  27.526
82047W        W82912  26.200   2.218  27.758
82048W        W82913  25.559   1.746  27.329
82049W        W82914  26.595   1.718  28.521
82050W        W82915  28.866   1.501  28.775
82051W        W82916  26.482   2.945  27.220
82052W        W82917  27.603   2.634  28.354
82053W        W82918  26.823   1.274  27.579
82054W        W82919  27.115   2.058  27.222
82055W        W82920  28.112   2.831  29.070
82056W        W82921  27.191   2.151  29.080
82057W        W82922  27.172   1.867  28.558
82058W        W82923  25.581   1.258  29.080
82059W        W82924  28.413   2.793  28.679
82060W        W82925  25.994   0.375  26.677
82061W        W82926  26.521   2.633  27.676
82062W        W82927  28.984   2.416  26.966
82063W        W82928  28.397   0.816  27.533
82064W        W82929  28.682   0.769  25.628
82065W        W82930  29.147   1.570  27.934
82066W        W82931  27.114   3.277  27.687
82067W        W82932  28.888   2.743  26.125
82068W        W82933  26.017   3.529  25.879
82069W        W82934  26.410   3.575  26.555
82070W        W82935  26.207   0.329  27.981
82071W        W82936  28.830   1.347  28.256
82072W        W82937  28.235   1.769  26.715
82073W        W82938  28.201   1.457  25.742
82074W        W82939  27.409   2.601  27.882
82075W        W82940  27.215   0.931  27.081
82076W        W82941  27.815   3.018  28.075
82077W        W82942  28.686   1.809  26.497
82078W        W82943  27.588   0.467  26.513
82079W        W82944  26.245   3.161  26.196
82080W        W82945  25.616   0.660  26.795
82081W        W82946  28.402   1.267  27.269
82082W        W82947  25.860   2.884  27.184
82083W        W82948  27.201   3.234  26.054
82084W        W82949  28.593   1.260  25.518
82085W        W82950  25.616   3.018  27.682
82086W        W82951  26.407   2.590  28.162
82087W        W82952  26.780   1.950  26.781
82088W        W82953  26.802   0.355  27.874
82089W        W82954  29.031   0.117  27.171
82090W        W82955  26.250   1.989  25.639
82091W        W82956  25.905   1.022  25.818
82092W        W82957  25.967   2.978  26.612
82093W        W82958  27.098   2.461  26.860
82094W        W82959  28.430   3.320  28.574
82095W        W82960  27.356   0.962  26.258
82096W        W82961  28.739   3.360  27.030
82097W        W82962  28.416   1.213  28.628
82098W        W82963  29.129   2.869  26.762
82099W        W82964  27.756   2.161  28.246
82100W        W82965  25.522   1.712  26.452
82101W        W82966  26.633   2.127  28.025
82102W        W82967  27.837   1.391  26.403
82103W        W82968  27.714   1.881  26.507
82104W        W82969  26.057   1.301  27.981
82105W        W82970  26.042   1.177  28.903
82106W        W82971  25.932   0.094  27.062
82107W        W82972  27.700   0.441  27.623
82108W        W82973  27.348   0.626  28.786
82109W        W82974  27.703   0.775  25.964
82110W        W82975  28.886   3.168  28.718
82111W        W82976  27.853   0.249  28.757
82112W        W82977  28.872   2.550  28.879
82113W        W82978  28.302   0.717  28.475
82114W        W82979  28.102   0.655  26.745
82115W        W82980  28.495   1.789  29.149
82116W        W82981  26.235   3.365  27.135
82117W        W82982  26.893   1.082  26.121
82118W        W82983  26.462   0.366  28.785
82119W        W82984  28.514   0.850  26.466
82120W        W82985  28.881   1.332  26.411
82121W        W82986  26.624   3.549  28.882
82122W        W82987  26.550   0.085  26.117
82123W        W82988  28.871   0.619  27.152
82124W        W82989  29.021   2.868  25.597
82125W        W82990  25.928   2.071  27.299
82126W        W82991  27.845   0.658  25.529
82127W        W82992  28.979   2.990  27.249
82128W        W82993  29.018   0.184  27.999
82129W        W82994  27.463   1.396  28.553
82130W        W82995  27.556   2.735  26.256
82131W        W82996  27.956   2.029  28.996
82132W        W82997  27.630   0.006  27.305
82133W        W82998  26.242   0.909  27.368
82134W        W82999  25.796   2.109  28.142
82135W        W83000  27.655   3.302  26.848
82136W        W83001  28.849   0.899  27.720
82137W        W83002  27.486   3.246  28.487
82138W        W83003  28.829   2.305  25.692
82139W        W83004  27.264   1.788  26.753
82140W        W83005  29.116   0.299  28.494
82141W        W83006  27.265   2.134  28.088
82142W        W83007  27.482   1.020  27.533
82143W        W83008  28.334   1.318  26.371
82144W        W83009  28.621   1.051  26.013
82145W        W83010  28.430   3.091  26.402
82146W        W83011  28.264   2.694  27.198
82147W        W83012  28.160   1.773  26.176
82148W        W83013  27.593   1.983  27.162
82149W        W83014  28.474   1.771  27.229
82150W        W83015  25.849   0.786  27.653
82151W        W83016  28.627   1.838  28.480
82152W        W83017  28.978   3.456  27.626
82153W        W83018  26.908   2.900  27.028
82154W        W83019  27.915   3.433  28.352
82155W        W83020  27.909   0.763  28.116
82156W        W83021  27.116   3.471  28.177
82157W        W83022  28.813   0.425  26.643
82158W        W83023  28.604   1.744  27.944
82159W        W83024  25.587   1.065  27.982
82160W        W83025  28.447   0.860  27.000
82161W        W83026  28.858   1.011  28.777
82162W        W83027  27.743   2.710  26.995
82163W        W83028  26.999   3.301  26.608
82164W        W83029  26.114   0.481  25.866
82165W        W83030  27.218   0.135  27.676
82166W        W83031  26.246   3.255  25.524
82167W        W83032  26.620   1.721  26.275
82168W        W83033  27.274   2.350  28.588
82169W        W83034  27.104   0.708  26.578
82170W        W83035  28.460   0.305  27.006
82171W        W83036  28.180   3.587  27.334
82172W        W83037  27.592   3.235  27.674
82173W        W83038  26.988   2.272  27.635
82174W        W83039  28.758   2.995  27.761
82175W        W83040  26.452   0.498  26.530
82176W        W83041  26.974   2.795  27.490
82177W        W83042  26.457   0.726  25.555
82178W        W83043  27.258   1.335  27.949
82179W        W83044  28.106   0.201  27.819
82180W        W83045  25.526   2.044  27.704
82181W        W83046  27.230   1.862  25.862
82182W        W83047  26.498   0.177  25.632
82183W        W83048  27.236   1.258  26.683
82184W        W83049  28.206   0.234  28.382
82185W        W83050  26.794   2.246  28.491
82186W        W83051  27.598   2.028  28.708
82187W        W83052  28.215   2.058  28.601
82188W        W83053  27.499   0.198  29.106
82189W        W83054  26.721   0.814  27.499
82190W        W83055  26.147   0.770  26.897
82191W        W83056  25.933   3.482  26.573
82192W        W83057  27.265   2.812  28.698
82193W        W83058  26.300   2.297  26.057
82194W        W83059  27.980   1.682  27.278
82195W        W83060  28.260   1.481  27.677
82196W        W83061  27.465   2.155  27.611
82197W        W83062  27.935   2.529  25.743
82198W        W83063  27.607   0.550  27.071
82199W        W83064  29.086   0.828  26.339
82200W        W83065  25.580   3.417  28.370
82201W        W83066  25.997   2.643  27.902
82202W        W83067  25.564   3.489  26.134
82203W        W83068  27.463   0.759  27.940
82204W        W83069  26.826   2.782  25.789
82205W        W83070  28.731   3.164  25.975
82206W        W83071  27.706   1.817  25.989
82207W        W83072  26.549   1.008  26.506
82208W        W83073  27.381   0.918  25.558
82209W        W83074  27.965   2.483  28.736
82210W        W83075  28.318   0.389  26.353
82211W        W83076  25.648   0.237  25.801
82212W        W83077  26.934   2.556  28.091
82213W        W83078  26.733   2.472  27.183
82214W        W83079  26.475   2.424  25.581
82215W        W83080  25.716   2.665  26.349
82216W        W83081  26.220   1.735  28.791
82217W        W83082  26.924   0.295  28.977
82218W        W83083  27.633   0.437  28.333
82219W        W83084  26.828   0.205  26.614
82220W        W83085  27.887   0.282  26.119
82221W        W83086  25.832   0.214  27.696
82222W        W83087  25.880   1.177  27.066
82223W        W83088  28.569   0.285  27.472
82224W        W83089  25.991   0.783  26.286
82225W        W83090  28.562   0.471  27.902
82226W        W83091  28.958   1.674  25.587
82227W        W83092  26.250   0.432  27.406
82228W        W83093  27.364   1.004  28.346
82229W        W83094  25.512   0.694  25.824
82230W        W83095  26.298   2.083  28.385
82231W        W83096  27.656   1.481  27.564
82232W        W83097  27.523   3.560  25.860
82233W        W83098  25.669   2.067  25.557
82234W        W83099  26.404   2.478  28.683
82235W        W83100  25.925   1.645  28.314
82236W        W83101  26.916   1.750  28.108
82237W        W83102  28.684   0.109  28.370
82238W        W83103  29.082   1.719  28.361
82239W        W83104  29.070   1.919  26.047
82240W        W83105  27.933   2.251  26.146
82241W        W83106  28.407   3.551  25.841
82242W        W83107  27.584   1.541  28.983
82243W        W83108  25.914   2.508  29.023
82244W        W83109  29.120   0.430  28.975
82245W        W83110  28.838   1.358  27.596
82246W        W83111  27.146   3.488  29.073
82247W        W83112  27.001   0.117  25.800
82248W        W83113  28.540   2.716  25.743
82249W        W83114  26.309   0.809  28.629
82250W        W83115  26.743   2.803  28.491
82251W        W83116  28.869   0.794  28.289
82252W        W83117  28.080   3.453  26.257
82253W        W83118  28.319   2.072  27.624
82254W        W83119  26.569   0.488  28.291
82255W        W83120  27.038   1.557  29.048
82256W        W83121  26.541   2.736  26.242
82257W        W83122  28.296   2.234  26.506
82258W        W83123  26.064   0.860  28.230
82259W        W83124  27.393   2.922  26.694
82260W        W83125  29.143   1.482  26.875
82261W        W83126  27.365   0.115  28.594
82262W        W83127  28.145   2.820  27.673
82263W        W83128  28.448   3.164  27.381
82264W        W83129  27.667   2.966  25.809
82265W        W83130  25.677   2.858  28.651
82266W        W83131  26.420   0.850  27.889
82267W        W83132  26.390   0.198  26.999
82268W        W83133  28.011   1.040  27.691
82269W        W83134  26.809   2.211  25.891
82270W        W83135  28.807   2.153  27.390
82271W        W83136  26.134   2.911  28.813
82272W        W83137  28.521   3.593  26.610
82273W        W83138  26.620   0.613  27.055
82274W        W83139  26.389   2.106  27.145
82275W        W83140  26.702   3.517  27.895
82276W        W83141  28.769   3.613  28.927
82277W        W83142  27.928   1.801  27.860
82278W        W83143  25.777   1.599  25.775
82279W        W83144  28.911   3.257  26.472
82280W        W83145  28.748   0.581  26.091
82281W        W83146  26.887   0.100  28.494
82282W        W83147  28.593   2.902  26.952
82283W        W83148  28.622   1.458  26.857
82284W        W83149  26.739   1.131  27.073
82285W        W83150  26.984   1.393  28.397
82286W        W83151  28.095   2.546  28.260
82287W        W83152  26.745   1.000  28.372
82288W        W83153  26.724   3.466  26.988
82289W        W83154  26.041   3.425  28.622
82290W        W83155  26.153   2.786  25.752
82291W        W83156  28.670   2.544  26.562
82292W        W83157  26.274   1.336  28.448
82293W        W83158  29.047   1.266  25.929
82294W        W83159  26.792   2.323  26.400
82295W        W83160  27.891   1.705  28.481
82296W        W83161  27.782   1.333  28.025
82297W        W83162  26.342   1.705  28.054
82298W        W83163  28.552   3.593  27.883
82299W        W83164  28.343   0.227  28.877
82300W        W83165  26.007   0.377  28.464
82301W        W83166  26.346   1.400  27.517
82302W        W83167  26.715   1.214  25.639
82303W        W83168  25.518   2.973  28.184
82304W        W83169  27.103   1.682  27.627
82305W        W83170  26.926   0.707  25.732
82306W        W83171  26.061   1.523  26.513
82307W        W83172  25.832   3.375  27.950
82308W        W83173  28.627   1.601  26.058
82309W        W83174  28.722   0.517  28.744
82310W        W83175  28.158   2.726  26.707
82311W        W83176  25.756   1.650  28.884
82312W        W83177  28.722   0.114  26.180
82313W        W83178  28.242   2.589  26.191
82314W        W83179  27.144   1.647  26.276
82315W        W83180  28.331   0.451  25.799
82316W        W83181  28.396   1.058  27.985
82317W        W83182  26.105   1.651  27.192
82318W        W83183  26.399   2.590  26.841
82319W        W83184  28.162   1.210  26.806
82320W        W83185  27.185   0.589  27.502
82321W        W83186  29.147   2.500  28.013
82322W        W83187  29.065   0.487  27.574
82323W        W83188  25.604   3.317  26.950
82324W        W83189  26.113   2.504  26.486
82325W        W83190  26.028   0.121  29.039
82326W        W83191  27.147   2.974  29.141
82327W        W83192  28.902   1.942  26.931
82328W        W83193  28.256   2.119  25.811
82329W        W83194  27.551   3.640  28.023
82330W        W83195  28.408   2.362  29.060
82331W        W83196  27.223   0.072  26.340
82332W        W83197  27.936   0.941  27.199
82333W        W83198  25.622   2.528  27.531
82334W        W83199  26.875   0.490  26.172
82335W        W83200  26.679   1.974  29.021
82336W        W83201  27.673   0.955  26.735
82337W        W83202  27.878   2.365  27.857
82338W        W83203  26.032   2.970  28.292
82339W        W83204  26.623   2.953  29.015
82340W        W83205  26.474   0.750  26.029
82341W        W83206  27.991   0.892  26.354
82342W        W83207  27.949   3.000  28.591
82343W        W83208  26.634   1.592  27.190
82344W        W83209  26.289   3.290  28.055
82345W        W83210  29.034   3.407  25.656
82346W        W83211  25.897   2.079  28.652
82347W        W83212  27.892   2.341  27.340
82348W        W83213  26.328   1.990  26.582
82349W        W83214  26.699   2.997  27.977
82350W        W83215  27.077   0.416  27.018
82351W        W83216  25.688   2.400  25.948
82352W        W83217  27.207   1.351  25.818
82353W        W83218  25.853   1.900  26.837
82354W        W83219  27.143   0.542  28.301
82355W        W83220  28.815   0.251  25.728
82356W        W83221  28.908   1.997  28.827
82357W        W83222  27.562   3.254  28.979
82358W        W83223  29.120   2.348  28.501
82359W        W83224  28.528   3.146  29.112
82360W        W83225  26.267   3.602  27.590
82361W        W83226  29.126   2.224  26.464
82362W        W83227  27.656   1.491  26.977
82363W        W83228  27.423   0.103  26.867
82364W        W83229  26.482   3.087  26.704
82365W        W83230  26.981   0.828  27.929
82366W        W83231  26.681   0.197  27.398
82367W        W83232  25.744   3.019  25.946
82368W        W83233  27.560   2.383  26.664
82369W        W83234  26.435   3.178  28.543
82370W        W83235  25.912   2.001  26.239
82371W        W83236  25.797   0.544  27.238
82372W        W83237  27.345   2.509  27.295
82373W        W83238  25.597   0.363  26.315
82374W        W83239  28.261   1.569  28.242
82375W        W83240  28.138   0.955  25.814
82376W        W83241  28.655   2.627  27.462
82377W        W83242  27.316   3.111  27.293
82378W        W83243  26.728   3.215  26.204
82379W        W83244  28.010   0.118  25.634
82380W        W83245  25.810   3.378  27.375
82381W        W83246  28.007   1.136  29.010
82382W        W83247  25.990   0.666  29.009
82383W        W83248  25.721   1.266  26.342
82384W        W83249  26.412   1.255  26.067
82385W        W83250  28.175   1.582  28.884
82386W        W83251  26.518   1.863  27.593
82387W        W83252  27.992   0.149  26.713
82388W        W83253  27.123   3.580  27.216
82389W        W83254  28.337   3.042  28.153
82390W        W83255  27.921   3.191  27.264
82391W        W83256  27.940   2.171  26.858
82392W        W83257  27.402   0.396  25.929
82393W        W83258  29.083   0.024  26.651
82394W        W83259  26.771   1.659  25.814
82395W        W83260  28.937   0.996  26.804
82396W        W83261  27.629   2.166  25.681
82397W        W83262  28.565   2.366  28.429
82398W        W83263  28.219   3.067  25.896
82399W        W83264  26.834   0.742  28.802
82400W        W83265  26.654   1.326  28.043
82401W        W83266  28.746   2.821  28.320
82402W        W83267  27.846   0.771  28.697
82403W        W83268  25.690   1.242  28.474
82404W        W83269  27.450   1.719  28.200
82405W        W83270  25.807   2.477  26.857
82406W        W83271  25.954   1.774  27.747
82407W        W83272  28.271   2.060  28.097
82408W        W83273  28.043   3.440  28.908
82409W        W83274  27.939   1.179  28.461
82410W        W83275  28.216   3.233  26.866
82411W        W83276  27.218   2.953  28.189
82412W        W83277  26.703   3.308  27.458
82413W        W83278  28.508   2.479  27.877
82414W        W83279  27.558   2.551  29.014
82415W        W83280  26.163   2.504  27.353
82416W        W83281  28.509   2.263  26.998
82417W        W83282  28.150   3.329  27.749
82418W        W83283  26.128   3.058  27.619
82419W        W83284  27.149   1.110  28.829
82420W        W83285  27.600   3.276  26.340
82421W        W83286  26.908   2.531  28.978
82422W        W83287  27.034   2.769  26.355
82423W        W83288  26.255   1.509  25.614
82424W        W83289  25.594   7.239   3.359
82425W        W83290  25.970   6.132   2.882
82426W        W83291  28.675   5.862   0.652
82427W        W83292  28.805   6.947   2.679
82428W        W83293  26.723   6.938   0.205
82429W        W83294  26.806   5.090   1.188
82430W        W83295  26.321   4.938   1.352
82431W        W83296  27.312   5.753   0.786
82432W        W83297  26.987   6.845   3.141
82433W        W83298  25.636   4.406   3.104
82434W        W83299  26.398   3.686   2.906
82435W        W83300  28.092   4.074   1.793
82436W        W83301  27.741   4.945   0.363
82437W        W83302  28.311   4.379   3.454
82438W        W83303  25.677   4.171   2.579
82439W        W83304  25.776   6.790   3.600
82440W        W83305  27.298   6.180   0.332
82441W        W83306  25.730   4.963   2.025
82442W        W83307  26.623   4.854   3.262
82443W        W83308  29.082   4.713   1.761
82444W        W83309  28.846   5.756   2.620
82445W        W83310  27.154   5.089   1.647
82446W        W83311  27.700   6.428   2.016
82447W        W83312  26.200   5.862   2.248
82448W        W83313  25.559   5.390   1.819
82449W        W83314  26.595   5.362   3.011
82450W        W83315  28.866   5.145   3.265
82451W        W83316  26.482   6.589   1.710
82452W        W83317  27.603   6.278   2.844
82453W        W83318  26.823   4.918   2.069
82454W        W83319  27.115   5.702   1.712
82455W        W83320  28.112   6.475   3.560
82456W        W83321  27.191   5.795   3.570
82457W        W83322  27.172   5.511   3.048
82458W        W83323  25.581   4.902   3.570
82459W        W83324  28.413   6.437   3.169
82460W        W83325  25.994   4.019   1.167
82461W        W83326  26.521   6.277   2.166
82462W        W83327  28.984   6.060   1.456
82463W        W83328  28.397   4.460   2.023
82464W        W83329  28.682   4.413   0.118
82465W        W83330  29.147   5.214   2.424
82466W        W83331  27.114   6.921   2.177
82467W        W83332  28.888   6.387   0.615
82468W        W83333  26.017   7.173   0.369
82469W        W83334  26.410   7.219   1.045
82470W        W83335  26.207   3.973   2.471
82471W        W83336  28.830   4.991   2.746
82472W        W83337  28.235   5.413   1.205
82473W        W83338  28.201   5.101   0.232
82474W        W83339  27.409   6.245   2.372
82475W        W83340  27.215   4.575   1.571
82476W        W83341  27.815   6.662   2.565
82477W        W83342  28.686   5.453   0.987
82478W        W83343  27.588   4.111   1.003
82479W        W83344  26.245   6.805   0.686
82480W        W83345  25.616   4.304   1.285
82481W        W83346  28.402   4.911   1.759
82482W        W83347  25.860   6.528   1.674
82483W        W83348  27.201   6.878   0.544
82484W        W83349  28.593   4.904   0.008
82485W        W83350  25.616   6.662   2.172
82486W        W83351  26.407   6.234   2.652
82487W        W83352  26.780   5.594   1.271
82488W        W83353  26.802   3.999   2.364
82489W        W83354  29.031   3.761   1.661
82490W        W83355  26.250   5.633   0.129
82491W        W83356  25.905   4.666   0.308
82492W        W83357  25.967   6.622   1.102
82493W        W83358  27.098   6.105   1.350
82494W        W83359  28.430   6.964   3.064
82495W        W83360  27.356   4.606   0.748
82496W        W83361  28.739   7.004   1.520
82497W        W83362  28.416   4.857   3.118
82498W        W83363  29.129   6.513   1.252
82499W        W83364  27.756   5.805   2.736
82500W        W83365  25.522   5.356   0.942
82501W        W83366  26.633   5.771   2.515
82502W        W83367  27.837   5.035   0.893
82503W        W83368  27.714   5.525   0.997
82504W        W83369  26.057   4.945   2.471
82505W        W83370  26.042   4.821   3.393
82506W        W83371  25.932   3.738   1.552
82507W        W83372  27.700   4.085   2.113
82508W        W83373  27.348   4.270   3.276
82509W        W83374  27.703   4.419   0.454
82510W        W83375  28.886   6.812   3.208
82511W        W83376  27.853   3.893   3.247
82512W        W83377  28.872   6.194   3.369
82513W        W83378  28.302   4.361   2.965
82514W        W83379  28.102   4.299   1.235
82515W        W83380  28.495   5.433   3.639
82516W        W83381  26.235   7.009   1.625
82517W        W83382  26.893   4.726   0.611
82518W        W83383  26.462   4.010   3.275
82519W        W83384  28.514   4.494   0.956
82520W        W83385  28.881   4.976   0.901
82521W        W83386  26.624   7.193   3.372
82522W        W83387  26.550   3.729   0.607
82523W        W83388  28.871   4.263   1.642
82524W        W83389  29.021   6.512   0.087
82525W        W83390  25.928   5.715   1.789
82526W        W83391  27.845   4.302   0.019
82527W        W83392  28.979   6.634   1.739
82528W        W83393  29.018   3.828   2.489
82529W        W83394  27.463   5.040   3.043
82530W        W83395  27.556   6.379   0.746
82531W        W83396  27.956   5.673   3.486
82532W        W83397  27.630   3.650   1.795
82533W        W83398  26.242   4.553   1.858
82534W        W83399  25.796   5.753   2.632
82535W        W83400  27.655   6.946   1.338
82536W        W83401  28.849   4.543   2.210
82537W        W83402  27.486   6.890   2.977
82538W        W83403  28.829   5.949   0.182
82539W        W83404  27.264   5.432   1.243
82540W        W83405  29.116   3.943   2.984
82541W        W83406  27.265   5.778   2.578
82542W        W83407  27.482   4.664   2.023
82543W        W83408  28.334   4.962   0.861
82544W        W83409  28.621   4.695   0.503
82545W        W83410  28.430   6.735   0.892
82546W        W83411  28.264   6.338   1.688
82547W        W83412  28.160   5.417   0.666
82548W        W83413  27.593   5.627   1.652
82549W        W83414  28.474   5.415   1.719
82550W        W83415  25.849   4.430   2.143
82551W        W83416  28.627   5.482   2.970
82552W        W83417  28.978   7.100   2.116
82553W        W83418  26.908   6.544   1.518
82554W        W83419  27.915   7.077   2.842
82555W        W83420  27.909   4.407   2.606
82556W        W83421  27.116   7.115   2.667
82557W        W83422  28.813   4.069   1.133
82558W        W83423  28.604   5.388   2.434
82559W        W83424  25.587   4.709   2.472
82560W        W83425  28.447   4.504   1.490
82561W        W83426  28.858   4.655   3.267
82562W        W83427  27.743   6.354   1.485
82563W        W83428  26.999   6.945   1.098
82564W        W83429  26.114   4.125   0.356
82565W        W83430  27.218   3.779   2.166
82566W        W83431  26.246   6.899   0.014
82567W        W83432  26.620   5.365   0.765
82568W        W83433  27.274   5.994   3.078
82569W        W83434  27.104   4.352   1.068
82570W        W83435  28.460   3.949   1.496
82571W        W83436  28.180   7.231   1.824
82572W        W83437  27.592   6.879   2.164
82573W        W83438  26.988   5.916   2.125
82574W        W83439  28.758   6.639   2.251
82575W        W83440  26.452   4.142   1.020
82576W        W83441  26.974   6.439   1.980
82577W        W83442  26.457   4.370   0.045
82578W        W83443  27.258   4.979   2.439
82579W        W83444  28.106   3.845   2.309
82580W        W83445  25.526   5.688   2.194
82581W        W83446  27.230   5.506   0.352
82582W        W83447  26.498   3.821   0.122
82583W        W83448  27.236   4.902   1.173
82584W        W83449  28.206   3.878   2.872
82585W        W83450  26.794   5.890   2.981
82586W        W83451  27.598   5.672   3.198
82587W        W83452  28.215   5.702   3.091
82588W        W83453  27.499   3.842   3.596
82589W        W83454  26.721   4.458   1.989
82590W        W83455  26.147   4.414   1.387
82591W        W83456  25.933   7.126   1.063
82592W        W83457  27.265   6.456   3.188
82593W        W83458  26.300   5.941   0.547
82594W        W83459  27.980   5.326   1.768
82595W        W83460  28.260   5.125   2.167
82596W        W83461  27.465   5.799   2.101
82597W        W83462  27.607   4.194   1.561
82598W        W83463  29.086   4.472   0.829
82599W        W83464  25.580   7.061   2.860
82600W        W83465  25.997   6.287   2.392
82601W        W83466  25.564   7.133   0.624
82602W        W83467  27.463   4.403   2.430
82603W        W83468  26.826   6.426   0.279
82604W        W83469  28.731   6.808   0.465
82605W        W83470  27.706   5.461   0.479
82606W        W83471  26.549   4.652   0.996
82607W        W83472  27.381   4.562   0.048
82608W        W83473  27.965   6.127   3.226
82609W        W83474  28.318   4.033   0.843
82610W        W83475  25.648   3.881   0.291
82611W        W83476  26.934   6.200   2.581
82612W        W83477  26.733   6.116   1.673
82613W        W83478  26.475   6.068   0.071
82614W        W83479  25.716   6.309   0.839
82615W        W83480  26.220   5.379   3.281
82616W        W83481  26.924   3.939   3.467
82617W        W83482  27.633   4.081   2.823
82618W        W83483  26.828   3.849   1.104
82619W        W83484  27.887   3.926   0.609
82620W        W83485  25.832   3.858   2.186
82621W        W83486  25.880   4.821   1.556
82622W        W83487  28.569   3.929   1.962
82623W        W83488  25.991   4.427   0.776
82624W        W83489  28.562   4.115   2.392
82625W        W83490  28.958   5.318   0.077
82626W        W83491  26.250   4.076   1.896
82627W        W83492  27.364   4.648   2.836
82628W        W83493  25.512   4.338   0.314
82629W        W83494  26.298   5.727   2.875
82630W        W83495  27.656   5.125   2.054
82631W        W83496  27.523   7.204   0.350
82632W        W83497  25.669   5.711   0.047
82633W        W83498  26.404   6.122   3.173
82634W        W83499  25.925   5.289   2.804
82635W        W83500  26.916   5.394   2.598
82636W        W83501  28.684   3.753   2.860
82637W        W83502  29.082   5.363   2.851
82638W        W83503  29.070   5.563   0.537
82639W        W83504  27.933   5.895   0.636
82640W        W83505  28.407   7.195   0.331
82641W        W83506  27.584   5.185   3.473
82642W        W83507  25.914   6.152   3.513
82643W        W83508  29.120   4.074   3.465
82644W        W83509  28.838   5.002   2.086
82645W        W83510  27.146   7.132   3.563
82646W        W83511  27.001   3.761   0.290
82647W        W83512  28.540   6.360   0.233
82648W        W83513  26.309   4.453   3.119
82649W        W83514  26.743   6.447   2.981
82650W        W83515  28.869   4.438   2.779
82651W        W83516  28.080   7.097   0.747
82652W        W83517  28.319   5.716   2.114
82653W        W83518  26.569   4.132   2.781
82654W        W83519  27.038   5.201   3.538
82655W        W83520  26.541   6.380   0.732
82656W        W83521  28.296   5.878   0.996
82657W        W83522  26.064   4.504   2.720
82658W        W83523  27.393   6.566   1.184
82659W        W83524  29.143   5.126   1.365
82660W        W83525  27.365   3.759   3.084
82661W        W83526  28.145   6.464   2.163
82662W        W83527  28.448   6.808   1.871
82663W        W83528  27.667   6.610   0.299
82664W        W83529  25.677   6.502   3.141
82665W        W83530  26.420   4.494   2.379
82666W        W83531  26.390   3.842   1.489
82667W        W83532  28.011   4.684   2.181
82668W        W83533  26.809   5.855   0.381
82669W        W83534  28.807   5.797   1.880
82670W        W83535  26.134   6.555   3.303
82671W        W83536  28.521   7.237   1.100
82672W        W83537  26.620   4.257   1.545
82673W        W83538  26.389   5.750   1.635
82674W        W83539  26.702   7.161   2.385
82675W        W83540  28.769   7.257   3.417
82676W        W83541  27.928   5.445   2.350
82677W        W83542  25.777   5.243   0.265
82678W        W83543  28.911   6.901   0.962
82679W        W83544  28.748   4.225   0.581
82680W        W83545  26.887   3.744   2.984
82681W        W83546  28.593   6.546   1.442
82682W        W83547  28.622   5.102   1.347
82683W        W83548  26.739   4.775   1.563
82684W        W83549  26.984   5.037   2.887
82685W        W83550  28.095   6.190   2.750
82686W        W83551  26.745   4.644   2.862
82687W        W83552  26.724   7.110   1.478
82688W        W83553  26.041   7.069   3.112
82689W        W83554  26.153   6.430   0.242
82690W        W83555  28.670   6.188   1.052
82691W        W83556  26.274   4.980   2.938
82692W        W83557  29.047   4.910   0.419
82693W        W83558  26.792   5.967   0.890
82694W        W83559  27.891   5.349   2.971
82695W        W83560  27.782   4.977   2.515
82696W        W83561  26.342   5.349   2.544
82697W        W83562  28.552   7.237   2.373
82698W        W83563  28.343   3.871   3.367
82699W        W83564  26.007   4.021   2.954
82700W        W83565  26.346   5.044   2.007
82701W        W83566  26.715   4.858   0.129
82702W        W83567  25.518   6.617   2.674
82703W        W83568  27.103   5.326   2.117
82704W        W83569  26.926   4.351   0.222
82705W        W83570  26.061   5.167   1.003
82706W        W83571  25.832   7.019   2.440
82707W        W83572  28.627   5.245   0.548
82708W        W83573  28.722   4.161   3.234
82709W        W83574  28.158   6.370   1.197
82710W        W83575  25.756   5.294   3.374
82711W        W83576  28.722   3.758   0.670
82712W        W83577  28.242   6.233   0.681
82713W        W83578  27.144   5.291   0.766
82714W        W83579  28.331   4.095   0.289
82715W        W83580  28.396   4.702   2.475
82716W        W83581  26.105   5.295   1.682
82717W        W83582  26.399   6.234   1.331
82718W        W83583  28.162   4.854   1.296
82719W        W83584  27.185   4.233   1.992
82720W        W83585  29.147   6.144   2.503
82721W        W83586  29.065   4.131   2.064
82722W        W83587  25.604   6.961   1.440
82723W        W83588  26.113   6.148   0.976
82724W        W83589  26.028   3.765   3.529
82725W        W83590  27.147   6.618   3.631
82726W        W83591  28.902   5.586   1.421
82727W        W83592  28.256   5.763   0.301
82728W        W83593  27.551   7.284   2.513
82729W        W83594  28.408   6.006   3.550
82730W        W83595  27.223   3.716   0.830
82731W        W83596  27.936   4.585   1.689
82732W        W83597  25.622   6.172   2.021
82733W        W83598  26.875   4.134   0.662
82734W        W83599  26.679   5.618   3.511
82735W        W83600  27.673   4.599   1.225
82736W        W83601  27.878   6.009   2.347
82737W        W83602  26.032   6.614   2.782
82738W        W83603  26.623   6.597   3.505
82739W        W83604  26.474   4.394   0.519
82740W        W83605  27.991   4.536   0.844
82741W        W83606  27.949   6.644   3.081
82742W        W83607  26.634   5.236   1.680
82743W        W83608  26.289   6.934   2.545
82744W        W83609  29.034   7.051   0.146
82745W        W83610  25.897   5.723   3.142
82746W        W83611  27.892   5.985   1.830
82747W        W83612  26.328   5.634   1.072
82748W        W83613  26.699   6.641   2.467
82749W        W83614  27.077   4.060   1.508
82750W        W83615  25.688   6.044   0.438
82751W        W83616  27.207   4.995   0.308
82752W        W83617  25.853   5.544   1.327
82753W        W83618  27.143   4.186   2.791
82754W        W83619  28.815   3.895   0.218
82755W        W83620  28.908   5.641   3.317
82756W        W83621  27.562   6.898   3.469
82757W        W83622  29.120   5.992   2.991
82758W        W83623  28.528   6.790   3.602
82759W        W83624  26.267   7.246   2.080
82760W        W83625  29.126   5.868   0.954
82761W        W83626  27.656   5.135   1.467
82762W        W83627  27.423   3.747   1.357
82763W        W83628  26.482   6.731   1.194
82764W        W83629  26.981   4.472   2.419
82765W        W83630  26.681   3.841   1.888
82766W        W83631  25.744   6.663   0.436
82767W        W83632  27.560   6.027   1.154
82768W        W83633  26.435   6.822   3.033
82769W        W83634  25.912   5.645   0.729
82770W        W83635  25.797   4.188   1.728
82771W        W83636  27.345   6.153   1.785
82772W        W83637  25.597   4.007   0.805
82773W        W83638  28.261   5.213   2.732
82774W        W83639  28.138   4.599   0.304
82775W        W83640  28.655   6.271   1.952
82776W        W83641  27.316   6.755   1.783
82777W        W83642  26.728   6.859   0.694
82778W        W83643  28.010   3.762   0.124
82779W        W83644  25.810   7.022   1.865
82780W        W83645  28.007   4.780   3.500
82781W        W83646  25.990   4.310   3.499
82782W        W83647  25.721   4.910   0.832
82783W        W83648  26.412   4.899   0.557
82784W        W83649  28.175   5.226   3.374
82785W        W83650  26.518   5.507   2.083
82786W        W83651  27.992   3.793   1.203
82787W        W83652  27.123   7.224   1.706
82788W        W83653  28.337   6.686   2.643
82789W        W83654  27.921   6.835   1.754
82790W        W83655  27.940   5.815   1.348
82791W        W83656  27.402   4.040   0.419
82792W        W83657  29.083   3.668   1.141
82793W        W83658  26.771   5.303   0.304
82794W        W83659  28.937   4.640   1.294
82795W        W83660  27.629   5.810   0.171
82796W        W83661  28.565   6.010   2.919
82797W        W83662  28.219   6.711   0.386
82798W        W83663  26.834   4.386   3.292
82799W        W83664  26.654   4.970   2.533
82800W        W83665  28.746   6.465   2.810
82801W        W83666  27.846   4.415   3.187
82802W        W83667  25.690   4.886   2.964
82803W        W83668  27.450   5.363   2.690
82804W        W83669  25.807   6.121   1.347
82805W        W83670  25.954   5.418   2.237
82806W        W83671  28.271   5.704   2.587
82807W        W83672  28.043   7.084   3.398
82808W        W83673  27.939   4.823   2.951
82809W        W83674  28.216   6.877   1.356
82810W        W83675  27.218   6.597   2.679
82811W        W83676  26.703   6.952   1.948
82812W        W83677  28.508   6.123   2.367
82813W        W83678  27.558   6.195   3.504
82814W        W83679  26.163   6.148   1.843
82815W        W83680  28.509   5.907   1.488
82816W        W83681  28.150   6.973   2.239
82817W        W83682  26.128   6.702   2.109
82818W        W83683  27.149   4.754   3.319
82819W        W83684  27.600   6.920   0.830
82820W        W83685  26.908   6.175   3.468
82821W        W83686  27.034   6.413   0.845
82822W        W83687  26.255   5.153   0.104
82823W        W83688  25.594   7.239   7.003
82824W        W83689  25.970   6.132   6.526
82825W        W83690  28.675   5.862   4.296
82826W        W83691  28.805   6.947   6.323
82827W        W83692  26.723   6.938   3.849
82828W        W83693  26.806   5.090   4.832
82829W        W83694  26.321   4.938   4.996
82830W        W83695  27.312   5.753   4.430
82831W        W83696  26.987   6.845   6.785
82832W        W83697  25.636   4.406   6.748
82833W        W83698  26.398   3.686   6.550
82834W        W83699  28.092   4.074   5.437
82835W        W83700  27.741   4.945   4.007
82836W        W83701  28.311   4.379   7.098
82837W        W83702  25.677   4.171   6.223
82838W        W83703  25.776   6.790   7.244
82839W        W83704  27.298   6.180   3.976
82840W        W83705  25.730   4.963   5.669
82841W        W83706  26.623   4.854   6.906
82842W        W83707  29.082   4.713   5.405
82843W        W83708  28.846   5.756   6.264
82844W        W83709  27.154   5.089   5.291
82845W        W83710  27.700   6.428   5.660
82846W        W83711  26.200   5.862   5.892
82847W        W83712  25.559   5.390   5.463
82848W        W83713  26.595   5.362   6.655
82849W        W83714  28.866   5.145   6.909
82850W        W83715  26.482   6.589   5.354
82851W        W83716  27.603   6.278   6.488
82852W        W83717  26.823   4.918   5.713
82853W        W83718  27.115   5.702   5.356
82854W        W83719  28.112   6.475   7.204
82855W        W83720  27.191   5.795   7.214
82856W        W83721  27.172   5.511   6.692
82857W        W83722  25.581   4.902   7.214
82858W        W83723  28.413   6.437   6.813
82859W        W83724  25.994   4.019   4.811
82860W        W83725  26.521   6.277   5.810
82861W        W83726  28.984   6.060   5.100
82862W        W83727  28.397   4.460   5.667
82863W        W83728  28.682   4.413   3.762
82864W        W83729  29.147   5.214   6.068
82865W        W83730  27.114   6.921   5.821
82866W        W83731  28.888   6.387   4.259
82867W        W83732  26.017   7.173   4.013
82868W        W83733  26.410   7.219   4.689
82869W        W83734  26.207   3.973   6.115
82870W        W83735  28.830   4.991   6.390
82871W        W83736  28.235   5.413   4.849
82872W        W83737  28.201   5.101   3.876
82873W        W83738  27.409   6.245   6.016
82874W        W83739  27.215   4.575   5.215
82875W        W83740  27.815   6.662   6.209
82876W        W83741  28.686   5.453   4.631
82877W        W83742  27.588   4.111   4.647
82878W        W83743  26.245   6.805   4.330
82879W        W83744  25.616   4.304   4.929
82880W        W83745  28.402   4.911   5.403
82881W        W83746  25.860   6.528   5.318
82882W        W83747  27.201   6.878   4.188
82883W        W83748  28.593   4.904   3.652
82884W        W83749  25.616   6.662   5.816
82885W        W83750  26.407   6.234   6.296
82886W        W83751  26.780   5.594   4.915
82887W        W83752  26.802   3.999   6.008
82888W        W83753  29.031   3.761   5.305
82889W        W83754  26.250   5.633   3.773
82890W        W83755  25.905   4.666   3.952
82891W        W83756  25.967   6.622   4.746
82892W        W83757  27.098   6.105   4.994
82893W        W83758  28.430   6.964   6.708
82894W        W83759  27.356   4.606   4.392
82895W        W83760  28.739   7.004   5.164
82896W        W83761  28.416   4.857   6.762
82897W        W83762  29.129   6.513   4.896
82898W        W83763  27.756   5.805   6.380
82899W        W83764  25.522   5.356   4.586
82900W        W83765  26.633   5.771   6.159
82901W        W83766  27.837   5.035   4.537
82902W        W83767  27.714   5.525   4.641
82903W        W83768  26.057   4.945   6.115
82904W        W83769  26.042   4.821   7.037
82905W        W83770  25.932   3.738   5.196
82906W        W83771  27.700   4.085   5.757
82907W        W83772  27.348   4.270   6.920
82908W        W83773  27.703   4.419   4.098
82909W        W83774  28.886   6.812   6.852
82910W        W83775  27.853   3.893   6.891
82911W        W83776  28.872   6.194   7.013
82912W        W83777  28.302   4.361   6.609
82913W        W83778  28.102   4.299   4.879
82914W        W83779  28.495   5.433   7.283
82915W        W83780  26.235   7.009   5.269
82916W        W83781  26.893   4.726   4.255
82917W        W83782  26.462   4.010   6.919
82918W        W83783  28.514   4.494   4.600
82919W        W83784  28.881   4.976   4.545
82920W        W83785  26.624   7.193   7.016
82921W        W83786  26.550   3.729   4.251
82922W        W83787  28.871   4.263   5.286
82923W        W83788  29.021   6.512   3.731
82924W        W83789  25.928   5.715   5.433
82925W        W83790  27.845   4.302   3.663
82926W        W83791  28.979   6.634   5.383
82927W        W83792  29.018   3.828   6.133
82928W        W83793  27.463   5.040   6.687
82929W        W83794  27.556   6.379   4.390
82930W        W83795  27.956   5.673   7.130
82931W        W83796  27.630   3.650   5.439
82932W        W83797  26.242   4.553   5.502
82933W        W83798  25.796   5.753   6.276
82934W        W83799  27.655   6.946   4.982
82935W        W83800  28.849   4.543   5.854
82936W        W83801  27.486   6.890   6.621
82937W        W83802  28.829   5.949   3.826
82938W        W83803  27.264   5.432   4.887
82939W        W83804  29.116   3.943   6.628
82940W        W83805  27.265   5.778   6.222
82941W        W83806  27.482   4.664   5.667
82942W        W83807  28.334   4.962   4.505
82943W        W83808  28.621   4.695   4.147
82944W        W83809  28.430   6.735   4.536
82945W        W83810  28.264   6.338   5.332
82946W        W83811  28.160   5.417   4.310
82947W        W83812  27.593   5.627   5.296
82948W        W83813  28.474   5.415   5.363
82949W        W83814  25.849   4.430   5.787
82950W        W83815  28.627   5.482   6.614
82951W        W83816  28.978   7.100   5.760
82952W        W83817  26.908   6.544   5.162
82953W        W83818  27.915   7.077   6.486
82954W        W83819  27.909   4.407   6.250
82955W        W83820  27.116   7.115   6.311
82956W        W83821  28.813   4.069   4.777
82957W        W83822  28.604   5.388   6.078
82958W        W83823  25.587   4.709   6.116
82959W        W83824  28.447   4.504   5.134
82960W        W83825  28.858   4.655   6.911
82961W        W83826  27.743   6.354   5.129
82962W        W83827  26.999   6.945   4.742
82963W        W83828  26.114   4.125   4.000
82964W        W83829  27.218   3.779   5.810
82965W        W83830  26.246   6.899   3.658
82966W        W83831  26.620   5.365   4.409
82967W        W83832  27.274   5.994   6.722
82968W        W83833  27.104   4.352   4.712
82969W        W83834  28.460   3.949   5.140
82970W        W83835  28.180   7.231   5.468
82971W        W83836  27.592   6.879   5.808
82972W        W83837  26.988   5.916   5.769
82973W        W83838  28.758   6.639   5.895
82974W        W83839  26.452   4.142   4.664
82975W        W83840  26.974   6.439   5.624
82976W        W83841  26.457   4.370   3.689
82977W        W83842  27.258   4.979   6.083
82978W        W83843  28.106   3.845   5.953
82979W        W83844  25.526   5.688   5.838
82980W        W83845  27.230   5.506   3.996
82981W        W83846  26.498   3.821   3.766
82982W        W83847  27.236   4.902   4.817
82983W        W83848  28.206   3.878   6.516
82984W        W83849  26.794   5.890   6.625
82985W        W83850  27.598   5.672   6.842
82986W        W83851  28.215   5.702   6.735
82987W        W83852  27.499   3.842   7.240
82988W        W83853  26.721   4.458   5.633
82989W        W83854  26.147   4.414   5.031
82990W        W83855  25.933   7.126   4.707
82991W        W83856  27.265   6.456   6.832
82992W        W83857  26.300   5.941   4.191
82993W        W83858  27.980   5.326   5.412
82994W        W83859  28.260   5.125   5.811
82995W        W83860  27.465   5.799   5.745
82996W        W83861  27.935   6.173   3.877
82997W        W83862  27.607   4.194   5.205
82998W        W83863  29.086   4.472   4.473
82999W        W83864  25.580   7.061   6.504
83000W        W83865  25.997   6.287   6.036
83001W        W83866  25.564   7.133   4.268
83002W        W83867  27.463   4.403   6.074
83003W        W83868  26.826   6.426   3.923
83004W        W83869  28.731   6.808   4.109
83005W        W83870  27.706   5.461   4.123
83006W        W83871  26.549   4.652   4.640
83007W        W83872  27.381   4.562   3.692
83008W        W83873  27.965   6.127   6.870
83009W        W83874  28.318   4.033   4.487
83010W        W83875  25.648   3.881   3.935
83011W        W83876  26.934   6.200   6.225
83012W        W83877  26.733   6.116   5.317
83013W        W83878  26.475   6.068   3.715
83014W        W83879  25.716   6.309   4.483
83015W        W83880  26.220   5.379   6.925
83016W        W83881  26.924   3.939   7.111
83017W        W83882  27.633   4.081   6.467
83018W        W83883  26.828   3.849   4.748
83019W        W83884  27.887   3.926   4.253
83020W        W83885  25.832   3.858   5.830
83021W        W83886  25.880   4.821   5.200
83022W        W83887  28.569   3.929   5.606
83023W        W83888  25.991   4.427   4.420
83024W        W83889  28.562   4.115   6.036
83025W        W83890  28.958   5.318   3.721
83026W        W83891  26.250   4.076   5.540
83027W        W83892  27.364   4.648   6.480
83028W        W83893  25.512   4.338   3.958
83029W        W83894  26.298   5.727   6.519
83030W        W83895  27.656   5.125   5.698
83031W        W83896  27.523   7.204   3.994
83032W        W83897  25.669   5.711   3.691
83033W        W83898  26.404   6.122   6.817
83034W        W83899  25.925   5.289   6.448
83035W        W83900  26.916   5.394   6.242
83036W        W83901  28.684   3.753   6.504
83037W        W83902  29.082   5.363   6.495
83038W        W83903  29.070   5.563   4.181
83039W        W83904  27.933   5.895   4.280
83040W        W83905  28.407   7.195   3.975
83041W        W83906  27.584   5.185   7.117
83042W        W83907  25.914   6.152   7.157
83043W        W83908  29.120   4.074   7.109
83044W        W83909  28.838   5.002   5.730
83045W        W83910  27.146   7.132   7.207
83046W        W83911  27.001   3.761   3.934
83047W        W83912  28.540   6.360   3.877
83048W        W83913  26.309   4.453   6.763
83049W        W83914  26.743   6.447   6.625
83050W        W83915  28.869   4.438   6.423
83051W        W83916  28.080   7.097   4.391
83052W        W83917  28.319   5.716   5.758
83053W        W83918  26.569   4.132   6.425
83054W        W83919  27.038   5.201   7.182
83055W        W83920  26.541   6.380   4.376
83056W        W83921  28.296   5.878   4.640
83057W        W83922  26.064   4.504   6.364
83058W        W83923  27.393   6.566   4.828
83059W        W83924  29.143   5.126   5.009
83060W        W83925  27.365   3.759   6.728
83061W        W83926  28.145   6.464   5.807
83062W        W83927  28.448   6.808   5.515
83063W        W83928  27.667   6.610   3.943
83064W        W83929  25.677   6.502   6.785
83065W        W83930  26.420   4.494   6.023
83066W        W83931  26.390   3.842   5.133
83067W        W83932  28.011   4.684   5.825
83068W        W83933  26.809   5.855   4.025
83069W        W83934  28.807   5.797   5.524
83070W        W83935  26.134   6.555   6.947
83071W        W83936  28.521   7.237   4.744
83072W        W83937  26.620   4.257   5.189
83073W        W83938  26.389   5.750   5.279
83074W        W83939  26.702   7.161   6.029
83075W        W83940  28.769   7.257   7.061
83076W        W83941  27.928   5.445   5.994
83077W        W83942  25.777   5.243   3.909
83078W        W83943  28.911   6.901   4.606
83079W        W83944  28.748   4.225   4.225
83080W        W83945  26.887   3.744   6.628
83081W        W83946  28.593   6.546   5.086
83082W        W83947  28.622   5.102   4.991
83083W        W83948  26.739   4.775   5.207
83084W        W83949  26.984   5.037   6.531
83085W        W83950  28.095   6.190   6.394
83086W        W83951  26.745   4.644   6.506
83087W        W83952  26.724   7.110   5.122
83088W        W83953  26.041   7.069   6.756
83089W        W83954  26.153   6.430   3.886
83090W        W83955  28.670   6.188   4.696
83091W        W83956  26.274   4.980   6.582
83092W        W83957  29.047   4.910   4.063
83093W        W83958  26.792   5.967   4.534
83094W        W83959  27.891   5.349   6.615
83095W        W83960  27.782   4.977   6.159
83096W        W83961  26.342   5.349   6.188
83097W        W83962  28.552   7.237   6.017
83098W        W83963  28.343   3.871   7.011
83099W        W83964  26.007   4.021   6.598
83100W        W83965  26.346   5.044   5.651
83101W        W83966  26.715   4.858   3.773
83102W        W83967  25.518   6.617   6.318
83103W        W83968  27.103   5.326   5.761
83104W        W83969  26.926   4.351   3.866
83105W        W83970  26.061   5.167   4.647
83106W        W83971  25.832   7.019   6.084
83107W        W83972  28.627   5.245   4.192
83108W        W83973  28.722   4.161   6.878
83109W        W83974  28.158   6.370   4.841
83110W        W83975  25.756   5.294   7.018
83111W        W83976  28.722   3.758   4.314
83112W        W83977  28.242   6.233   4.325
83113W        W83978  27.144   5.291   4.410
83114W        W83979  28.331   4.095   3.933
83115W        W83980  28.396   4.702   6.119
83116W        W83981  26.105   5.295   5.326
83117W        W83982  26.399   6.234   4.975
83118W        W83983  28.162   4.854   4.940
83119W        W83984  27.185   4.233   5.636
83120W        W83985  29.147   6.144   6.147
83121W        W83986  29.065   4.131   5.708
83122W        W83987  25.604   6.961   5.084
83123W        W83988  26.113   6.148   4.620
83124W        W83989  26.028   3.765   7.173
83125W        W83990  27.147   6.618   7.275
83126W        W83991  28.902   5.586   5.065
83127W        W83992  28.256   5.763   3.945
83128W        W83993  27.551   7.284   6.157
83129W        W83994  28.408   6.006   7.194
83130W        W83995  27.223   3.716   4.474
83131W        W83996  27.936   4.585   5.333
83132W        W83997  25.622   6.172   5.665
83133W        W83998  26.875   4.134   4.306
83134W        W83999  26.679   5.618   7.155
83135W        W84000  27.673   4.599   4.869
83136W        W84001  27.878   6.009   5.991
83137W        W84002  26.032   6.614   6.426
83138W        W84003  26.623   6.597   7.149
83139W        W84004  26.474   4.394   4.163
83140W        W84005  27.991   4.536   4.488
83141W        W84006  27.949   6.644   6.725
83142W        W84007  26.634   5.236   5.324
83143W        W84008  26.289   6.934   6.189
83144W        W84009  29.034   7.051   3.790
83145W        W84010  25.897   5.723   6.786
83146W        W84011  27.892   5.985   5.474
83147W        W84012  26.328   5.634   4.716
83148W        W84013  26.699   6.641   6.111
83149W        W84014  27.077   4.060   5.152
83150W        W84015  25.688   6.044   4.082
83151W        W84016  27.207   4.995   3.952
83152W        W84017  25.853   5.544   4.971
83153W        W84018  27.143   4.186   6.435
83154W        W84019  28.815   3.895   3.862
83155W        W84020  28.908   5.641   6.961
83156W        W84021  27.562   6.898   7.113
83157W        W84022  29.120   5.992   6.635
83158W        W84023  28.528   6.790   7.246
83159W        W84024  26.267   7.246   5.724
83160W        W84025  29.126   5.868   4.598
83161W        W84026  27.656   5.135   5.111
83162W        W84027  27.423   3.747   5.001
83163W        W84028  26.482   6.731   4.838
83164W        W84029  26.981   4.472   6.063
83165W        W84030  26.681   3.841   5.532
83166W        W84031  25.744   6.663   4.080
83167W        W84032  27.560   6.027   4.798
83168W        W84033  26.435   6.822   6.677
83169W        W84034  25.912   5.645   4.373
83170W        W84035  25.797   4.188   5.372
83171W        W84036  27.345   6.153   5.429
83172W        W84037  25.597   4.007   4.449
83173W        W84038  28.261   5.213   6.376
83174W        W84039  28.138   4.599   3.948
83175W        W84040  28.655   6.271   5.596
83176W        W84041  27.316   6.755   5.427
83177W        W84042  26.728   6.859   4.338
83178W        W84043  28.010   3.762   3.768
83179W        W84044  25.810   7.022   5.509
83180W        W84045  28.007   4.780   7.144
83181W        W84046  25.990   4.310   7.143
83182W        W84047  25.721   4.910   4.476
83183W        W84048  26.412   4.899   4.201
83184W        W84049  28.175   5.226   7.018
83185W        W84050  26.518   5.507   5.727
83186W        W84051  27.992   3.793   4.847
83187W        W84052  27.123   7.224   5.350
83188W        W84053  28.337   6.686   6.287
83189W        W84054  27.921   6.835   5.398
83190W        W84055  27.940   5.815   4.992
83191W        W84056  27.402   4.040   4.063
83192W        W84057  29.083   3.668   4.785
83193W        W84058  26.771   5.303   3.948
83194W        W84059  28.937   4.640   4.938
83195W        W84060  27.629   5.810   3.815
83196W        W84061  28.565   6.010   6.563
83197W        W84062  28.219   6.711   4.030
83198W        W84063  26.834   4.386   6.936
83199W        W84064  26.654   4.970   6.177
83200W        W84065  28.746   6.465   6.454
83201W        W84066  27.846   4.415   6.831
83202W        W84067  25.690   4.886   6.608
83203W        W84068  27.450   5.363   6.334
83204W        W84069  25.807   6.121   4.991
83205W        W84070  25.954   5.418   5.881
83206W        W84071  28.271   5.704   6.231
83207W        W84072  28.043   7.084   7.042
83208W        W84073  27.939   4.823   6.595
83209W        W84074  28.216   6.877   5.000
83210W        W84075  27.218   6.597   6.323
83211W        W84076  26.703   6.952   5.592
83212W        W84077  28.508   6.123   6.011
83213W        W84078  27.558   6.195   7.148
83214W        W84079  26.163   6.148   5.487
83215W        W84080  28.509   5.907   5.132
83216W        W84081  28.150   6.973   5.883
83217W        W84082  26.128   6.702   5.753
83218W        W84083  27.149   4.754   6.963
83219W        W84084  27.600   6.920   4.474
83220W        W84085  26.908   6.175   7.112
83221W        W84086  27.034   6.413   4.489
83222W        W84087  26.255   5.153   3.748
83223W        W84088  25.594   7.239  10.648
83224W        W84089  25.970   6.132  10.171
83225W        W84090  28.675   5.862   7.941
83226W        W84091  28.805   6.947   9.968
83227W        W84092  26.723   6.938   7.494
83228W        W84093  26.806   5.090   8.477
83229W        W84094  26.321   4.938   8.641
83230W        W84095  27.312   5.753   8.075
83231W        W84096  26.987   6.845  10.430
83232W        W84097  25.636   4.406  10.393
83233W        W84098  26.398   3.686  10.195
83234W        W84099  28.092   4.074   9.082
83235W        W84100  27.741   4.945   7.652
83236W        W84101  28.311   4.379  10.743
83237W        W84102  25.677   4.171   9.868
83238W        W84103  25.776   6.790  10.889
83239W        W84104  27.298   6.180   7.621
83240W        W84105  25.730   4.963   9.314
83241W        W84106  26.623   4.854  10.551
83242W        W84107  29.082   4.713   9.050
83243W        W84108  28.846   5.756   9.909
83244W        W84109  27.154   5.089   8.936
83245W        W84110  27.700   6.428   9.305
83246W        W84111  26.200   5.862   9.537
83247W        W84112  25.559   5.390   9.108
83248W        W84113  26.595   5.362  10.300
83249W        W84114  28.866   5.145  10.554
83250W        W84115  26.482   6.589   8.999
83251W        W84116  27.603   6.278  10.133
83252W        W84117  26.823   4.918   9.358
83253W        W84118  27.115   5.702   9.001
83254W        W84119  28.112   6.475  10.849
83255W        W84120  27.191   5.795  10.859
83256W        W84121  27.172   5.511  10.337
83257W        W84122  25.581   4.902  10.859
83258W        W84123  28.413   6.437  10.458
83259W        W84124  25.994   4.019   8.456
83260W        W84125  26.521   6.277   9.455
83261W        W84126  28.984   6.060   8.745
83262W        W84127  28.397   4.460   9.312
83263W        W84128  28.682   4.413   7.407
83264W        W84129  29.147   5.214   9.713
83265W        W84130  27.114   6.921   9.466
83266W        W84131  28.888   6.387   7.904
83267W        W84132  26.017   7.173   7.658
83268W        W84133  26.410   7.219   8.334
83269W        W84134  26.207   3.973   9.760
83270W        W84135  28.830   4.991  10.035
83271W        W84136  28.235   5.413   8.494
83272W        W84137  28.201   5.101   7.521
83273W        W84138  27.409   6.245   9.661
83274W        W84139  27.215   4.575   8.860
83275W        W84140  27.815   6.662   9.854
83276W        W84141  28.686   5.453   8.276
83277W        W84142  27.588   4.111   8.292
83278W        W84143  26.245   6.805   7.975
83279W        W84144  25.616   4.304   8.574
83280W        W84145  28.402   4.911   9.048
83281W        W84146  25.860   6.528   8.963
83282W        W84147  27.201   6.878   7.833
83283W        W84148  28.593   4.904   7.297
83284W        W84149  25.616   6.662   9.461
83285W        W84150  26.407   6.234   9.941
83286W        W84151  26.780   5.594   8.560
83287W        W84152  26.802   3.999   9.653
83288W        W84153  29.031   3.761   8.950
83289W        W84154  26.250   5.633   7.418
83290W        W84155  25.905   4.666   7.597
83291W        W84156  25.967   6.622   8.391
83292W        W84157  27.098   6.105   8.639
83293W        W84158  28.430   6.964  10.353
83294W        W84159  27.356   4.606   8.037
83295W        W84160  28.739   7.004   8.809
83296W        W84161  28.416   4.857  10.407
83297W        W84162  29.129   6.513   8.541
83298W        W84163  27.756   5.805  10.025
83299W        W84164  25.522   5.356   8.231
83300W        W84165  26.633   5.771   9.804
83301W        W84166  27.837   5.035   8.182
83302W        W84167  27.714   5.525   8.286
83303W        W84168  26.057   4.945   9.760
83304W        W84169  26.042   4.821  10.682
83305W        W84170  25.932   3.738   8.841
83306W        W84171  27.700   4.085   9.402
83307W        W84172  27.348   4.270  10.565
83308W        W84173  27.703   4.419   7.743
83309W        W84174  28.886   6.812  10.497
83310W        W84175  27.853   3.893  10.536
83311W        W84176  28.872   6.194  10.658
83312W        W84177  28.302   4.361  10.254
83313W        W84178  28.102   4.299   8.524
83314W        W84179  28.495   5.433  10.928
83315W        W84180  26.235   7.009   8.914
83316W        W84181  26.893   4.726   7.900
83317W        W84182  26.462   4.010  10.564
83318W        W84183  28.514   4.494   8.245
83319W        W84184  28.881   4.976   8.190
83320W        W84185  26.624   7.193  10.661
83321W        W84186  26.550   3.729   7.896
83322W        W84187  28.871   4.263   8.931
83323W        W84188  29.021   6.512   7.376
83324W        W84189  25.928   5.715   9.078
83325W        W84190  27.845   4.302   7.308
83326W        W84191  28.979   6.634   9.028
83327W        W84192  29.018   3.828   9.778
83328W        W84193  27.463   5.040  10.332
83329W        W84194  27.556   6.379   8.035
83330W        W84195  27.956   5.673  10.775
83331W        W84196  27.630   3.650   9.084
83332W        W84197  26.242   4.553   9.147
83333W        W84198  25.796   5.753   9.921
83334W        W84199  27.655   6.946   8.627
83335W        W84200  28.849   4.543   9.499
83336W        W84201  27.486   6.890  10.266
83337W        W84202  28.829   5.949   7.471
83338W        W84203  27.264   5.432   8.532
83339W        W84204  29.116   3.943  10.273
83340W        W84205  27.265   5.778   9.867
83341W        W84206  27.482   4.664   9.312
83342W        W84207  28.334   4.962   8.150
83343W        W84208  28.621   4.695   7.792
83344W        W84209  28.430   6.735   8.181
83345W        W84210  28.264   6.338   8.977
83346W        W84211  28.160   5.417   7.955
83347W        W84212  27.593   5.627   8.941
83348W        W84213  28.474   5.415   9.008
83349W        W84214  25.849   4.430   9.432
83350W        W84215  28.627   5.482  10.259
83351W        W84216  28.978   7.100   9.405
83352W        W84217  26.908   6.544   8.807
83353W        W84218  27.915   7.077  10.131
83354W        W84219  27.909   4.407   9.895
83355W        W84220  27.116   7.115   9.956
83356W        W84221  28.813   4.069   8.422
83357W        W84222  28.604   5.388   9.723
83358W        W84223  25.587   4.709   9.761
83359W        W84224  28.447   4.504   8.779
83360W        W84225  28.858   4.655  10.556
83361W        W84226  27.743   6.354   8.774
83362W        W84227  26.999   6.945   8.387
83363W        W84228  26.114   4.125   7.645
83364W        W84229  27.218   3.779   9.455
83365W        W84230  26.246   6.899   7.303
83366W        W84231  26.620   5.365   8.054
83367W        W84232  27.274   5.994  10.367
83368W        W84233  27.104   4.352   8.357
83369W        W84234  28.460   3.949   8.785
83370W        W84235  28.180   7.231   9.113
83371W        W84236  27.592   6.879   9.453
83372W        W84237  26.988   5.916   9.414
83373W        W84238  28.758   6.639   9.540
83374W        W84239  26.452   4.142   8.309
83375W        W84240  26.974   6.439   9.269
83376W        W84241  26.457   4.370   7.334
83377W        W84242  27.258   4.979   9.728
83378W        W84243  28.106   3.845   9.598
83379W        W84244  25.526   5.688   9.483
83380W        W84245  27.230   5.506   7.641
83381W        W84246  26.498   3.821   7.411
83382W        W84247  27.236   4.902   8.462
83383W        W84248  28.206   3.878  10.161
83384W        W84249  26.794   5.890  10.270
83385W        W84250  27.598   5.672  10.487
83386W        W84251  28.215   5.702  10.380
83387W        W84252  27.499   3.842  10.885
83388W        W84253  26.721   4.458   9.278
83389W        W84254  26.147   4.414   8.676
83390W        W84255  25.933   7.126   8.352
83391W        W84256  27.265   6.456  10.477
83392W        W84257  26.300   5.941   7.836
83393W        W84258  27.980   5.326   9.057
83394W        W84259  28.260   5.125   9.456
83395W        W84260  27.465   5.799   9.390
83396W        W84261  27.935   6.173   7.522
83397W        W84262  27.607   4.194   8.850
83398W        W84263  29.086   4.472   8.118
83399W        W84264  25.580   7.061  10.149
83400W        W84265  25.997   6.287   9.681
83401W        W84266  25.564   7.133   7.913
83402W        W84267  27.463   4.403   9.719
83403W        W84268  26.826   6.426   7.568
83404W        W84269  28.731   6.808   7.754
83405W        W84270  27.706   5.461   7.768
83406W        W84271  26.549   4.652   8.285
83407W        W84272  27.381   4.562   7.337
83408W        W84273  27.965   6.127  10.515
83409W        W84274  28.318   4.033   8.132
83410W        W84275  25.648   3.881   7.580
83411W        W84276  26.934   6.200   9.870
83412W        W84277  26.733   6.116   8.962
83413W        W84278  26.475   6.068   7.360
83414W        W84279  25.716   6.309   8.128
83415W        W84280  26.220   5.379  10.570
83416W        W84281  26.924   3.939  10.756
83417W        W84282  27.633   4.081  10.112
83418W        W84283  26.828   3.849   8.393
83419W        W84284  27.887   3.926   7.898
83420W        W84285  25.832   3.858   9.475
83421W        W84286  25.880   4.821   8.845
83422W        W84287  28.569   3.929   9.251
83423W        W84288  25.991   4.427   8.065
83424W        W84289  28.562   4.115   9.681
83425W        W84290  28.958   5.318   7.366
83426W        W84291  26.250   4.076   9.185
83427W        W84292  27.364   4.648  10.125
83428W        W84293  25.512   4.338   7.603
83429W        W84294  26.298   5.727  10.164
83430W        W84295  27.656   5.125   9.343
83431W        W84296  27.523   7.204   7.639
83432W        W84297  25.669   5.711   7.336
83433W        W84298  26.404   6.122  10.462
83434W        W84299  25.925   5.289  10.093
83435W        W84300  26.916   5.394   9.887
83436W        W84301  28.684   3.753  10.149
83437W        W84302  29.082   5.363  10.140
83438W        W84303  29.070   5.563   7.826
83439W        W84304  27.933   5.895   7.925
83440W        W84305  28.407   7.195   7.620
83441W        W84306  27.584   5.185  10.762
83442W        W84307  25.914   6.152  10.802
83443W        W84308  29.120   4.074  10.754
83444W        W84309  28.838   5.002   9.375
83445W        W84310  27.146   7.132  10.852
83446W        W84311  27.001   3.761   7.579
83447W        W84312  28.540   6.360   7.522
83448W        W84313  26.309   4.453  10.408
83449W        W84314  26.743   6.447  10.270
83450W        W84315  28.869   4.438  10.068
83451W        W84316  28.080   7.097   8.036
83452W        W84317  28.319   5.716   9.403
83453W        W84318  26.569   4.132  10.070
83454W        W84319  27.038   5.201  10.827
83455W        W84320  26.541   6.380   8.021
83456W        W84321  28.296   5.878   8.285
83457W        W84322  26.064   4.504  10.009
83458W        W84323  27.393   6.566   8.473
83459W        W84324  29.143   5.126   8.654
83460W        W84325  27.365   3.759  10.373
83461W        W84326  28.145   6.464   9.452
83462W        W84327  28.448   6.808   9.160
83463W        W84328  27.667   6.610   7.588
83464W        W84329  25.677   6.502  10.430
83465W        W84330  26.420   4.494   9.668
83466W        W84331  26.390   3.842   8.778
83467W        W84332  28.011   4.684   9.470
83468W        W84333  26.809   5.855   7.670
83469W        W84334  28.807   5.797   9.169
83470W        W84335  26.134   6.555  10.592
83471W        W84336  28.521   7.237   8.389
83472W        W84337  26.620   4.257   8.834
83473W        W84338  26.389   5.750   8.924
83474W        W84339  26.702   7.161   9.674
83475W        W84340  28.769   7.257  10.706
83476W        W84341  27.928   5.445   9.639
83477W        W84342  25.777   5.243   7.554
83478W        W84343  28.911   6.901   8.251
83479W        W84344  28.748   4.225   7.870
83480W        W84345  26.887   3.744  10.273
83481W        W84346  28.593   6.546   8.731
83482W        W84347  28.622   5.102   8.636
83483W        W84348  26.739   4.775   8.852
83484W        W84349  26.984   5.037  10.176
83485W        W84350  28.095   6.190  10.039
83486W        W84351  26.745   4.644  10.151
83487W        W84352  26.724   7.110   8.767
83488W        W84353  26.041   7.069  10.401
83489W        W84354  26.153   6.430   7.531
83490W        W84355  28.670   6.188   8.341
83491W        W84356  26.274   4.980  10.227
83492W        W84357  29.047   4.910   7.708
83493W        W84358  26.792   5.967   8.179
83494W        W84359  27.891   5.349  10.260
83495W        W84360  27.782   4.977   9.804
83496W        W84361  26.342   5.349   9.833
83497W        W84362  28.552   7.237   9.662
83498W        W84363  28.343   3.871  10.656
83499W        W84364  26.007   4.021  10.243
83500W        W84365  26.346   5.044   9.296
83501W        W84366  26.715   4.858   7.418
83502W        W84367  25.518   6.617   9.963
83503W        W84368  27.103   5.326   9.406
83504W        W84369  26.926   4.351   7.511
83505W        W84370  26.061   5.167   8.292
83506W        W84371  25.832   7.019   9.729
83507W        W84372  28.627   5.245   7.837
83508W        W84373  28.722   4.161  10.523
83509W        W84374  28.158   6.370   8.486
83510W        W84375  25.756   5.294  10.663
83511W        W84376  28.722   3.758   7.959
83512W        W84377  28.242   6.233   7.970
83513W        W84378  27.144   5.291   8.055
83514W        W84379  28.396   4.702   9.764
83515W        W84380  26.105   5.295   8.971
83516W        W84381  26.399   6.234   8.620
83517W        W84382  28.162   4.854   8.585
83518W        W84383  27.185   4.233   9.281
83519W        W84384  29.147   6.144   9.792
83520W        W84385  29.065   4.131   9.353
83521W        W84386  25.604   6.961   8.729
83522W        W84387  26.113   6.148   8.265
83523W        W84388  26.028   3.765  10.818
83524W        W84389  27.147   6.618  10.920
83525W        W84390  28.902   5.586   8.710
83526W        W84391  28.256   5.763   7.590
83527W        W84392  27.551   7.284   9.802
83528W        W84393  28.408   6.006  10.839
83529W        W84394  27.223   3.716   8.119
83530W        W84395  27.936   4.585   8.978
83531W        W84396  25.622   6.172   9.310
83532W        W84397  26.875   4.134   7.951
83533W        W84398  26.679   5.618  10.800
83534W        W84399  27.673   4.599   8.514
83535W        W84400  27.878   6.009   9.636
83536W        W84401  26.032   6.614  10.071
83537W        W84402  26.623   6.597  10.794
83538W        W84403  26.474   4.394   7.808
83539W        W84404  27.991   4.536   8.133
83540W        W84405  27.949   6.644  10.370
83541W        W84406  26.634   5.236   8.969
83542W        W84407  26.289   6.934   9.834
83543W        W84408  29.034   7.051   7.435
83544W        W84409  25.897   5.723  10.431
83545W        W84410  27.892   5.985   9.119
83546W        W84411  26.328   5.634   8.361
83547W        W84412  26.699   6.641   9.756
83548W        W84413  27.077   4.060   8.797
83549W        W84414  25.688   6.044   7.727
83550W        W84415  27.207   4.995   7.597
83551W        W84416  25.853   5.544   8.616
83552W        W84417  27.143   4.186  10.080
83553W        W84418  28.815   3.895   7.507
83554W        W84419  28.908   5.641  10.606
83555W        W84420  27.562   6.898  10.758
83556W        W84421  29.120   5.992  10.280
83557W        W84422  28.528   6.790  10.891
83558W        W84423  26.267   7.246   9.369
83559W        W84424  29.126   5.868   8.243
83560W        W84425  27.656   5.135   8.756
83561W        W84426  27.423   3.747   8.646
83562W        W84427  26.482   6.731   8.483
83563W        W84428  26.981   4.472   9.708
83564W        W84429  26.681   3.841   9.177
83565W        W84430  25.744   6.663   7.725
83566W        W84431  27.560   6.027   8.443
83567W        W84432  26.435   6.822  10.322
83568W        W84433  25.912   5.645   8.018
83569W        W84434  25.797   4.188   9.017
83570W        W84435  27.345   6.153   9.074
83571W        W84436  25.597   4.007   8.094
83572W        W84437  28.261   5.213  10.021
83573W        W84438  28.138   4.599   7.593
83574W        W84439  28.655   6.271   9.241
83575W        W84440  27.316   6.755   9.072
83576W        W84441  26.728   6.859   7.983
83577W        W84442  28.010   3.762   7.413
83578W        W84443  25.810   7.022   9.154
83579W        W84444  28.007   4.780  10.789
83580W        W84445  25.990   4.310  10.788
83581W        W84446  25.721   4.910   8.121
83582W        W84447  26.412   4.899   7.846
83583W        W84448  28.175   5.226  10.663
83584W        W84449  26.518   5.507   9.372
83585W        W84450  27.992   3.793   8.492
83586W        W84451  27.123   7.224   8.995
83587W        W84452  28.337   6.686   9.932
83588W        W84453  27.921   6.835   9.043
83589W        W84454  27.940   5.815   8.637
83590W        W84455  27.402   4.040   7.708
83591W        W84456  29.083   3.668   8.430
83592W        W84457  26.771   5.303   7.593
83593W        W84458  28.937   4.640   8.583
83594W        W84459  27.629   5.810   7.460
83595W        W84460  28.565   6.010  10.208
83596W        W84461  28.219   6.711   7.675
83597W        W84462  26.834   4.386  10.581
83598W        W84463  26.654   4.970   9.822
83599W        W84464  28.746   6.465  10.099
83600W        W84465  27.846   4.415  10.476
83601W        W84466  25.690   4.886  10.253
83602W        W84467  27.450   5.363   9.979
83603W        W84468  25.807   6.121   8.636
83604W        W84469  25.954   5.418   9.526
83605W        W84470  28.271   5.704   9.876
83606W        W84471  28.043   7.084  10.687
83607W        W84472  27.939   4.823  10.240
83608W        W84473  28.216   6.877   8.645
83609W        W84474  27.218   6.597   9.968
83610W        W84475  26.703   6.952   9.237
83611W        W84476  28.508   6.123   9.656
83612W        W84477  27.558   6.195  10.793
83613W        W84478  26.163   6.148   9.132
83614W        W84479  28.509   5.907   8.777
83615W        W84480  28.150   6.973   9.528
83616W        W84481  26.128   6.702   9.398
83617W        W84482  27.149   4.754  10.608
83618W        W84483  27.600   6.920   8.119
83619W        W84484  26.908   6.175  10.757
83620W        W84485  27.034   6.413   8.134
83621W        W84486  26.255   5.153   7.393
83622W        W84487  25.594   7.239  14.292
83623W        W84488  25.970   6.132  13.815
83624W        W84489  28.675   5.862  11.585
83625W        W84490  28.805   6.947  13.612
83626W        W84491  26.723   6.938  11.138
83627W        W84492  26.806   5.090  12.121
83628W        W84493  26.321   4.938  12.285
83629W        W84494  27.312   5.753  11.719
83630W        W84495  26.987   6.845  14.074
83631W        W84496  25.636   4.406  14.037
83632W        W84497  26.398   3.686  13.839
83633W        W84498  28.092   4.074  12.726
83634W        W84499  27.741   4.945  11.296
83635W        W84500  28.311   4.379  14.387
83636W        W84501  25.677   4.171  13.512
83637W        W84502  25.776   6.790  14.533
83638W        W84503  27.298   6.180  11.265
83639W        W84504  25.730   4.963  12.958
83640W        W84505  26.623   4.854  14.195
83641W        W84506  29.082   4.713  12.694
83642W        W84507  28.846   5.756  13.553
83643W        W84508  27.154   5.089  12.580
83644W        W84509  27.700   6.428  12.949
83645W        W84510  26.200   5.862  13.181
83646W        W84511  25.559   5.390  12.752
83647W        W84512  26.595   5.362  13.944
83648W        W84513  28.866   5.145  14.198
83649W        W84514  26.482   6.589  12.643
83650W        W84515  27.603   6.278  13.777
83651W        W84516  26.823   4.918  13.002
83652W        W84517  27.115   5.702  12.645
83653W        W84518  28.112   6.475  14.493
83654W        W84519  27.191   5.795  14.503
83655W        W84520  27.172   5.511  13.981
83656W        W84521  25.581   4.902  14.503
83657W        W84522  28.413   6.437  14.102
83658W        W84523  25.994   4.019  12.100
83659W        W84524  26.521   6.277  13.099
83660W        W84525  28.984   6.060  12.389
83661W        W84526  28.397   4.460  12.956
83662W        W84527  28.682   4.413  11.051
83663W        W84528  29.147   5.214  13.357
83664W        W84529  27.114   6.921  13.110
83665W        W84530  28.888   6.387  11.548
83666W        W84531  26.017   7.173  11.302
83667W        W84532  26.410   7.219  11.978
83668W        W84533  26.207   3.973  13.404
83669W        W84534  28.830   4.991  13.679
83670W        W84535  28.235   5.413  12.138
83671W        W84536  28.201   5.101  11.165
83672W        W84537  27.409   6.245  13.305
83673W        W84538  27.215   4.575  12.504
83674W        W84539  27.815   6.662  13.498
83675W        W84540  28.686   5.453  11.920
83676W        W84541  27.588   4.111  11.936
83677W        W84542  26.245   6.805  11.619
83678W        W84543  25.616   4.304  12.218
83679W        W84544  28.402   4.911  12.692
83680W        W84545  25.860   6.528  12.607
83681W        W84546  27.201   6.878  11.477
83682W        W84547  28.593   4.904  10.941
83683W        W84548  25.616   6.662  13.105
83684W        W84549  26.407   6.234  13.585
83685W        W84550  26.780   5.594  12.204
83686W        W84551  26.802   3.999  13.297
83687W        W84552  29.031   3.761  12.594
83688W        W84553  26.250   5.633  11.062
83689W        W84554  25.905   4.666  11.241
83690W        W84555  25.967   6.622  12.035
83691W        W84556  27.098   6.105  12.283
83692W        W84557  28.430   6.964  13.997
83693W        W84558  27.356   4.606  11.681
83694W        W84559  28.739   7.004  12.453
83695W        W84560  28.416   4.857  14.051
83696W        W84561  29.129   6.513  12.185
83697W        W84562  27.756   5.805  13.669
83698W        W84563  25.522   5.356  11.875
83699W        W84564  26.633   5.771  13.448
83700W        W84565  27.837   5.035  11.826
83701W        W84566  27.714   5.525  11.930
83702W        W84567  26.057   4.945  13.404
83703W        W84568  26.042   4.821  14.326
83704W        W84569  25.932   3.738  12.485
83705W        W84570  27.700   4.085  13.046
83706W        W84571  27.348   4.270  14.209
83707W        W84572  27.703   4.419  11.387
83708W        W84573  28.886   6.812  14.141
83709W        W84574  27.853   3.893  14.180
83710W        W84575  28.872   6.194  14.302
83711W        W84576  28.302   4.361  13.898
83712W        W84577  28.102   4.299  12.168
83713W        W84578  28.495   5.433  14.572
83714W        W84579  26.235   7.009  12.558
83715W        W84580  26.893   4.726  11.544
83716W        W84581  26.462   4.010  14.208
83717W        W84582  28.514   4.494  11.889
83718W        W84583  28.881   4.976  11.834
83719W        W84584  26.624   7.193  14.305
83720W        W84585  26.550   3.729  11.540
83721W        W84586  28.871   4.263  12.575
83722W        W84587  29.021   6.512  11.020
83723W        W84588  25.928   5.715  12.722
83724W        W84589  27.845   4.302  10.952
83725W        W84590  28.979   6.634  12.672
83726W        W84591  29.018   3.828  13.422
83727W        W84592  27.463   5.040  13.976
83728W        W84593  27.556   6.379  11.679
83729W        W84594  27.956   5.673  14.419
83730W        W84595  27.630   3.650  12.728
83731W        W84596  26.242   4.553  12.791
83732W        W84597  25.796   5.753  13.565
83733W        W84598  27.655   6.946  12.271
83734W        W84599  28.849   4.543  13.143
83735W        W84600  27.486   6.890  13.910
83736W        W84601  28.829   5.949  11.115
83737W        W84602  27.264   5.432  12.176
83738W        W84603  29.116   3.943  13.917
83739W        W84604  27.265   5.778  13.511
83740W        W84605  27.482   4.664  12.956
83741W        W84606  28.334   4.962  11.794
83742W        W84607  28.621   4.695  11.436
83743W        W84608  28.430   6.735  11.825
83744W        W84609  28.264   6.338  12.621
83745W        W84610  28.160   5.417  11.599
83746W        W84611  27.593   5.627  12.585
83747W        W84612  28.474   5.415  12.652
83748W        W84613  25.849   4.430  13.076
83749W        W84614  28.627   5.482  13.903
83750W        W84615  28.978   7.100  13.049
83751W        W84616  26.908   6.544  12.451
83752W        W84617  27.915   7.077  13.775
83753W        W84618  27.909   4.407  13.539
83754W        W84619  27.116   7.115  13.600
83755W        W84620  28.813   4.069  12.066
83756W        W84621  28.604   5.388  13.367
83757W        W84622  25.587   4.709  13.405
83758W        W84623  28.447   4.504  12.423
83759W        W84624  28.858   4.655  14.200
83760W        W84625  27.743   6.354  12.418
83761W        W84626  26.999   6.945  12.031
83762W        W84627  26.114   4.125  11.289
83763W        W84628  27.218   3.779  13.099
83764W        W84629  26.246   6.899  10.947
83765W        W84630  26.620   5.365  11.698
83766W        W84631  27.274   5.994  14.011
83767W        W84632  27.104   4.352  12.001
83768W        W84633  28.460   3.949  12.429
83769W        W84634  28.180   7.231  12.757
83770W        W84635  27.592   6.879  13.097
83771W        W84636  26.988   5.916  13.058
83772W        W84637  28.758   6.639  13.184
83773W        W84638  26.452   4.142  11.953
83774W        W84639  26.974   6.439  12.913
83775W        W84640  26.457   4.370  10.978
83776W        W84641  27.258   4.979  13.372
83777W        W84642  28.106   3.845  13.242
83778W        W84643  25.526   5.688  13.127
83779W        W84644  27.230   5.506  11.285
83780W        W84645  26.498   3.821  11.055
83781W        W84646  27.236   4.902  12.106
83782W        W84647  28.206   3.878  13.805
83783W        W84648  26.794   5.890  13.914
83784W        W84649  27.598   5.672  14.131
83785W        W84650  28.215   5.702  14.024
83786W        W84651  27.499   3.842  14.529
83787W        W84652  26.721   4.458  12.922
83788W        W84653  26.147   4.414  12.320
83789W        W84654  25.933   7.126  11.996
83790W        W84655  27.265   6.456  14.121
83791W        W84656  26.300   5.941  11.480
83792W        W84657  27.980   5.326  12.701
83793W        W84658  28.260   5.125  13.100
83794W        W84659  27.465   5.799  13.034
83795W        W84660  27.935   6.173  11.166
83796W        W84661  27.607   4.194  12.494
83797W        W84662  29.086   4.472  11.762
83798W        W84663  25.580   7.061  13.793
83799W        W84664  25.997   6.287  13.325
83800W        W84665  25.564   7.133  11.557
83801W        W84666  27.463   4.403  13.363
83802W        W84667  26.826   6.426  11.212
83803W        W84668  28.731   6.808  11.398
83804W        W84669  27.706   5.461  11.412
83805W        W84670  26.549   4.652  11.929
83806W        W84671  27.381   4.562  10.981
83807W        W84672  27.965   6.127  14.159
83808W        W84673  28.318   4.033  11.776
83809W        W84674  25.648   3.881  11.224
83810W        W84675  26.934   6.200  13.514
83811W        W84676  26.733   6.116  12.606
83812W        W84677  26.475   6.068  11.004
83813W        W84678  25.716   6.309  11.772
83814W        W84679  26.220   5.379  14.214
83815W        W84680  26.924   3.939  14.400
83816W        W84681  27.633   4.081  13.756
83817W        W84682  26.828   3.849  12.037
83818W        W84683  27.887   3.926  11.542
83819W        W84684  25.832   3.858  13.119
83820W        W84685  25.880   4.821  12.489
83821W        W84686  28.569   3.929  12.895
83822W        W84687  25.991   4.427  11.709
83823W        W84688  28.562   4.115  13.325
83824W        W84689  28.958   5.318  11.010
83825W        W84690  26.250   4.076  12.829
83826W        W84691  27.364   4.648  13.769
83827W        W84692  25.512   4.338  11.247
83828W        W84693  26.298   5.727  13.808
83829W        W84694  27.656   5.125  12.987
83830W        W84695  27.523   7.204  11.283
83831W        W84696  25.669   5.711  10.980
83832W        W84697  26.404   6.122  14.106
83833W        W84698  25.925   5.289  13.737
83834W        W84699  26.916   5.394  13.531
83835W        W84700  28.684   3.753  13.793
83836W        W84701  29.082   5.363  13.784
83837W        W84702  29.070   5.563  11.470
83838W        W84703  27.933   5.895  11.569
83839W        W84704  28.407   7.195  11.264
83840W        W84705  27.584   5.185  14.406
83841W        W84706  25.914   6.152  14.446
83842W        W84707  29.120   4.074  14.398
83843W        W84708  28.838   5.002  13.019
83844W        W84709  27.146   7.132  14.496
83845W        W84710  27.001   3.761  11.223
83846W        W84711  28.540   6.360  11.166
83847W        W84712  26.309   4.453  14.052
83848W        W84713  26.743   6.447  13.914
83849W        W84714  28.869   4.438  13.712
83850W        W84715  28.080   7.097  11.680
83851W        W84716  28.319   5.716  13.047
83852W        W84717  26.569   4.132  13.714
83853W        W84718  27.038   5.201  14.471
83854W        W84719  26.541   6.380  11.665
83855W        W84720  28.296   5.878  11.929
83856W        W84721  26.064   4.504  13.653
83857W        W84722  27.393   6.566  12.117
83858W        W84723  29.143   5.126  12.298
83859W        W84724  27.365   3.759  14.017
83860W        W84725  28.145   6.464  13.096
83861W        W84726  28.448   6.808  12.804
83862W        W84727  27.667   6.610  11.232
83863W        W84728  25.677   6.502  14.074
83864W        W84729  26.420   4.494  13.312
83865W        W84730  26.390   3.842  12.422
83866W        W84731  28.011   4.684  13.114
83867W        W84732  26.809   5.855  11.314
83868W        W84733  28.807   5.797  12.813
83869W        W84734  26.134   6.555  14.236
83870W        W84735  28.521   7.237  12.033
83871W        W84736  26.620   4.257  12.478
83872W        W84737  26.389   5.750  12.568
83873W        W84738  26.702   7.161  13.318
83874W        W84739  28.769   7.257  14.350
83875W        W84740  27.928   5.445  13.283
83876W        W84741  25.777   5.243  11.198
83877W        W84742  28.911   6.901  11.895
83878W        W84743  28.748   4.225  11.514
83879W        W84744  26.887   3.744  13.917
83880W        W84745  28.593   6.546  12.375
83881W        W84746  28.622   5.102  12.280
83882W        W84747  26.739   4.775  12.496
83883W        W84748  26.984   5.037  13.820
83884W        W84749  28.095   6.190  13.683
83885W        W84750  26.745   4.644  13.795
83886W        W84751  26.724   7.110  12.411
83887W        W84752  26.041   7.069  14.045
83888W        W84753  26.153   6.430  11.175
83889W        W84754  28.670   6.188  11.985
83890W        W84755  26.274   4.980  13.871
83891W        W84756  29.047   4.910  11.352
83892W        W84757  26.792   5.967  11.823
83893W        W84758  27.891   5.349  13.904
83894W        W84759  27.782   4.977  13.448
83895W        W84760  26.342   5.349  13.477
83896W        W84761  28.552   7.237  13.306
83897W        W84762  28.343   3.871  14.300
83898W        W84763  26.007   4.021  13.887
83899W        W84764  26.346   5.044  12.940
83900W        W84765  26.715   4.858  11.062
83901W        W84766  25.518   6.617  13.607
83902W        W84767  27.103   5.326  13.050
83903W        W84768  26.926   4.351  11.155
83904W        W84769  26.061   5.167  11.936
83905W        W84770  25.832   7.019  13.373
83906W        W84771  28.627   5.245  11.481
83907W        W84772  28.722   4.161  14.167
83908W        W84773  28.158   6.370  12.130
83909W        W84774  25.756   5.294  14.307
83910W        W84775  28.722   3.758  11.603
83911W        W84776  28.242   6.233  11.614
83912W        W84777  27.144   5.291  11.699
83913W        W84778  28.331   4.095  11.222
83914W        W84779  28.396   4.702  13.408
83915W        W84780  26.105   5.295  12.615
83916W        W84781  26.399   6.234  12.264
83917W        W84782  28.162   4.854  12.229
83918W        W84783  27.185   4.233  12.925
83919W        W84784  29.147   6.144  13.436
83920W        W84785  29.065   4.131  12.997
83921W        W84786  25.604   6.961  12.373
83922W        W84787  26.113   6.148  11.909
83923W        W84788  26.028   3.765  14.462
83924W        W84789  27.147   6.618  14.564
83925W        W84790  28.902   5.586  12.354
83926W        W84791  28.256   5.763  11.234
83927W        W84792  27.551   7.284  13.446
83928W        W84793  28.408   6.006  14.483
83929W        W84794  27.223   3.716  11.763
83930W        W84795  27.936   4.585  12.622
83931W        W84796  25.622   6.172  12.954
83932W        W84797  26.875   4.134  11.595
83933W        W84798  26.679   5.618  14.444
83934W        W84799  27.673   4.599  12.158
83935W        W84800  27.878   6.009  13.280
83936W        W84801  26.032   6.614  13.715
83937W        W84802  26.623   6.597  14.438
83938W        W84803  26.474   4.394  11.452
83939W        W84804  27.991   4.536  11.777
83940W        W84805  27.949   6.644  14.014
83941W        W84806  26.634   5.236  12.613
83942W        W84807  26.289   6.934  13.478
83943W        W84808  29.034   7.051  11.079
83944W        W84809  25.897   5.723  14.075
83945W        W84810  27.892   5.985  12.763
83946W        W84811  26.328   5.634  12.005
83947W        W84812  26.699   6.641  13.400
83948W        W84813  27.077   4.060  12.441
83949W        W84814  25.688   6.044  11.371
83950W        W84815  27.207   4.995  11.241
83951W        W84816  25.853   5.544  12.260
83952W        W84817  27.143   4.186  13.724
83953W        W84818  28.815   3.895  11.151
83954W        W84819  28.908   5.641  14.250
83955W        W84820  27.562   6.898  14.402
83956W        W84821  29.120   5.992  13.924
83957W        W84822  28.528   6.790  14.535
83958W        W84823  26.267   7.246  13.013
83959W        W84824  29.126   5.868  11.887
83960W        W84825  27.656   5.135  12.400
83961W        W84826  27.423   3.747  12.290
83962W        W84827  26.482   6.731  12.127
83963W        W84828  26.981   4.472  13.352
83964W        W84829  26.681   3.841  12.821
83965W        W84830  25.744   6.663  11.369
83966W        W84831  27.560   6.027  12.087
83967W        W84832  26.435   6.822  13.966
83968W        W84833  25.912   5.645  11.662
83969W        W84834  25.797   4.188  12.661
83970W        W84835  27.345   6.153  12.718
83971W        W84836  25.597   4.007  11.738
83972W        W84837  28.261   5.213  13.665
83973W        W84838  28.138   4.599  11.237
83974W        W84839  28.655   6.271  12.885
83975W        W84840  27.316   6.755  12.716
83976W        W84841  26.728   6.859  11.627
83977W        W84842  28.010   3.762  11.057
83978W        W84843  25.810   7.022  12.798
83979W        W84844  28.007   4.780  14.433
83980W        W84845  25.990   4.310  14.432
83981W        W84846  25.721   4.910  11.765
83982W        W84847  26.412   4.899  11.490
83983W        W84848  28.175   5.226  14.307
83984W        W84849  26.518   5.507  13.016
83985W        W84850  27.992   3.793  12.136
83986W        W84851  27.123   7.224  12.639
83987W        W84852  28.337   6.686  13.576
83988W        W84853  27.921   6.835  12.687
83989W        W84854  27.940   5.815  12.281
83990W        W84855  27.402   4.040  11.352
83991W        W84856  29.083   3.668  12.074
83992W        W84857  26.771   5.303  11.237
83993W        W84858  28.937   4.640  12.227
83994W        W84859  27.629   5.810  11.104
83995W        W84860  28.565   6.010  13.852
83996W        W84861  28.219   6.711  11.319
83997W        W84862  26.834   4.386  14.225
83998W        W84863  26.654   4.970  13.466
83999W        W84864  28.746   6.465  13.743
84000W        W84865  27.846   4.415  14.120
84001W        W84866  25.690   4.886  13.897
84002W        W84867  27.450   5.363  13.623
84003W        W84868  25.807   6.121  12.280
84004W        W84869  25.954   5.418  13.170
84005W        W84870  28.271   5.704  13.520
84006W        W84871  28.043   7.084  14.331
84007W        W84872  27.939   4.823  13.884
84008W        W84873  28.216   6.877  12.289
84009W        W84874  27.218   6.597  13.612
84010W        W84875  26.703   6.952  12.881
84011W        W84876  28.508   6.123  13.300
84012W        W84877  27.558   6.195  14.437
84013W        W84878  26.163   6.148  12.776
84014W        W84879  28.509   5.907  12.421
84015W        W84880  28.150   6.973  13.172
84016W        W84881  26.128   6.702  13.042
84017W        W84882  27.149   4.754  14.252
84018W        W84883  27.600   6.920  11.763
84019W        W84884  26.908   6.175  14.401
84020W        W84885  27.034   6.413  11.778
84021W        W84886  26.255   5.153  11.037
84022W        W84887  25.594   7.239  17.936
84023W        W84888  25.970   6.132  17.459
84024W        W84889  28.675   5.862  15.229
84025W        W84890  28.805   6.947  17.256
84026W        W84891  26.723   6.938  14.782
84027W        W84892  26.806   5.090  15.765
84028W        W84893  26.321   4.938  15.929
84029W        W84894  27.312   5.753  15.363
84030W        W84895  26.987   6.845  17.718
84031W        W84896  25.636   4.406  17.681
84032W        W84897  26.398   3.686  17.483
84033W        W84898  28.092   4.074  16.370
84034W        W84899  27.741   4.945  14.940
84035W        W84900  28.311   4.379  18.031
84036W        W84901  25.677   4.171  17.156
84037W        W84902  25.776   6.790  18.177
84038W        W84903  27.298   6.180  14.909
84039W        W84904  25.730   4.963  16.602
84040W        W84905  26.623   4.854  17.839
84041W        W84906  29.082   4.713  16.338
84042W        W84907  28.846   5.756  17.197
84043W        W84908  27.154   5.089  16.224
84044W        W84909  27.700   6.428  16.593
84045W        W84910  26.200   5.862  16.825
84046W        W84911  25.559   5.390  16.396
84047W        W84912  26.595   5.362  17.588
84048W        W84913  28.866   5.145  17.842
84049W        W84914  26.482   6.589  16.287
84050W        W84915  27.603   6.278  17.421
84051W        W84916  26.823   4.918  16.646
84052W        W84917  27.115   5.702  16.289
84053W        W84918  28.112   6.475  18.137
84054W        W84919  27.191   5.795  18.147
84055W        W84920  27.172   5.511  17.625
84056W        W84921  25.581   4.902  18.147
84057W        W84922  28.413   6.437  17.746
84058W        W84923  25.994   4.019  15.744
84059W        W84924  26.521   6.277  16.743
84060W        W84925  28.984   6.060  16.033
84061W        W84926  28.397   4.460  16.600
84062W        W84927  28.682   4.413  14.695
84063W        W84928  29.147   5.214  17.001
84064W        W84929  27.114   6.921  16.754
84065W        W84930  28.888   6.387  15.192
84066W        W84931  26.017   7.173  14.946
84067W        W84932  26.410   7.219  15.622
84068W        W84933  26.207   3.973  17.048
84069W        W84934  28.830   4.991  17.323
84070W        W84935  28.235   5.413  15.782
84071W        W84936  28.201   5.101  14.809
84072W        W84937  27.409   6.245  16.949
84073W        W84938  27.215   4.575  16.148
84074W        W84939  27.815   6.662  17.142
84075W        W84940  28.686   5.453  15.564
84076W        W84941  27.588   4.111  15.580
84077W        W84942  26.245   6.805  15.263
84078W        W84943  25.616   4.304  15.862
84079W        W84944  28.402   4.911  16.336
84080W        W84945  25.860   6.528  16.251
84081W        W84946  27.201   6.878  15.121
84082W        W84947  28.593   4.904  14.585
84083W        W84948  25.616   6.662  16.749
84084W        W84949  26.407   6.234  17.229
84085W        W84950  26.780   5.594  15.848
84086W        W84951  26.802   3.999  16.941
84087W        W84952  29.031   3.761  16.238
84088W        W84953  26.250   5.633  14.706
84089W        W84954  25.905   4.666  14.885
84090W        W84955  25.967   6.622  15.679
84091W        W84956  27.098   6.105  15.927
84092W        W84957  28.430   6.964  17.641
84093W        W84958  27.356   4.606  15.325
84094W        W84959  28.739   7.004  16.097
84095W        W84960  28.416   4.857  17.695
84096W        W84961  29.129   6.513  15.829
84097W        W84962  27.756   5.805  17.313
84098W        W84963  25.522   5.356  15.519
84099W        W84964  26.633   5.771  17.092
84100W        W84965  27.837   5.035  15.470
84101W        W84966  27.714   5.525  15.574
84102W        W84967  26.057   4.945  17.048
84103W        W84968  26.042   4.821  17.970
84104W        W84969  25.932   3.738  16.129
84105W        W84970  27.700   4.085  16.690
84106W        W84971  27.348   4.270  17.853
84107W        W84972  27.703   4.419  15.031
84108W        W84973  28.886   6.812  17.785
84109W        W84974  27.853   3.893  17.824
84110W        W84975  28.872   6.194  17.946
84111W        W84976  28.302   4.361  17.542
84112W        W84977  28.102   4.299  15.812
84113W        W84978  28.495   5.433  18.216
84114W        W84979  26.235   7.009  16.202
84115W        W84980  26.893   4.726  15.188
84116W        W84981  26.462   4.010  17.852
84117W        W84982  28.514   4.494  15.533
84118W        W84983  28.881   4.976  15.478
84119W        W84984  26.624   7.193  17.949
84120W        W84985  26.550   3.729  15.184
84121W        W84986  28.871   4.263  16.219
84122W        W84987  29.021   6.512  14.664
84123W        W84988  25.928   5.715  16.366
84124W        W84989  27.845   4.302  14.596
84125W        W84990  28.979   6.634  16.316
84126W        W84991  29.018   3.828  17.066
84127W        W84992  27.463   5.040  17.620
84128W        W84993  27.556   6.379  15.323
84129W        W84994  27.956   5.673  18.063
84130W        W84995  27.630   3.650  16.372
84131W        W84996  26.242   4.553  16.435
84132W        W84997  25.796   5.753  17.209
84133W        W84998  27.655   6.946  15.915
84134W        W84999  28.849   4.543  16.787
84135W        W85000  27.486   6.890  17.554
84136W        W85001  28.829   5.949  14.759
84137W        W85002  27.264   5.432  15.820
84138W        W85003  29.116   3.943  17.561
84139W        W85004  27.265   5.778  17.155
84140W        W85005  27.482   4.664  16.600
84141W        W85006  28.334   4.962  15.438
84142W        W85007  28.621   4.695  15.080
84143W        W85008  28.430   6.735  15.469
84144W        W85009  28.264   6.338  16.265
84145W        W85010  28.160   5.417  15.243
84146W        W85011  27.593   5.627  16.229
84147W        W85012  28.474   5.415  16.296
84148W        W85013  25.849   4.430  16.720
84149W        W85014  28.627   5.482  17.547
84150W        W85015  28.978   7.100  16.693
84151W        W85016  26.908   6.544  16.095
84152W        W85017  27.915   7.077  17.419
84153W        W85018  27.909   4.407  17.183
84154W        W85019  27.116   7.115  17.244
84155W        W85020  28.813   4.069  15.710
84156W        W85021  28.604   5.388  17.011
84157W        W85022  25.587   4.709  17.049
84158W        W85023  28.447   4.504  16.067
84159W        W85024  28.858   4.655  17.844
84160W        W85025  27.743   6.354  16.062
84161W        W85026  26.999   6.945  15.675
84162W        W85027  26.114   4.125  14.933
84163W        W85028  27.218   3.779  16.743
84164W        W85029  26.246   6.899  14.591
84165W        W85030  26.620   5.365  15.342
84166W        W85031  27.274   5.994  17.655
84167W        W85032  27.104   4.352  15.645
84168W        W85033  28.460   3.949  16.073
84169W        W85034  28.180   7.231  16.401
84170W        W85035  27.592   6.879  16.741
84171W        W85036  26.988   5.916  16.702
84172W        W85037  28.758   6.639  16.828
84173W        W85038  26.452   4.142  15.597
84174W        W85039  26.974   6.439  16.557
84175W        W85040  26.457   4.370  14.622
84176W        W85041  27.258   4.979  17.016
84177W        W85042  28.106   3.845  16.886
84178W        W85043  25.526   5.688  16.771
84179W        W85044  27.230   5.506  14.929
84180W        W85045  26.498   3.821  14.699
84181W        W85046  27.236   4.902  15.750
84182W        W85047  28.206   3.878  17.449
84183W        W85048  26.794   5.890  17.558
84184W        W85049  27.598   5.672  17.775
84185W        W85050  28.215   5.702  17.668
84186W        W85051  27.499   3.842  18.173
84187W        W85052  26.721   4.458  16.566
84188W        W85053  26.147   4.414  15.964
84189W        W85054  25.933   7.126  15.640
84190W        W85055  27.265   6.456  17.765
84191W        W85056  26.300   5.941  15.124
84192W        W85057  27.980   5.326  16.345
84193W        W85058  28.260   5.125  16.744
84194W        W85059  27.465   5.799  16.678
84195W        W85060  27.935   6.173  14.810
84196W        W85061  27.607   4.194  16.138
84197W        W85062  29.086   4.472  15.406
84198W        W85063  25.580   7.061  17.437
84199W        W85064  25.997   6.287  16.969
84200W        W85065  25.564   7.133  15.201
84201W        W85066  27.463   4.403  17.007
84202W        W85067  26.826   6.426  14.856
84203W        W85068  28.731   6.808  15.042
84204W        W85069  27.706   5.461  15.056
84205W        W85070  26.549   4.652  15.573
84206W        W85071  27.381   4.562  14.625
84207W        W85072  27.965   6.127  17.803
84208W        W85073  28.318   4.033  15.420
84209W        W85074  25.648   3.881  14.868
84210W        W85075  26.934   6.200  17.158
84211W        W85076  26.733   6.116  16.250
84212W        W85077  26.475   6.068  14.648
84213W        W85078  25.716   6.309  15.416
84214W        W85079  26.220   5.379  17.858
84215W        W85080  26.924   3.939  18.044
84216W        W85081  27.633   4.081  17.400
84217W        W85082  26.828   3.849  15.681
84218W        W85083  27.887   3.926  15.186
84219W        W85084  25.832   3.858  16.763
84220W        W85085  25.880   4.821  16.133
84221W        W85086  28.569   3.929  16.539
84222W        W85087  25.991   4.427  15.353
84223W        W85088  28.562   4.115  16.969
84224W        W85089  28.958   5.318  14.654
84225W        W85090  26.250   4.076  16.473
84226W        W85091  27.364   4.648  17.413
84227W        W85092  25.512   4.338  14.891
84228W        W85093  26.298   5.727  17.452
84229W        W85094  27.656   5.125  16.631
84230W        W85095  27.523   7.204  14.927
84231W        W85096  25.669   5.711  14.624
84232W        W85097  26.404   6.122  17.750
84233W        W85098  25.925   5.289  17.381
84234W        W85099  26.916   5.394  17.175
84235W        W85100  28.684   3.753  17.437
84236W        W85101  29.082   5.363  17.428
84237W        W85102  29.070   5.563  15.114
84238W        W85103  27.933   5.895  15.213
84239W        W85104  28.407   7.195  14.908
84240W        W85105  27.584   5.185  18.050
84241W        W85106  25.914   6.152  18.090
84242W        W85107  29.120   4.074  18.042
84243W        W85108  28.838   5.002  16.663
84244W        W85109  27.146   7.132  18.140
84245W        W85110  27.001   3.761  14.867
84246W        W85111  28.540   6.360  14.810
84247W        W85112  26.309   4.453  17.696
84248W        W85113  26.743   6.447  17.558
84249W        W85114  28.869   4.438  17.356
84250W        W85115  28.080   7.097  15.324
84251W        W85116  28.319   5.716  16.691
84252W        W85117  26.569   4.132  17.358
84253W        W85118  27.038   5.201  18.115
84254W        W85119  26.541   6.380  15.309
84255W        W85120  28.296   5.878  15.573
84256W        W85121  26.064   4.504  17.297
84257W        W85122  27.393   6.566  15.761
84258W        W85123  29.143   5.126  15.942
84259W        W85124  27.365   3.759  17.661
84260W        W85125  28.145   6.464  16.740
84261W        W85126  28.448   6.808  16.448
84262W        W85127  27.667   6.610  14.876
84263W        W85128  25.677   6.502  17.718
84264W        W85129  26.420   4.494  16.956
84265W        W85130  26.390   3.842  16.066
84266W        W85131  28.011   4.684  16.758
84267W        W85132  26.809   5.855  14.958
84268W        W85133  28.807   5.797  16.457
84269W        W85134  26.134   6.555  17.880
84270W        W85135  28.521   7.237  15.677
84271W        W85136  26.620   4.257  16.122
84272W        W85137  26.389   5.750  16.212
84273W        W85138  26.702   7.161  16.962
84274W        W85139  28.769   7.257  17.994
84275W        W85140  27.928   5.445  16.927
84276W        W85141  25.777   5.243  14.842
84277W        W85142  28.911   6.901  15.539
84278W        W85143  28.748   4.225  15.158
84279W        W85144  26.887   3.744  17.561
84280W        W85145  28.593   6.546  16.019
84281W        W85146  28.622   5.102  15.924
84282W        W85147  26.739   4.775  16.140
84283W        W85148  26.984   5.037  17.464
84284W        W85149  28.095   6.190  17.327
84285W        W85150  26.745   4.644  17.439
84286W        W85151  26.724   7.110  16.055
84287W        W85152  26.041   7.069  17.689
84288W        W85153  26.153   6.430  14.819
84289W        W85154  28.670   6.188  15.629
84290W        W85155  26.274   4.980  17.515
84291W        W85156  29.047   4.910  14.996
84292W        W85157  26.792   5.967  15.467
84293W        W85158  27.891   5.349  17.548
84294W        W85159  27.782   4.977  17.092
84295W        W85160  26.342   5.349  17.121
84296W        W85161  28.552   7.237  16.950
84297W        W85162  28.343   3.871  17.944
84298W        W85163  26.007   4.021  17.531
84299W        W85164  26.346   5.044  16.584
84300W        W85165  26.715   4.858  14.706
84301W        W85166  25.518   6.617  17.251
84302W        W85167  27.103   5.326  16.694
84303W        W85168  26.926   4.351  14.799
84304W        W85169  26.061   5.167  15.580
84305W        W85170  25.832   7.019  17.017
84306W        W85171  28.627   5.245  15.125
84307W        W85172  28.722   4.161  17.811
84308W        W85173  28.158   6.370  15.774
84309W        W85174  25.756   5.294  17.951
84310W        W85175  28.722   3.758  15.247
84311W        W85176  28.242   6.233  15.258
84312W        W85177  27.144   5.291  15.343
84313W        W85178  28.331   4.095  14.866
84314W        W85179  28.396   4.702  17.052
84315W        W85180  26.105   5.295  16.259
84316W        W85181  26.399   6.234  15.908
84317W        W85182  28.162   4.854  15.873
84318W        W85183  27.185   4.233  16.569
84319W        W85184  29.147   6.144  17.080
84320W        W85185  29.065   4.131  16.641
84321W        W85186  25.604   6.961  16.017
84322W        W85187  26.113   6.148  15.553
84323W        W85188  26.028   3.765  18.106
84324W        W85189  27.147   6.618  18.208
84325W        W85190  28.902   5.586  15.998
84326W        W85191  28.256   5.763  14.878
84327W        W85192  27.551   7.284  17.090
84328W        W85193  28.408   6.006  18.127
84329W        W85194  27.223   3.716  15.407
84330W        W85195  27.936   4.585  16.266
84331W        W85196  25.622   6.172  16.598
84332W        W85197  26.875   4.134  15.239
84333W        W85198  26.679   5.618  18.088
84334W        W85199  27.673   4.599  15.802
84335W        W85200  27.878   6.009  16.924
84336W        W85201  26.032   6.614  17.359
84337W        W85202  26.623   6.597  18.082
84338W        W85203  26.474   4.394  15.096
84339W        W85204  27.991   4.536  15.421
84340W        W85205  27.949   6.644  17.658
84341W        W85206  26.634   5.236  16.257
84342W        W85207  26.289   6.934  17.122
84343W        W85208  29.034   7.051  14.723
84344W        W85209  25.897   5.723  17.719
84345W        W85210  27.892   5.985  16.407
84346W        W85211  26.328   5.634  15.649
84347W        W85212  26.699   6.641  17.044
84348W        W85213  27.077   4.060  16.085
84349W        W85214  25.688   6.044  15.015
84350W        W85215  27.207   4.995  14.885
84351W        W85216  25.853   5.544  15.904
84352W        W85217  27.143   4.186  17.368
84353W        W85218  28.815   3.895  14.795
84354W        W85219  28.908   5.641  17.894
84355W        W85220  27.562   6.898  18.046
84356W        W85221  29.120   5.992  17.568
84357W        W85222  28.528   6.790  18.179
84358W        W85223  26.267   7.246  16.657
84359W        W85224  29.126   5.868  15.531
84360W        W85225  27.656   5.135  16.044
84361W        W85226  27.423   3.747  15.934
84362W        W85227  26.482   6.731  15.771
84363W        W85228  26.981   4.472  16.996
84364W        W85229  26.681   3.841  16.465
84365W        W85230  25.744   6.663  15.013
84366W        W85231  27.560   6.027  15.731
84367W        W85232  26.435   6.822  17.610
84368W        W85233  25.912   5.645  15.306
84369W        W85234  25.797   4.188  16.305
84370W        W85235  27.345   6.153  16.362
84371W        W85236  25.597   4.007  15.382
84372W        W85237  28.261   5.213  17.309
84373W        W85238  28.138   4.599  14.881
84374W        W85239  28.655   6.271  16.529
84375W        W85240  27.316   6.755  16.360
84376W        W85241  26.728   6.859  15.271
84377W        W85242  28.010   3.762  14.701
84378W        W85243  25.810   7.022  16.442
84379W        W85244  28.007   4.780  18.077
84380W        W85245  25.990   4.310  18.076
84381W        W85246  25.721   4.910  15.409
84382W        W85247  26.412   4.899  15.134
84383W        W85248  28.175   5.226  17.951
84384W        W85249  26.518   5.507  16.660
84385W        W85250  27.992   3.793  15.780
84386W        W85251  27.123   7.224  16.283
84387W        W85252  28.337   6.686  17.220
84388W        W85253  27.921   6.835  16.331
84389W        W85254  27.940   5.815  15.925
84390W        W85255  27.402   4.040  14.996
84391W        W85256  29.083   3.668  15.718
84392W        W85257  26.771   5.303  14.881
84393W        W85258  28.937   4.640  15.871
84394W        W85259  27.629   5.810  14.748
84395W        W85260  28.565   6.010  17.496
84396W        W85261  28.219   6.711  14.963
84397W        W85262  26.834   4.386  17.869
84398W        W85263  26.654   4.970  17.110
84399W        W85264  28.746   6.465  17.387
84400W        W85265  27.846   4.415  17.764
84401W        W85266  25.690   4.886  17.541
84402W        W85267  27.450   5.363  17.267
84403W        W85268  25.807   6.121  15.924
84404W        W85269  25.954   5.418  16.814
84405W        W85270  28.271   5.704  17.164
84406W        W85271  28.043   7.084  17.975
84407W        W85272  27.939   4.823  17.528
84408W        W85273  28.216   6.877  15.933
84409W        W85274  27.218   6.597  17.256
84410W        W85275  26.703   6.952  16.525
84411W        W85276  28.508   6.123  16.944
84412W        W85277  27.558   6.195  18.081
84413W        W85278  26.163   6.148  16.420
84414W        W85279  28.509   5.907  16.065
84415W        W85280  28.150   6.973  16.816
84416W        W85281  26.128   6.702  16.686
84417W        W85282  27.149   4.754  17.896
84418W        W85283  27.600   6.920  15.407
84419W        W85284  26.908   6.175  18.045
84420W        W85285  27.034   6.413  15.422
84421W        W85286  26.255   5.153  14.681
84422W        W85287  25.594   7.239  21.580
84423W        W85288  25.970   6.132  21.103
84424W        W85289  28.675   5.862  18.873
84425W        W85290  28.805   6.947  20.900
84426W        W85291  26.723   6.938  18.426
84427W        W85292  26.806   5.090  19.409
84428W        W85293  26.321   4.938  19.573
84429W        W85294  27.312   5.753  19.007
84430W        W85295  26.987   6.845  21.362
84431W        W85296  25.636   4.406  21.325
84432W        W85297  26.398   3.686  21.127
84433W        W85298  28.092   4.074  20.014
84434W        W85299  27.741   4.945  18.584
84435W        W85300  28.311   4.379  21.675
84436W        W85301  25.677   4.171  20.800
84437W        W85302  25.776   6.790  21.821
84438W        W85303  27.298   6.180  18.553
84439W        W85304  25.730   4.963  20.246
84440W        W85305  26.623   4.854  21.483
84441W        W85306  29.082   4.713  19.982
84442W        W85307  28.846   5.756  20.841
84443W        W85308  27.154   5.089  19.868
84444W        W85309  27.700   6.428  20.237
84445W        W85310  26.200   5.862  20.469
84446W        W85311  25.559   5.390  20.040
84447W        W85312  26.595   5.362  21.232
84448W        W85313  28.866   5.145  21.486
84449W        W85314  26.482   6.589  19.931
84450W        W85315  27.603   6.278  21.065
84451W        W85316  26.823   4.918  20.290
84452W        W85317  27.115   5.702  19.933
84453W        W85318  28.112   6.475  21.781
84454W        W85319  27.191   5.795  21.791
84455W        W85320  27.172   5.511  21.269
84456W        W85321  25.581   4.902  21.791
84457W        W85322  28.413   6.437  21.390
84458W        W85323  25.994   4.019  19.388
84459W        W85324  26.521   6.277  20.387
84460W        W85325  28.984   6.060  19.677
84461W        W85326  28.397   4.460  20.244
84462W        W85327  28.682   4.413  18.339
84463W        W85328  29.147   5.214  20.645
84464W        W85329  27.114   6.921  20.398
84465W        W85330  28.888   6.387  18.836
84466W        W85331  26.017   7.173  18.590
84467W        W85332  26.410   7.219  19.266
84468W        W85333  26.207   3.973  20.692
84469W        W85334  28.830   4.991  20.967
84470W        W85335  28.235   5.413  19.426
84471W        W85336  28.201   5.101  18.453
84472W        W85337  27.409   6.245  20.593
84473W        W85338  27.215   4.575  19.792
84474W        W85339  27.815   6.662  20.786
84475W        W85340  28.686   5.453  19.208
84476W        W85341  27.588   4.111  19.224
84477W        W85342  26.245   6.805  18.907
84478W        W85343  25.616   4.304  19.506
84479W        W85344  28.402   4.911  19.980
84480W        W85345  25.860   6.528  19.895
84481W        W85346  27.201   6.878  18.765
84482W        W85347  28.593   4.904  18.229
84483W        W85348  25.616   6.662  20.393
84484W        W85349  26.407   6.234  20.873
84485W        W85350  26.780   5.594  19.492
84486W        W85351  26.802   3.999  20.585
84487W        W85352  29.031   3.761  19.882
84488W        W85353  26.250   5.633  18.350
84489W        W85354  25.905   4.666  18.529
84490W        W85355  25.967   6.622  19.323
84491W        W85356  27.098   6.105  19.571
84492W        W85357  28.430   6.964  21.285
84493W        W85358  27.356   4.606  18.969
84494W        W85359  28.739   7.004  19.741
84495W        W85360  28.416   4.857  21.339
84496W        W85361  29.129   6.513  19.473
84497W        W85362  27.756   5.805  20.957
84498W        W85363  25.522   5.356  19.163
84499W        W85364  26.633   5.771  20.736
84500W        W85365  27.837   5.035  19.114
84501W        W85366  27.714   5.525  19.218
84502W        W85367  26.057   4.945  20.692
84503W        W85368  26.042   4.821  21.614
84504W        W85369  25.932   3.738  19.773
84505W        W85370  27.700   4.085  20.334
84506W        W85371  27.348   4.270  21.497
84507W        W85372  27.703   4.419  18.675
84508W        W85373  28.886   6.812  21.429
84509W        W85374  27.853   3.893  21.468
84510W        W85375  28.872   6.194  21.590
84511W        W85376  28.302   4.361  21.186
84512W        W85377  28.102   4.299  19.456
84513W        W85378  28.495   5.433  21.860
84514W        W85379  26.235   7.009  19.846
84515W        W85380  26.893   4.726  18.832
84516W        W85381  26.462   4.010  21.496
84517W        W85382  28.514   4.494  19.177
84518W        W85383  28.881   4.976  19.122
84519W        W85384  26.624   7.193  21.593
84520W        W85385  26.550   3.729  18.828
84521W        W85386  28.871   4.263  19.863
84522W        W85387  29.021   6.512  18.308
84523W        W85388  25.928   5.715  20.010
84524W        W85389  27.845   4.302  18.240
84525W        W85390  28.979   6.634  19.960
84526W        W85391  29.018   3.828  20.710
84527W        W85392  27.463   5.040  21.264
84528W        W85393  27.556   6.379  18.967
84529W        W85394  27.956   5.673  21.707
84530W        W85395  27.630   3.650  20.016
84531W        W85396  26.242   4.553  20.079
84532W        W85397  25.796   5.753  20.853
84533W        W85398  27.655   6.946  19.559
84534W        W85399  28.849   4.543  20.431
84535W        W85400  27.486   6.890  21.198
84536W        W85401  28.829   5.949  18.403
84537W        W85402  27.264   5.432  19.464
84538W        W85403  29.116   3.943  21.205
84539W        W85404  27.265   5.778  20.799
84540W        W85405  27.482   4.664  20.244
84541W        W85406  28.334   4.962  19.082
84542W        W85407  28.621   4.695  18.724
84543W        W85408  28.430   6.735  19.113
84544W        W85409  28.264   6.338  19.909
84545W        W85410  28.160   5.417  18.887
84546W        W85411  27.593   5.627  19.873
84547W        W85412  28.474   5.415  19.940
84548W        W85413  25.849   4.430  20.364
84549W        W85414  28.627   5.482  21.191
84550W        W85415  28.978   7.100  20.337
84551W        W85416  26.908   6.544  19.739
84552W        W85417  27.915   7.077  21.063
84553W        W85418  27.909   4.407  20.827
84554W        W85419  27.116   7.115  20.888
84555W        W85420  28.813   4.069  19.354
84556W        W85421  28.604   5.388  20.655
84557W        W85422  25.587   4.709  20.693
84558W        W85423  28.447   4.504  19.711
84559W        W85424  28.858   4.655  21.488
84560W        W85425  27.743   6.354  19.706
84561W        W85426  26.999   6.945  19.319
84562W        W85427  26.114   4.125  18.577
84563W        W85428  27.218   3.779  20.387
84564W        W85429  26.246   6.899  18.235
84565W        W85430  26.620   5.365  18.986
84566W        W85431  27.274   5.994  21.299
84567W        W85432  27.104   4.352  19.289
84568W        W85433  28.460   3.949  19.717
84569W        W85434  28.180   7.231  20.045
84570W        W85435  27.592   6.879  20.385
84571W        W85436  26.988   5.916  20.346
84572W        W85437  28.758   6.639  20.472
84573W        W85438  26.452   4.142  19.241
84574W        W85439  26.974   6.439  20.201
84575W        W85440  26.457   4.370  18.266
84576W        W85441  27.258   4.979  20.660
84577W        W85442  28.106   3.845  20.530
84578W        W85443  25.526   5.688  20.415
84579W        W85444  27.230   5.506  18.573
84580W        W85445  26.498   3.821  18.343
84581W        W85446  27.236   4.902  19.394
84582W        W85447  28.206   3.878  21.093
84583W        W85448  26.794   5.890  21.202
84584W        W85449  27.598   5.672  21.419
84585W        W85450  28.215   5.702  21.312
84586W        W85451  27.499   3.842  21.817
84587W        W85452  26.721   4.458  20.210
84588W        W85453  26.147   4.414  19.608
84589W        W85454  25.933   7.126  19.284
84590W        W85455  27.265   6.456  21.409
84591W        W85456  26.300   5.941  18.768
84592W        W85457  27.980   5.326  19.989
84593W        W85458  28.260   5.125  20.388
84594W        W85459  27.465   5.799  20.322
84595W        W85460  27.935   6.173  18.454
84596W        W85461  27.607   4.194  19.782
84597W        W85462  29.086   4.472  19.050
84598W        W85463  25.580   7.061  21.081
84599W        W85464  25.997   6.287  20.613
84600W        W85465  25.564   7.133  18.845
84601W        W85466  27.463   4.403  20.651
84602W        W85467  26.826   6.426  18.500
84603W        W85468  28.731   6.808  18.686
84604W        W85469  27.706   5.461  18.700
84605W        W85470  26.549   4.652  19.217
84606W        W85471  27.381   4.562  18.269
84607W        W85472  27.965   6.127  21.447
84608W        W85473  28.318   4.033  19.064
84609W        W85474  25.648   3.881  18.512
84610W        W85475  26.934   6.200  20.802
84611W        W85476  26.733   6.116  19.894
84612W        W85477  26.475   6.068  18.292
84613W        W85478  25.716   6.309  19.060
84614W        W85479  26.220   5.379  21.502
84615W        W85480  26.924   3.939  21.688
84616W        W85481  27.633   4.081  21.044
84617W        W85482  26.828   3.849  19.325
84618W        W85483  27.887   3.926  18.830
84619W        W85484  25.832   3.858  20.407
84620W        W85485  25.880   4.821  19.777
84621W        W85486  28.569   3.929  20.183
84622W        W85487  25.991   4.427  18.997
84623W        W85488  28.562   4.115  20.613
84624W        W85489  28.958   5.318  18.298
84625W        W85490  26.250   4.076  20.117
84626W        W85491  27.364   4.648  21.057
84627W        W85492  25.512   4.338  18.535
84628W        W85493  26.298   5.727  21.096
84629W        W85494  27.656   5.125  20.275
84630W        W85495  27.523   7.204  18.571
84631W        W85496  25.669   5.711  18.268
84632W        W85497  26.404   6.122  21.394
84633W        W85498  25.925   5.289  21.025
84634W        W85499  26.916   5.394  20.819
84635W        W85500  28.684   3.753  21.081
84636W        W85501  29.082   5.363  21.072
84637W        W85502  29.070   5.563  18.758
84638W        W85503  27.933   5.895  18.857
84639W        W85504  28.407   7.195  18.552
84640W        W85505  27.584   5.185  21.694
84641W        W85506  25.914   6.152  21.734
84642W        W85507  29.120   4.074  21.686
84643W        W85508  28.838   5.002  20.307
84644W        W85509  27.146   7.132  21.784
84645W        W85510  27.001   3.761  18.511
84646W        W85511  28.540   6.360  18.454
84647W        W85512  26.309   4.453  21.340
84648W        W85513  26.743   6.447  21.202
84649W        W85514  28.869   4.438  21.000
84650W        W85515  28.080   7.097  18.968
84651W        W85516  28.319   5.716  20.335
84652W        W85517  26.569   4.132  21.002
84653W        W85518  27.038   5.201  21.759
84654W        W85519  26.541   6.380  18.953
84655W        W85520  28.296   5.878  19.217
84656W        W85521  26.064   4.504  20.941
84657W        W85522  27.393   6.566  19.405
84658W        W85523  29.143   5.126  19.586
84659W        W85524  27.365   3.759  21.305
84660W        W85525  28.145   6.464  20.384
84661W        W85526  28.448   6.808  20.092
84662W        W85527  27.667   6.610  18.520
84663W        W85528  25.677   6.502  21.362
84664W        W85529  26.420   4.494  20.600
84665W        W85530  26.390   3.842  19.710
84666W        W85531  28.011   4.684  20.402
84667W        W85532  26.809   5.855  18.602
84668W        W85533  28.807   5.797  20.101
84669W        W85534  26.134   6.555  21.524
84670W        W85535  28.521   7.237  19.321
84671W        W85536  26.620   4.257  19.766
84672W        W85537  26.389   5.750  19.856
84673W        W85538  26.702   7.161  20.606
84674W        W85539  28.769   7.257  21.638
84675W        W85540  27.928   5.445  20.571
84676W        W85541  25.777   5.243  18.486
84677W        W85542  28.911   6.901  19.183
84678W        W85543  28.748   4.225  18.802
84679W        W85544  26.887   3.744  21.205
84680W        W85545  28.593   6.546  19.663
84681W        W85546  28.622   5.102  19.568
84682W        W85547  26.739   4.775  19.784
84683W        W85548  26.984   5.037  21.108
84684W        W85549  28.095   6.190  20.971
84685W        W85550  26.745   4.644  21.083
84686W        W85551  26.724   7.110  19.699
84687W        W85552  26.041   7.069  21.333
84688W        W85553  26.153   6.430  18.463
84689W        W85554  28.670   6.188  19.273
84690W        W85555  26.274   4.980  21.159
84691W        W85556  29.047   4.910  18.640
84692W        W85557  26.792   5.967  19.111
84693W        W85558  27.891   5.349  21.192
84694W        W85559  27.782   4.977  20.736
84695W        W85560  26.342   5.349  20.765
84696W        W85561  28.552   7.237  20.594
84697W        W85562  28.343   3.871  21.588
84698W        W85563  26.007   4.021  21.175
84699W        W85564  26.346   5.044  20.228
84700W        W85565  26.715   4.858  18.350
84701W        W85566  25.518   6.617  20.895
84702W        W85567  27.103   5.326  20.338
84703W        W85568  26.926   4.351  18.443
84704W        W85569  26.061   5.167  19.224
84705W        W85570  25.832   7.019  20.661
84706W        W85571  28.627   5.245  18.769
84707W        W85572  28.722   4.161  21.455
84708W        W85573  28.158   6.370  19.418
84709W        W85574  25.756   5.294  21.595
84710W        W85575  28.722   3.758  18.891
84711W        W85576  28.242   6.233  18.902
84712W        W85577  27.144   5.291  18.987
84713W        W85578  28.331   4.095  18.510
84714W        W85579  28.396   4.702  20.696
84715W        W85580  26.105   5.295  19.903
84716W        W85581  26.399   6.234  19.552
84717W        W85582  28.162   4.854  19.517
84718W        W85583  27.185   4.233  20.213
84719W        W85584  29.147   6.144  20.724
84720W        W85585  29.065   4.131  20.285
84721W        W85586  25.604   6.961  19.661
84722W        W85587  26.113   6.148  19.197
84723W        W85588  26.028   3.765  21.750
84724W        W85589  27.147   6.618  21.852
84725W        W85590  28.902   5.586  19.642
84726W        W85591  28.256   5.763  18.522
84727W        W85592  27.551   7.284  20.734
84728W        W85593  28.408   6.006  21.771
84729W        W85594  27.223   3.716  19.051
84730W        W85595  27.936   4.585  19.910
84731W        W85596  25.622   6.172  20.242
84732W        W85597  26.875   4.134  18.883
84733W        W85598  26.679   5.618  21.732
84734W        W85599  27.673   4.599  19.446
84735W        W85600  27.878   6.009  20.568
84736W        W85601  26.032   6.614  21.003
84737W        W85602  26.623   6.597  21.726
84738W        W85603  26.474   4.394  18.740
84739W        W85604  27.991   4.536  19.065
84740W        W85605  27.949   6.644  21.302
84741W        W85606  26.634   5.236  19.901
84742W        W85607  26.289   6.934  20.766
84743W        W85608  29.034   7.051  18.367
84744W        W85609  25.897   5.723  21.363
84745W        W85610  27.892   5.985  20.051
84746W        W85611  26.328   5.634  19.293
84747W        W85612  26.699   6.641  20.688
84748W        W85613  27.077   4.060  19.729
84749W        W85614  25.688   6.044  18.659
84750W        W85615  27.207   4.995  18.529
84751W        W85616  25.853   5.544  19.548
84752W        W85617  27.143   4.186  21.012
84753W        W85618  28.815   3.895  18.439
84754W        W85619  28.908   5.641  21.538
84755W        W85620  27.562   6.898  21.690
84756W        W85621  29.120   5.992  21.212
84757W        W85622  28.528   6.790  21.823
84758W        W85623  26.267   7.246  20.301
84759W        W85624  29.126   5.868  19.175
84760W        W85625  27.656   5.135  19.688
84761W        W85626  27.423   3.747  19.578
84762W        W85627  26.482   6.731  19.415
84763W        W85628  26.981   4.472  20.640
84764W        W85629  26.681   3.841  20.109
84765W        W85630  25.744   6.663  18.657
84766W        W85631  27.560   6.027  19.375
84767W        W85632  26.435   6.822  21.254
84768W        W85633  25.912   5.645  18.950
84769W        W85634  25.797   4.188  19.949
84770W        W85635  27.345   6.153  20.006
84771W        W85636  25.597   4.007  19.026
84772W        W85637  28.261   5.213  20.953
84773W        W85638  28.138   4.599  18.525
84774W        W85639  28.655   6.271  20.173
84775W        W85640  27.316   6.755  20.004
84776W        W85641  26.728   6.859  18.915
84777W        W85642  28.010   3.762  18.345
84778W        W85643  25.810   7.022  20.086
84779W        W85644  28.007   4.780  21.721
84780W        W85645  25.990   4.310  21.720
84781W        W85646  25.721   4.910  19.053
84782W        W85647  26.412   4.899  18.778
84783W        W85648  28.175   5.226  21.595
84784W        W85649  26.518   5.507  20.304
84785W        W85650  27.992   3.793  19.424
84786W        W85651  27.123   7.224  19.927
84787W        W85652  28.337   6.686  20.864
84788W        W85653  27.921   6.835  19.975
84789W        W85654  27.940   5.815  19.569
84790W        W85655  27.402   4.040  18.640
84791W        W85656  29.083   3.668  19.362
84792W        W85657  26.771   5.303  18.525
84793W        W85658  28.937   4.640  19.515
84794W        W85659  27.629   5.810  18.392
84795W        W85660  28.565   6.010  21.140
84796W        W85661  28.219   6.711  18.607
84797W        W85662  26.834   4.386  21.513
84798W        W85663  26.654   4.970  20.754
84799W        W85664  28.746   6.465  21.031
84800W        W85665  27.846   4.415  21.408
84801W        W85666  25.690   4.886  21.185
84802W        W85667  27.450   5.363  20.911
84803W        W85668  25.807   6.121  19.568
84804W        W85669  25.954   5.418  20.458
84805W        W85670  28.271   5.704  20.808
84806W        W85671  28.043   7.084  21.619
84807W        W85672  27.939   4.823  21.172
84808W        W85673  28.216   6.877  19.577
84809W        W85674  27.218   6.597  20.900
84810W        W85675  26.703   6.952  20.169
84811W        W85676  28.508   6.123  20.588
84812W        W85677  27.558   6.195  21.725
84813W        W85678  26.163   6.148  20.064
84814W        W85679  28.509   5.907  19.709
84815W        W85680  28.150   6.973  20.460
84816W        W85681  26.128   6.702  20.330
84817W        W85682  27.149   4.754  21.540
84818W        W85683  27.600   6.920  19.051
84819W        W85684  26.908   6.175  21.689
84820W        W85685  27.034   6.413  19.066
84821W        W85686  26.255   5.153  18.325
84822W        W85687  25.594   7.239  25.225
84823W        W85688  25.970   6.132  24.748
84824W        W85689  28.675   5.862  22.518
84825W        W85690  28.805   6.947  24.545
84826W        W85691  26.723   6.938  22.071
84827W        W85692  26.806   5.090  23.054
84828W        W85693  26.321   4.938  23.218
84829W        W85694  27.312   5.753  22.652
84830W        W85695  26.987   6.845  25.007
84831W        W85696  25.636   4.406  24.970
84832W        W85697  26.398   3.686  24.772
84833W        W85698  28.092   4.074  23.659
84834W        W85699  27.741   4.945  22.229
84835W        W85700  28.311   4.379  25.320
84836W        W85701  25.677   4.171  24.445
84837W        W85702  25.776   6.790  25.466
84838W        W85703  27.298   6.180  22.198
84839W        W85704  25.730   4.963  23.891
84840W        W85705  26.623   4.854  25.128
84841W        W85706  29.082   4.713  23.627
84842W        W85707  28.846   5.756  24.486
84843W        W85708  27.154   5.089  23.513
84844W        W85709  27.700   6.428  23.882
84845W        W85710  26.200   5.862  24.114
84846W        W85711  25.559   5.390  23.685
84847W        W85712  26.595   5.362  24.877
84848W        W85713  28.866   5.145  25.131
84849W        W85714  26.482   6.589  23.576
84850W        W85715  27.603   6.278  24.710
84851W        W85716  26.823   4.918  23.935
84852W        W85717  27.115   5.702  23.578
84853W        W85718  28.112   6.475  25.426
84854W        W85719  27.191   5.795  25.436
84855W        W85720  27.172   5.511  24.914
84856W        W85721  25.581   4.902  25.436
84857W        W85722  28.413   6.437  25.035
84858W        W85723  25.994   4.019  23.033
84859W        W85724  26.521   6.277  24.032
84860W        W85725  28.984   6.060  23.322
84861W        W85726  28.397   4.460  23.889
84862W        W85727  28.682   4.413  21.984
84863W        W85728  29.147   5.214  24.290
84864W        W85729  27.114   6.921  24.043
84865W        W85730  28.888   6.387  22.481
84866W        W85731  26.017   7.173  22.235
84867W        W85732  26.410   7.219  22.911
84868W        W85733  26.207   3.973  24.337
84869W        W85734  28.830   4.991  24.612
84870W        W85735  28.235   5.413  23.071
84871W        W85736  28.201   5.101  22.098
84872W        W85737  27.409   6.245  24.238
84873W        W85738  27.215   4.575  23.437
84874W        W85739  27.815   6.662  24.431
84875W        W85740  28.686   5.453  22.853
84876W        W85741  27.588   4.111  22.869
84877W        W85742  26.245   6.805  22.552
84878W        W85743  25.616   4.304  23.151
84879W        W85744  28.402   4.911  23.625
84880W        W85745  25.860   6.528  23.540
84881W        W85746  27.201   6.878  22.410
84882W        W85747  28.593   4.904  21.874
84883W        W85748  25.616   6.662  24.038
84884W        W85749  26.407   6.234  24.518
84885W        W85750  26.780   5.594  23.137
84886W        W85751  26.802   3.999  24.230
84887W        W85752  29.031   3.761  23.527
84888W        W85753  26.250   5.633  21.995
84889W        W85754  25.905   4.666  22.174
84890W        W85755  25.967   6.622  22.968
84891W        W85756  27.098   6.105  23.216
84892W        W85757  28.430   6.964  24.930
84893W        W85758  27.356   4.606  22.614
84894W        W85759  28.739   7.004  23.386
84895W        W85760  28.416   4.857  24.984
84896W        W85761  29.129   6.513  23.118
84897W        W85762  27.756   5.805  24.602
84898W        W85763  25.522   5.356  22.808
84899W        W85764  26.633   5.771  24.381
84900W        W85765  27.837   5.035  22.759
84901W        W85766  27.714   5.525  22.863
84902W        W85767  26.057   4.945  24.337
84903W        W85768  26.042   4.821  25.259
84904W        W85769  25.932   3.738  23.418
84905W        W85770  27.700   4.085  23.979
84906W        W85771  27.348   4.270  25.142
84907W        W85772  27.703   4.419  22.320
84908W        W85773  28.886   6.812  25.074
84909W        W85774  27.853   3.893  25.113
84910W        W85775  28.872   6.194  25.235
84911W        W85776  28.302   4.361  24.831
84912W        W85777  28.102   4.299  23.101
84913W        W85778  28.495   5.433  25.505
84914W        W85779  26.235   7.009  23.491
84915W        W85780  26.893   4.726  22.477
84916W        W85781  26.462   4.010  25.141
84917W        W85782  28.514   4.494  22.822
84918W        W85783  28.881   4.976  22.767
84919W        W85784  26.624   7.193  25.238
84920W        W85785  26.550   3.729  22.473
84921W        W85786  28.871   4.263  23.508
84922W        W85787  29.021   6.512  21.953
84923W        W85788  25.928   5.715  23.655
84924W        W85789  27.845   4.302  21.885
84925W        W85790  28.979   6.634  23.605
84926W        W85791  29.018   3.828  24.355
84927W        W85792  27.463   5.040  24.909
84928W        W85793  27.556   6.379  22.612
84929W        W85794  27.956   5.673  25.352
84930W        W85795  27.630   3.650  23.661
84931W        W85796  26.242   4.553  23.724
84932W        W85797  25.796   5.753  24.498
84933W        W85798  27.655   6.946  23.204
84934W        W85799  28.849   4.543  24.076
84935W        W85800  27.486   6.890  24.843
84936W        W85801  28.829   5.949  22.048
84937W        W85802  27.264   5.432  23.109
84938W        W85803  29.116   3.943  24.850
84939W        W85804  27.265   5.778  24.444
84940W        W85805  27.482   4.664  23.889
84941W        W85806  28.334   4.962  22.727
84942W        W85807  28.621   4.695  22.369
84943W        W85808  28.430   6.735  22.758
84944W        W85809  28.264   6.338  23.554
84945W        W85810  28.160   5.417  22.532
84946W        W85811  27.593   5.627  23.518
84947W        W85812  28.474   5.415  23.585
84948W        W85813  25.849   4.430  24.009
84949W        W85814  28.627   5.482  24.836
84950W        W85815  28.978   7.100  23.982
84951W        W85816  26.908   6.544  23.384
84952W        W85817  27.915   7.077  24.708
84953W        W85818  27.909   4.407  24.472
84954W        W85819  27.116   7.115  24.533
84955W        W85820  28.813   4.069  22.999
84956W        W85821  28.604   5.388  24.300
84957W        W85822  25.587   4.709  24.338
84958W        W85823  28.447   4.504  23.356
84959W        W85824  28.858   4.655  25.133
84960W        W85825  27.743   6.354  23.351
84961W        W85826  26.999   6.945  22.964
84962W        W85827  26.114   4.125  22.222
84963W        W85828  27.218   3.779  24.032
84964W        W85829  26.246   6.899  21.880
84965W        W85830  26.620   5.365  22.631
84966W        W85831  27.274   5.994  24.944
84967W        W85832  27.104   4.352  22.934
84968W        W85833  28.460   3.949  23.362
84969W        W85834  28.180   7.231  23.690
84970W        W85835  27.592   6.879  24.030
84971W        W85836  26.988   5.916  23.991
84972W        W85837  28.758   6.639  24.117
84973W        W85838  26.452   4.142  22.886
84974W        W85839  26.974   6.439  23.846
84975W        W85840  26.457   4.370  21.911
84976W        W85841  27.258   4.979  24.305
84977W        W85842  28.106   3.845  24.175
84978W        W85843  25.526   5.688  24.060
84979W        W85844  27.230   5.506  22.218
84980W        W85845  26.498   3.821  21.988
84981W        W85846  27.236   4.902  23.039
84982W        W85847  28.206   3.878  24.738
84983W        W85848  26.794   5.890  24.847
84984W        W85849  27.598   5.672  25.064
84985W        W85850  28.215   5.702  24.957
84986W        W85851  27.499   3.842  25.462
84987W        W85852  26.721   4.458  23.855
84988W        W85853  26.147   4.414  23.253
84989W        W85854  25.933   7.126  22.929
84990W        W85855  27.265   6.456  25.054
84991W        W85856  26.300   5.941  22.413
84992W        W85857  27.980   5.326  23.634
84993W        W85858  28.260   5.125  24.033
84994W        W85859  27.465   5.799  23.967
84995W        W85860  27.935   6.173  22.099
84996W        W85861  27.607   4.194  23.427
84997W        W85862  29.086   4.472  22.695
84998W        W85863  25.580   7.061  24.726
84999W        W85864  25.997   6.287  24.258
85000W        W85865  25.564   7.133  22.490
85001W        W85866  27.463   4.403  24.296
85002W        W85867  26.826   6.426  22.145
85003W        W85868  28.731   6.808  22.331
85004W        W85869  27.706   5.461  22.345
85005W        W85870  26.549   4.652  22.862
85006W        W85871  27.381   4.562  21.914
85007W        W85872  27.965   6.127  25.092
85008W        W85873  28.318   4.033  22.709
85009W        W85874  25.648   3.881  22.157
85010W        W85875  26.934   6.200  24.447
85011W        W85876  26.733   6.116  23.539
85012W        W85877  26.475   6.068  21.937
85013W        W85878  25.716   6.309  22.705
85014W        W85879  26.220   5.379  25.147
85015W        W85880  26.924   3.939  25.333
85016W        W85881  27.633   4.081  24.689
85017W        W85882  26.828   3.849  22.970
85018W        W85883  27.887   3.926  22.475
85019W        W85884  25.832   3.858  24.052
85020W        W85885  25.880   4.821  23.422
85021W        W85886  28.569   3.929  23.828
85022W        W85887  25.991   4.427  22.642
85023W        W85888  28.562   4.115  24.258
85024W        W85889  28.958   5.318  21.943
85025W        W85890  26.250   4.076  23.762
85026W        W85891  27.364   4.648  24.702
85027W        W85892  25.512   4.338  22.180
85028W        W85893  26.298   5.727  24.741
85029W        W85894  27.656   5.125  23.920
85030W        W85895  27.523   7.204  22.216
85031W        W85896  25.669   5.711  21.913
85032W        W85897  26.404   6.122  25.039
85033W        W85898  25.925   5.289  24.670
85034W        W85899  26.916   5.394  24.464
85035W        W85900  28.684   3.753  24.726
85036W        W85901  29.082   5.363  24.717
85037W        W85902  29.070   5.563  22.403
85038W        W85903  27.933   5.895  22.502
85039W        W85904  28.407   7.195  22.197
85040W        W85905  27.584   5.185  25.339
85041W        W85906  25.914   6.152  25.379
85042W        W85907  29.120   4.074  25.331
85043W        W85908  28.838   5.002  23.952
85044W        W85909  27.146   7.132  25.429
85045W        W85910  27.001   3.761  22.156
85046W        W85911  28.540   6.360  22.099
85047W        W85912  26.309   4.453  24.985
85048W        W85913  26.743   6.447  24.847
85049W        W85914  28.869   4.438  24.645
85050W        W85915  28.080   7.097  22.613
85051W        W85916  28.319   5.716  23.980
85052W        W85917  26.569   4.132  24.647
85053W        W85918  27.038   5.201  25.404
85054W        W85919  26.541   6.380  22.598
85055W        W85920  28.296   5.878  22.862
85056W        W85921  26.064   4.504  24.586
85057W        W85922  27.393   6.566  23.050
85058W        W85923  29.143   5.126  23.231
85059W        W85924  27.365   3.759  24.950
85060W        W85925  28.145   6.464  24.029
85061W        W85926  28.448   6.808  23.737
85062W        W85927  27.667   6.610  22.165
85063W        W85928  25.677   6.502  25.007
85064W        W85929  26.420   4.494  24.245
85065W        W85930  26.390   3.842  23.355
85066W        W85931  28.011   4.684  24.047
85067W        W85932  26.809   5.855  22.247
85068W        W85933  28.807   5.797  23.746
85069W        W85934  26.134   6.555  25.169
85070W        W85935  28.521   7.237  22.966
85071W        W85936  26.620   4.257  23.411
85072W        W85937  26.389   5.750  23.501
85073W        W85938  26.702   7.161  24.251
85074W        W85939  28.769   7.257  25.283
85075W        W85940  27.928   5.445  24.216
85076W        W85941  25.777   5.243  22.131
85077W        W85942  28.911   6.901  22.828
85078W        W85943  28.748   4.225  22.447
85079W        W85944  26.887   3.744  24.850
85080W        W85945  28.593   6.546  23.308
85081W        W85946  28.622   5.102  23.213
85082W        W85947  26.739   4.775  23.429
85083W        W85948  26.984   5.037  24.753
85084W        W85949  28.095   6.190  24.616
85085W        W85950  26.745   4.644  24.728
85086W        W85951  26.724   7.110  23.344
85087W        W85952  26.041   7.069  24.978
85088W        W85953  26.153   6.430  22.108
85089W        W85954  28.670   6.188  22.918
85090W        W85955  26.274   4.980  24.804
85091W        W85956  29.047   4.910  22.285
85092W        W85957  26.792   5.967  22.756
85093W        W85958  27.891   5.349  24.837
85094W        W85959  27.782   4.977  24.381
85095W        W85960  26.342   5.349  24.410
85096W        W85961  28.552   7.237  24.239
85097W        W85962  28.343   3.871  25.233
85098W        W85963  26.007   4.021  24.820
85099W        W85964  26.346   5.044  23.873
85100W        W85965  26.715   4.858  21.995
85101W        W85966  25.518   6.617  24.540
85102W        W85967  27.103   5.326  23.983
85103W        W85968  26.926   4.351  22.088
85104W        W85969  26.061   5.167  22.869
85105W        W85970  25.832   7.019  24.306
85106W        W85971  28.627   5.245  22.414
85107W        W85972  28.722   4.161  25.100
85108W        W85973  28.158   6.370  23.063
85109W        W85974  25.756   5.294  25.240
85110W        W85975  28.722   3.758  22.536
85111W        W85976  28.242   6.233  22.547
85112W        W85977  27.144   5.291  22.632
85113W        W85978  28.331   4.095  22.155
85114W        W85979  28.396   4.702  24.341
85115W        W85980  26.105   5.295  23.548
85116W        W85981  26.399   6.234  23.197
85117W        W85982  28.162   4.854  23.162
85118W        W85983  27.185   4.233  23.858
85119W        W85984  29.147   6.144  24.369
85120W        W85985  29.065   4.131  23.930
85121W        W85986  25.604   6.961  23.306
85122W        W85987  26.113   6.148  22.842
85123W        W85988  26.028   3.765  25.395
85124W        W85989  27.147   6.618  25.497
85125W        W85990  28.902   5.586  23.287
85126W        W85991  28.256   5.763  22.167
85127W        W85992  27.551   7.284  24.379
85128W        W85993  28.408   6.006  25.416
85129W        W85994  27.223   3.716  22.696
85130W        W85995  27.936   4.585  23.555
85131W        W85996  25.622   6.172  23.887
85132W        W85997  26.875   4.134  22.528
85133W        W85998  26.679   5.618  25.377
85134W        W85999  27.673   4.599  23.091
85135W        W86000  27.878   6.009  24.213
85136W        W86001  26.032   6.614  24.648
85137W        W86002  26.623   6.597  25.371
85138W        W86003  26.474   4.394  22.385
85139W        W86004  27.991   4.536  22.710
85140W        W86005  27.949   6.644  24.947
85141W        W86006  26.634   5.236  23.546
85142W        W86007  26.289   6.934  24.411
85143W        W86008  29.034   7.051  22.012
85144W        W86009  25.897   5.723  25.008
85145W        W86010  27.892   5.985  23.696
85146W        W86011  26.328   5.634  22.938
85147W        W86012  26.699   6.641  24.333
85148W        W86013  27.077   4.060  23.374
85149W        W86014  25.688   6.044  22.304
85150W        W86015  27.207   4.995  22.174
85151W        W86016  25.853   5.544  23.193
85152W        W86017  27.143   4.186  24.657
85153W        W86018  28.815   3.895  22.084
85154W        W86019  28.908   5.641  25.183
85155W        W86020  27.562   6.898  25.335
85156W        W86021  29.120   5.992  24.857
85157W        W86022  28.528   6.790  25.468
85158W        W86023  26.267   7.246  23.946
85159W        W86024  29.126   5.868  22.820
85160W        W86025  27.656   5.135  23.333
85161W        W86026  27.423   3.747  23.223
85162W        W86027  26.482   6.731  23.060
85163W        W86028  26.981   4.472  24.285
85164W        W86029  26.681   3.841  23.754
85165W        W86030  25.744   6.663  22.302
85166W        W86031  27.560   6.027  23.020
85167W        W86032  26.435   6.822  24.899
85168W        W86033  25.912   5.645  22.595
85169W        W86034  25.797   4.188  23.594
85170W        W86035  27.345   6.153  23.651
85171W        W86036  25.597   4.007  22.671
85172W        W86037  28.261   5.213  24.598
85173W        W86038  28.138   4.599  22.170
85174W        W86039  28.655   6.271  23.818
85175W        W86040  27.316   6.755  23.649
85176W        W86041  26.728   6.859  22.560
85177W        W86042  28.010   3.762  21.990
85178W        W86043  25.810   7.022  23.731
85179W        W86044  28.007   4.780  25.366
85180W        W86045  25.990   4.310  25.365
85181W        W86046  25.721   4.910  22.698
85182W        W86047  26.412   4.899  22.423
85183W        W86048  28.175   5.226  25.240
85184W        W86049  26.518   5.507  23.949
85185W        W86050  27.992   3.793  23.069
85186W        W86051  27.123   7.224  23.572
85187W        W86052  28.337   6.686  24.509
85188W        W86053  27.921   6.835  23.620
85189W        W86054  27.940   5.815  23.214
85190W        W86055  27.402   4.040  22.285
85191W        W86056  29.083   3.668  23.007
85192W        W86057  26.771   5.303  22.170
85193W        W86058  28.937   4.640  23.160
85194W        W86059  27.629   5.810  22.037
85195W        W86060  28.565   6.010  24.785
85196W        W86061  28.219   6.711  22.252
85197W        W86062  26.834   4.386  25.158
85198W        W86063  26.654   4.970  24.399
85199W        W86064  28.746   6.465  24.676
85200W        W86065  27.846   4.415  25.053
85201W        W86066  25.690   4.886  24.830
85202W        W86067  27.450   5.363  24.556
85203W        W86068  25.807   6.121  23.213
85204W        W86069  25.954   5.418  24.103
85205W        W86070  28.271   5.704  24.453
85206W        W86071  28.043   7.084  25.264
85207W        W86072  27.939   4.823  24.817
85208W        W86073  28.216   6.877  23.222
85209W        W86074  27.218   6.597  24.545
85210W        W86075  26.703   6.952  23.814
85211W        W86076  28.508   6.123  24.233
85212W        W86077  27.558   6.195  25.370
85213W        W86078  26.163   6.148  23.709
85214W        W86079  28.509   5.907  23.354
85215W        W86080  28.150   6.973  24.105
85216W        W86081  26.128   6.702  23.975
85217W        W86082  27.149   4.754  25.185
85218W        W86083  27.600   6.920  22.696
85219W        W86084  26.908   6.175  25.334
85220W        W86085  27.034   6.413  22.711
85221W        W86086  26.255   5.153  21.970
85222W        W86087  25.594   7.239  28.869
85223W        W86088  25.970   6.132  28.392
85224W        W86089  28.675   5.862  26.162
85225W        W86090  28.805   6.947  28.189
85226W        W86091  26.723   6.938  25.715
85227W        W86092  26.806   5.090  26.698
85228W        W86093  26.321   4.938  26.862
85229W        W86094  27.312   5.753  26.296
85230W        W86095  26.987   6.845  28.651
85231W        W86096  25.636   4.406  28.614
85232W        W86097  26.398   3.686  28.416
85233W        W86098  28.092   4.074  27.303
85234W        W86099  27.741   4.945  25.873
85235W        W86100  28.311   4.379  28.964
85236W        W86101  25.677   4.171  28.089
85237W        W86102  25.776   6.790  29.110
85238W        W86103  27.298   6.180  25.842
85239W        W86104  25.730   4.963  27.535
85240W        W86105  26.623   4.854  28.772
85241W        W86106  29.082   4.713  27.271
85242W        W86107  28.846   5.756  28.130
85243W        W86108  27.154   5.089  27.157
85244W        W86109  27.700   6.428  27.526
85245W        W86110  26.200   5.862  27.758
85246W        W86111  25.559   5.390  27.329
85247W        W86112  26.595   5.362  28.521
85248W        W86113  28.866   5.145  28.775
85249W        W86114  26.482   6.589  27.220
85250W        W86115  27.603   6.278  28.354
85251W        W86116  26.823   4.918  27.579
85252W        W86117  27.115   5.702  27.222
85253W        W86118  28.112   6.475  29.070
85254W        W86119  27.191   5.795  29.080
85255W        W86120  27.172   5.511  28.558
85256W        W86121  25.581   4.902  29.080
85257W        W86122  28.413   6.437  28.679
85258W        W86123  25.994   4.019  26.677
85259W        W86124  26.521   6.277  27.676
85260W        W86125  28.984   6.060  26.966
85261W        W86126  28.397   4.460  27.533
85262W        W86127  28.682   4.413  25.628
85263W        W86128  29.147   5.214  27.934
85264W        W86129  27.114   6.921  27.687
85265W        W86130  28.888   6.387  26.125
85266W        W86131  26.017   7.173  25.879
85267W        W86132  26.410   7.219  26.555
85268W        W86133  26.207   3.973  27.981
85269W        W86134  28.830   4.991  28.256
85270W        W86135  28.235   5.413  26.715
85271W        W86136  28.201   5.101  25.742
85272W        W86137  27.409   6.245  27.882
85273W        W86138  27.215   4.575  27.081
85274W        W86139  27.815   6.662  28.075
85275W        W86140  28.686   5.453  26.497
85276W        W86141  27.588   4.111  26.513
85277W        W86142  26.245   6.805  26.196
85278W        W86143  25.616   4.304  26.795
85279W        W86144  28.402   4.911  27.269
85280W        W86145  25.860   6.528  27.184
85281W        W86146  27.201   6.878  26.054
85282W        W86147  28.593   4.904  25.518
85283W        W86148  25.616   6.662  27.682
85284W        W86149  26.407   6.234  28.162
85285W        W86150  26.780   5.594  26.781
85286W        W86151  26.802   3.999  27.874
85287W        W86152  29.031   3.761  27.171
85288W        W86153  26.250   5.633  25.639
85289W        W86154  25.905   4.666  25.818
85290W        W86155  25.967   6.622  26.612
85291W        W86156  27.098   6.105  26.860
85292W        W86157  28.430   6.964  28.574
85293W        W86158  27.356   4.606  26.258
85294W        W86159  28.739   7.004  27.030
85295W        W86160  28.416   4.857  28.628
85296W        W86161  29.129   6.513  26.762
85297W        W86162  27.756   5.805  28.246
85298W        W86163  25.522   5.356  26.452
85299W        W86164  26.633   5.771  28.025
85300W        W86165  27.837   5.035  26.403
85301W        W86166  27.714   5.525  26.507
85302W        W86167  26.057   4.945  27.981
85303W        W86168  26.042   4.821  28.903
85304W        W86169  25.932   3.738  27.062
85305W        W86170  27.700   4.085  27.623
85306W        W86171  27.348   4.270  28.786
85307W        W86172  27.703   4.419  25.964
85308W        W86173  28.886   6.812  28.718
85309W        W86174  27.853   3.893  28.757
85310W        W86175  28.872   6.194  28.879
85311W        W86176  28.302   4.361  28.475
85312W        W86177  28.102   4.299  26.745
85313W        W86178  28.495   5.433  29.149
85314W        W86179  26.235   7.009  27.135
85315W        W86180  26.893   4.726  26.121
85316W        W86181  26.462   4.010  28.785
85317W        W86182  28.514   4.494  26.466
85318W        W86183  28.881   4.976  26.411
85319W        W86184  26.624   7.193  28.882
85320W        W86185  26.550   3.729  26.117
85321W        W86186  28.871   4.263  27.152
85322W        W86187  29.021   6.512  25.597
85323W        W86188  25.928   5.715  27.299
85324W        W86189  27.845   4.302  25.529
85325W        W86190  28.979   6.634  27.249
85326W        W86191  29.018   3.828  27.999
85327W        W86192  27.463   5.040  28.553
85328W        W86193  27.556   6.379  26.256
85329W        W86194  27.956   5.673  28.996
85330W        W86195  27.630   3.650  27.305
85331W        W86196  26.242   4.553  27.368
85332W        W86197  25.796   5.753  28.142
85333W        W86198  27.655   6.946  26.848
85334W        W86199  28.849   4.543  27.720
85335W        W86200  27.486   6.890  28.487
85336W        W86201  28.829   5.949  25.692
85337W        W86202  27.264   5.432  26.753
85338W        W86203  29.116   3.943  28.494
85339W        W86204  27.265   5.778  28.088
85340W        W86205  27.482   4.664  27.533
85341W        W86206  28.334   4.962  26.371
85342W        W86207  28.621   4.695  26.013
85343W        W86208  28.430   6.735  26.402
85344W        W86209  28.264   6.338  27.198
85345W        W86210  28.160   5.417  26.176
85346W        W86211  27.593   5.627  27.162
85347W        W86212  28.474   5.415  27.229
85348W        W86213  25.849   4.430  27.653
85349W        W86214  28.627   5.482  28.480
85350W        W86215  28.978   7.100  27.626
85351W        W86216  26.908   6.544  27.028
85352W        W86217  27.915   7.077  28.352
85353W        W86218  27.909   4.407  28.116
85354W        W86219  27.116   7.115  28.177
85355W        W86220  28.813   4.069  26.643
85356W        W86221  28.604   5.388  27.944
85357W        W86222  25.587   4.709  27.982
85358W        W86223  28.447   4.504  27.000
85359W        W86224  28.858   4.655  28.777
85360W        W86225  27.743   6.354  26.995
85361W        W86226  26.999   6.945  26.608
85362W        W86227  26.114   4.125  25.866
85363W        W86228  27.218   3.779  27.676
85364W        W86229  26.246   6.899  25.524
85365W        W86230  26.620   5.365  26.275
85366W        W86231  27.274   5.994  28.588
85367W        W86232  27.104   4.352  26.578
85368W        W86233  28.460   3.949  27.006
85369W        W86234  28.180   7.231  27.334
85370W        W86235  27.592   6.879  27.674
85371W        W86236  26.988   5.916  27.635
85372W        W86237  28.758   6.639  27.761
85373W        W86238  26.452   4.142  26.530
85374W        W86239  26.974   6.439  27.490
85375W        W86240  26.457   4.370  25.555
85376W        W86241  27.258   4.979  27.949
85377W        W86242  28.106   3.845  27.819
85378W        W86243  25.526   5.688  27.704
85379W        W86244  27.230   5.506  25.862
85380W        W86245  26.498   3.821  25.632
85381W        W86246  27.236   4.902  26.683
85382W        W86247  28.206   3.878  28.382
85383W        W86248  26.794   5.890  28.491
85384W        W86249  27.598   5.672  28.708
85385W        W86250  28.215   5.702  28.601
85386W        W86251  27.499   3.842  29.106
85387W        W86252  26.721   4.458  27.499
85388W        W86253  26.147   4.414  26.897
85389W        W86254  25.933   7.126  26.573
85390W        W86255  27.265   6.456  28.698
85391W        W86256  26.300   5.941  26.057
85392W        W86257  27.980   5.326  27.278
85393W        W86258  28.260   5.125  27.677
85394W        W86259  27.465   5.799  27.611
85395W        W86260  27.935   6.173  25.743
85396W        W86261  27.607   4.194  27.071
85397W        W86262  29.086   4.472  26.339
85398W        W86263  25.580   7.061  28.370
85399W        W86264  25.997   6.287  27.902
85400W        W86265  25.564   7.133  26.134
85401W        W86266  27.463   4.403  27.940
85402W        W86267  26.826   6.426  25.789
85403W        W86268  28.731   6.808  25.975
85404W        W86269  27.706   5.461  25.989
85405W        W86270  26.549   4.652  26.506
85406W        W86271  27.381   4.562  25.558
85407W        W86272  27.965   6.127  28.736
85408W        W86273  28.318   4.033  26.353
85409W        W86274  25.648   3.881  25.801
85410W        W86275  26.934   6.200  28.091
85411W        W86276  26.733   6.116  27.183
85412W        W86277  26.475   6.068  25.581
85413W        W86278  25.716   6.309  26.349
85414W        W86279  26.220   5.379  28.791
85415W        W86280  26.924   3.939  28.977
85416W        W86281  27.633   4.081  28.333
85417W        W86282  26.828   3.849  26.614
85418W        W86283  27.887   3.926  26.119
85419W        W86284  25.832   3.858  27.696
85420W        W86285  25.880   4.821  27.066
85421W        W86286  28.569   3.929  27.472
85422W        W86287  25.991   4.427  26.286
85423W        W86288  28.562   4.115  27.902
85424W        W86289  28.958   5.318  25.587
85425W        W86290  26.250   4.076  27.406
85426W        W86291  27.364   4.648  28.346
85427W        W86292  25.512   4.338  25.824
85428W        W86293  26.298   5.727  28.385
85429W        W86294  27.656   5.125  27.564
85430W        W86295  27.523   7.204  25.860
85431W        W86296  25.669   5.711  25.557
85432W        W86297  26.404   6.122  28.683
85433W        W86298  25.925   5.289  28.314
85434W        W86299  26.916   5.394  28.108
85435W        W86300  28.684   3.753  28.370
85436W        W86301  29.082   5.363  28.361
85437W        W86302  29.070   5.563  26.047
85438W        W86303  27.933   5.895  26.146
85439W        W86304  28.407   7.195  25.841
85440W        W86305  27.584   5.185  28.983
85441W        W86306  25.914   6.152  29.023
85442W        W86307  29.120   4.074  28.975
85443W        W86308  28.838   5.002  27.596
85444W        W86309  27.146   7.132  29.073
85445W        W86310  27.001   3.761  25.800
85446W        W86311  28.540   6.360  25.743
85447W        W86312  26.309   4.453  28.629
85448W        W86313  26.743   6.447  28.491
85449W        W86314  28.869   4.438  28.289
85450W        W86315  28.080   7.097  26.257
85451W        W86316  28.319   5.716  27.624
85452W        W86317  26.569   4.132  28.291
85453W        W86318  27.038   5.201  29.048
85454W        W86319  26.541   6.380  26.242
85455W        W86320  28.296   5.878  26.506
85456W        W86321  26.064   4.504  28.230
85457W        W86322  27.393   6.566  26.694
85458W        W86323  29.143   5.126  26.875
85459W        W86324  27.365   3.759  28.594
85460W        W86325  28.145   6.464  27.673
85461W        W86326  28.448   6.808  27.381
85462W        W86327  27.667   6.610  25.809
85463W        W86328  25.677   6.502  28.651
85464W        W86329  26.420   4.494  27.889
85465W        W86330  26.390   3.842  26.999
85466W        W86331  28.011   4.684  27.691
85467W        W86332  26.809   5.855  25.891
85468W        W86333  28.807   5.797  27.390
85469W        W86334  26.134   6.555  28.813
85470W        W86335  28.521   7.237  26.610
85471W        W86336  26.620   4.257  27.055
85472W        W86337  26.389   5.750  27.145
85473W        W86338  26.702   7.161  27.895
85474W        W86339  28.769   7.257  28.927
85475W        W86340  27.928   5.445  27.860
85476W        W86341  25.777   5.243  25.775
85477W        W86342  28.911   6.901  26.472
85478W        W86343  28.748   4.225  26.091
85479W        W86344  26.887   3.744  28.494
85480W        W86345  28.593   6.546  26.952
85481W        W86346  28.622   5.102  26.857
85482W        W86347  26.739   4.775  27.073
85483W        W86348  26.984   5.037  28.397
85484W        W86349  28.095   6.190  28.260
85485W        W86350  26.745   4.644  28.372
85486W        W86351  26.724   7.110  26.988
85487W        W86352  26.041   7.069  28.622
85488W        W86353  26.153   6.430  25.752
85489W        W86354  28.670   6.188  26.562
85490W        W86355  26.274   4.980  28.448
85491W        W86356  29.047   4.910  25.929
85492W        W86357  26.792   5.967  26.400
85493W        W86358  27.891   5.349  28.481
85494W        W86359  27.782   4.977  28.025
85495W        W86360  26.342   5.349  28.054
85496W        W86361  28.552   7.237  27.883
85497W        W86362  28.343   3.871  28.877
85498W        W86363  26.007   4.021  28.464
85499W        W86364  26.346   5.044  27.517
85500W        W86365  26.715   4.858  25.639
85501W        W86366  25.518   6.617  28.184
85502W        W86367  27.103   5.326  27.627
85503W        W86368  26.926   4.351  25.732
85504W        W86369  26.061   5.167  26.513
85505W        W86370  25.832   7.019  27.950
85506W        W86371  28.627   5.245  26.058
85507W        W86372  28.722   4.161  28.744
85508W        W86373  28.158   6.370  26.707
85509W        W86374  25.756   5.294  28.884
85510W        W86375  28.722   3.758  26.180
85511W        W86376  28.242   6.233  26.191
85512W        W86377  27.144   5.291  26.276
85513W        W86378  28.331   4.095  25.799
85514W        W86379  28.396   4.702  27.985
85515W        W86380  26.105   5.295  27.192
85516W        W86381  26.399   6.234  26.841
85517W        W86382  28.162   4.854  26.806
85518W        W86383  27.185   4.233  27.502
85519W        W86384  29.147   6.144  28.013
85520W        W86385  29.065   4.131  27.574
85521W        W86386  25.604   6.961  26.950
85522W        W86387  26.113   6.148  26.486
85523W        W86388  26.028   3.765  29.039
85524W        W86389  27.147   6.618  29.141
85525W        W86390  28.902   5.586  26.931
85526W        W86391  28.256   5.763  25.811
85527W        W86392  27.551   7.284  28.023
85528W        W86393  28.408   6.006  29.060
85529W        W86394  27.223   3.716  26.340
85530W        W86395  27.936   4.585  27.199
85531W        W86396  25.622   6.172  27.531
85532W        W86397  26.875   4.134  26.172
85533W        W86398  26.679   5.618  29.021
85534W        W86399  27.673   4.599  26.735
85535W        W86400  27.878   6.009  27.857
85536W        W86401  26.032   6.614  28.292
85537W        W86402  26.623   6.597  29.015
85538W        W86403  26.474   4.394  26.029
85539W        W86404  27.991   4.536  26.354
85540W        W86405  27.949   6.644  28.591
85541W        W86406  26.634   5.236  27.190
85542W        W86407  26.289   6.934  28.055
85543W        W86408  29.034   7.051  25.656
85544W        W86409  25.897   5.723  28.652
85545W        W86410  27.892   5.985  27.340
85546W        W86411  26.328   5.634  26.582
85547W        W86412  26.699   6.641  27.977
85548W        W86413  27.077   4.060  27.018
85549W        W86414  25.688   6.044  25.948
85550W        W86415  27.207   4.995  25.818
85551W        W86416  25.853   5.544  26.837
85552W        W86417  27.143   4.186  28.301
85553W        W86418  28.815   3.895  25.728
85554W        W86419  28.908   5.641  28.827
85555W        W86420  27.562   6.898  28.979
85556W        W86421  29.120   5.992  28.501
85557W        W86422  28.528   6.790  29.112
85558W        W86423  26.267   7.246  27.590
85559W        W86424  29.126   5.868  26.464
85560W        W86425  27.656   5.135  26.977
85561W        W86426  27.423   3.747  26.867
85562W        W86427  26.482   6.731  26.704
85563W        W86428  26.981   4.472  27.929
85564W        W86429  26.681   3.841  27.398
85565W        W86430  25.744   6.663  25.946
85566W        W86431  27.560   6.027  26.664
85567W        W86432  26.435   6.822  28.543
85568W        W86433  25.912   5.645  26.239
85569W        W86434  25.797   4.188  27.238
85570W        W86435  27.345   6.153  27.295
85571W        W86436  25.597   4.007  26.315
85572W        W86437  28.261   5.213  28.242
85573W        W86438  28.138   4.599  25.814
85574W        W86439  28.655   6.271  27.462
85575W        W86440  27.316   6.755  27.293
85576W        W86441  26.728   6.859  26.204
85577W        W86442  28.010   3.762  25.634
85578W        W86443  25.810   7.022  27.375
85579W        W86444  28.007   4.780  29.010
85580W        W86445  25.990   4.310  29.009
85581W        W86446  25.721   4.910  26.342
85582W        W86447  26.412   4.899  26.067
85583W        W86448  28.175   5.226  28.884
85584W        W86449  26.518   5.507  27.593
85585W        W86450  27.992   3.793  26.713
85586W        W86451  27.123   7.224  27.216
85587W        W86452  28.337   6.686  28.153
85588W        W86453  27.921   6.835  27.264
85589W        W86454  27.940   5.815  26.858
85590W        W86455  27.402   4.040  25.929
85591W        W86456  29.083   3.668  26.651
85592W        W86457  26.771   5.303  25.814
85593W        W86458  28.937   4.640  26.804
85594W        W86459  27.629   5.810  25.681
85595W        W86460  28.565   6.010  28.429
85596W        W86461  28.219   6.711  25.896
85597W        W86462  26.834   4.386  28.802
85598W        W86463  26.654   4.970  28.043
85599W        W86464  28.746   6.465  28.320
85600W        W86465  27.846   4.415  28.697
85601W        W86466  25.690   4.886  28.474
85602W        W86467  27.450   5.363  28.200
85603W        W86468  25.807   6.121  26.857
85604W        W86469  25.954   5.418  27.747
85605W        W86470  28.271   5.704  28.097
85606W        W86471  28.043   7.084  28.908
85607W        W86472  27.939   4.823  28.461
85608W        W86473  28.216   6.877  26.866
85609W        W86474  27.218   6.597  28.189
85610W        W86475  26.703   6.952  27.458
85611W        W86476  28.508   6.123  27.877
85612W        W86477  27.558   6.195  29.014
85613W        W86478  26.163   6.148  27.353
85614W        W86479  28.509   5.907  26.998
85615W        W86480  28.150   6.973  27.749
85616W        W86481  26.128   6.702  27.619
85617W        W86482  27.149   4.754  28.829
85618W        W86483  27.600   6.920  26.340
85619W        W86484  26.908   6.175  28.978
85620W        W86485  27.034   6.413  26.355
85621W        W86486  26.255   5.153  25.614
85622W        W86487  25.594  10.884   3.359
85623W        W86488  25.970   9.777   2.882
85624W        W86489  28.675   9.507   0.652
85625W        W86490  28.805  10.592   2.679
85626W        W86491  26.723  10.583   0.205
85627W        W86492  26.806   8.735   1.188
85628W        W86493  26.321   8.583   1.352
85629W        W86494  27.312   9.398   0.786
85630W        W86495  26.987  10.490   3.141
85631W        W86496  25.636   8.051   3.104
85632W        W86497  26.398   7.331   2.906
85633W        W86498  28.092   7.719   1.793
85634W        W86499  27.741   8.590   0.363
85635W        W86500  28.311   8.024   3.454
85636W        W86501  25.677   7.816   2.579
85637W        W86502  25.776  10.435   3.600
85638W        W86503  27.298   9.825   0.332
85639W        W86504  25.730   8.608   2.025
85640W        W86505  26.623   8.499   3.262
85641W        W86506  29.082   8.358   1.761
85642W        W86507  28.846   9.401   2.620
85643W        W86508  27.154   8.734   1.647
85644W        W86509  27.700  10.073   2.016
85645W        W86510  26.200   9.507   2.248
85646W        W86511  25.559   9.035   1.819
85647W        W86512  26.595   9.007   3.011
85648W        W86513  28.866   8.790   3.265
85649W        W86514  26.482  10.234   1.710
85650W        W86515  27.603   9.923   2.844
85651W        W86516  26.823   8.563   2.069
85652W        W86517  27.115   9.347   1.712
85653W        W86518  28.112  10.120   3.560
85654W        W86519  27.191   9.440   3.570
85655W        W86520  27.172   9.156   3.048
85656W        W86521  25.581   8.547   3.570
85657W        W86522  28.413  10.082   3.169
85658W        W86523  25.994   7.664   1.167
85659W        W86524  26.521   9.922   2.166
85660W        W86525  28.984   9.705   1.456
85661W        W86526  28.397   8.105   2.023
85662W        W86527  28.682   8.058   0.118
85663W        W86528  29.147   8.859   2.424
85664W        W86529  27.114  10.566   2.177
85665W        W86530  28.888  10.032   0.615
85666W        W86531  26.017  10.818   0.369
85667W        W86532  26.410  10.864   1.045
85668W        W86533  26.207   7.618   2.471
85669W        W86534  28.830   8.636   2.746
85670W        W86535  28.235   9.058   1.205
85671W        W86536  28.201   8.746   0.232
85672W        W86537  27.409   9.890   2.372
85673W        W86538  27.215   8.220   1.571
85674W        W86539  27.815  10.307   2.565
85675W        W86540  28.686   9.098   0.987
85676W        W86541  27.588   7.756   1.003
85677W        W86542  26.245  10.450   0.686
85678W        W86543  25.616   7.949   1.285
85679W        W86544  28.402   8.556   1.759
85680W        W86545  25.860  10.173   1.674
85681W        W86546  27.201  10.523   0.544
85682W        W86547  28.593   8.549   0.008
85683W        W86548  25.616  10.307   2.172
85684W        W86549  26.407   9.879   2.652
85685W        W86550  26.780   9.239   1.271
85686W        W86551  26.802   7.644   2.364
85687W        W86552  29.031   7.406   1.661
85688W        W86553  26.250   9.278   0.129
85689W        W86554  25.905   8.311   0.308
85690W        W86555  25.967  10.267   1.102
85691W        W86556  27.098   9.750   1.350
85692W        W86557  28.430  10.609   3.064
85693W        W86558  27.356   8.251   0.748
85694W        W86559  28.739  10.649   1.520
85695W        W86560  28.416   8.502   3.118
85696W        W86561  29.129  10.158   1.252
85697W        W86562  27.756   9.450   2.736
85698W        W86563  25.522   9.001   0.942
85699W        W86564  26.633   9.416   2.515
85700W        W86565  27.837   8.680   0.893
85701W        W86566  27.714   9.170   0.997
85702W        W86567  26.057   8.590   2.471
85703W        W86568  26.042   8.466   3.393
85704W        W86569  25.932   7.383   1.552
85705W        W86570  27.700   7.730   2.113
85706W        W86571  27.348   7.915   3.276
85707W        W86572  27.703   8.064   0.454
85708W        W86573  28.886  10.457   3.208
85709W        W86574  27.853   7.538   3.247
85710W        W86575  28.872   9.839   3.369
85711W        W86576  28.302   8.006   2.965
85712W        W86577  28.102   7.944   1.235
85713W        W86578  28.495   9.078   3.639
85714W        W86579  26.235  10.654   1.625
85715W        W86580  26.893   8.371   0.611
85716W        W86581  26.462   7.655   3.275
85717W        W86582  28.514   8.139   0.956
85718W        W86583  28.881   8.621   0.901
85719W        W86584  26.624  10.838   3.372
85720W        W86585  26.550   7.374   0.607
85721W        W86586  28.871   7.908   1.642
85722W        W86587  29.021  10.157   0.087
85723W        W86588  25.928   9.360   1.789
85724W        W86589  27.845   7.947   0.019
85725W        W86590  28.979  10.279   1.739
85726W        W86591  29.018   7.473   2.489
85727W        W86592  27.463   8.685   3.043
85728W        W86593  27.556  10.024   0.746
85729W        W86594  27.956   9.318   3.486
85730W        W86595  27.630   7.295   1.795
85731W        W86596  26.242   8.198   1.858
85732W        W86597  25.796   9.398   2.632
85733W        W86598  27.655  10.591   1.338
85734W        W86599  28.849   8.188   2.210
85735W        W86600  27.486  10.535   2.977
85736W        W86601  28.829   9.594   0.182
85737W        W86602  27.264   9.077   1.243
85738W        W86603  29.116   7.588   2.984
85739W        W86604  27.265   9.423   2.578
85740W        W86605  27.482   8.309   2.023
85741W        W86606  28.334   8.607   0.861
85742W        W86607  28.621   8.340   0.503
85743W        W86608  28.430  10.380   0.892
85744W        W86609  28.264   9.983   1.688
85745W        W86610  28.160   9.062   0.666
85746W        W86611  27.593   9.272   1.652
85747W        W86612  28.474   9.060   1.719
85748W        W86613  25.849   8.075   2.143
85749W        W86614  28.627   9.127   2.970
85750W        W86615  28.978  10.745   2.116
85751W        W86616  26.908  10.189   1.518
85752W        W86617  27.915  10.722   2.842
85753W        W86618  27.909   8.052   2.606
85754W        W86619  27.116  10.760   2.667
85755W        W86620  28.813   7.714   1.133
85756W        W86621  28.604   9.033   2.434
85757W        W86622  25.587   8.354   2.472
85758W        W86623  28.447   8.149   1.490
85759W        W86624  28.858   8.300   3.267
85760W        W86625  27.743   9.999   1.485
85761W        W86626  26.999  10.590   1.098
85762W        W86627  26.114   7.770   0.356
85763W        W86628  27.218   7.424   2.166
85764W        W86629  26.246  10.544   0.014
85765W        W86630  26.620   9.010   0.765
85766W        W86631  27.274   9.639   3.078
85767W        W86632  27.104   7.997   1.068
85768W        W86633  28.460   7.594   1.496
85769W        W86634  28.180  10.876   1.824
85770W        W86635  27.592  10.524   2.164
85771W        W86636  26.988   9.561   2.125
85772W        W86637  28.758  10.284   2.251
85773W        W86638  26.452   7.787   1.020
85774W        W86639  26.974  10.084   1.980
85775W        W86640  26.457   8.015   0.045
85776W        W86641  27.258   8.624   2.439
85777W        W86642  28.106   7.490   2.309
85778W        W86643  25.526   9.333   2.194
85779W        W86644  27.230   9.151   0.352
85780W        W86645  26.498   7.466   0.122
85781W        W86646  27.236   8.547   1.173
85782W        W86647  28.206   7.523   2.872
85783W        W86648  26.794   9.535   2.981
85784W        W86649  27.598   9.317   3.198
85785W        W86650  28.215   9.347   3.091
85786W        W86651  27.499   7.487   3.596
85787W        W86652  26.721   8.103   1.989
85788W        W86653  26.147   8.059   1.387
85789W        W86654  25.933  10.771   1.063
85790W        W86655  27.265  10.101   3.188
85791W        W86656  26.300   9.586   0.547
85792W        W86657  27.980   8.971   1.768
85793W        W86658  28.260   8.770   2.167
85794W        W86659  27.465   9.444   2.101
85795W        W86660  27.935   9.818   0.233
85796W        W86661  27.607   7.839   1.561
85797W        W86662  29.086   8.117   0.829
85798W        W86663  25.580  10.706   2.860
85799W        W86664  25.997   9.932   2.392
85800W        W86665  25.564  10.778   0.624
85801W        W86666  27.463   8.048   2.430
85802W        W86667  26.826  10.071   0.279
85803W        W86668  28.731  10.453   0.465
85804W        W86669  27.706   9.106   0.479
85805W        W86670  26.549   8.297   0.996
85806W        W86671  27.381   8.207   0.048
85807W        W86672  27.965   9.772   3.226
85808W        W86673  28.318   7.678   0.843
85809W        W86674  25.648   7.526   0.291
85810W        W86675  26.934   9.845   2.581
85811W        W86676  26.733   9.761   1.673
85812W        W86677  26.475   9.713   0.071
85813W        W86678  25.716   9.954   0.839
85814W        W86679  26.220   9.024   3.281
85815W        W86680  26.924   7.584   3.467
85816W        W86681  27.633   7.726   2.823
85817W        W86682  26.828   7.494   1.104
85818W        W86683  27.887   7.571   0.609
85819W        W86684  25.832   7.503   2.186
85820W        W86685  25.880   8.466   1.556
85821W        W86686  28.569   7.574   1.962
85822W        W86687  25.991   8.072   0.776
85823W        W86688  28.562   7.760   2.392
85824W        W86689  28.958   8.963   0.077
85825W        W86690  26.250   7.721   1.896
85826W        W86691  27.364   8.293   2.836
85827W        W86692  25.512   7.983   0.314
85828W        W86693  26.298   9.372   2.875
85829W        W86694  27.656   8.770   2.054
85830W        W86695  27.523  10.849   0.350
85831W        W86696  25.669   9.356   0.047
85832W        W86697  26.404   9.767   3.173
85833W        W86698  25.925   8.934   2.804
85834W        W86699  26.916   9.039   2.598
85835W        W86700  28.684   7.398   2.860
85836W        W86701  29.082   9.008   2.851
85837W        W86702  29.070   9.208   0.537
85838W        W86703  27.933   9.540   0.636
85839W        W86704  28.407  10.840   0.331
85840W        W86705  27.584   8.830   3.473
85841W        W86706  25.914   9.797   3.513
85842W        W86707  29.120   7.719   3.465
85843W        W86708  28.838   8.647   2.086
85844W        W86709  27.146  10.777   3.563
85845W        W86710  27.001   7.406   0.290
85846W        W86711  28.540  10.005   0.233
85847W        W86712  26.309   8.098   3.119
85848W        W86713  26.743  10.092   2.981
85849W        W86714  28.869   8.083   2.779
85850W        W86715  28.080  10.742   0.747
85851W        W86716  28.319   9.361   2.114
85852W        W86717  26.569   7.777   2.781
85853W        W86718  27.038   8.846   3.538
85854W        W86719  26.541  10.025   0.732
85855W        W86720  28.296   9.523   0.996
85856W        W86721  26.064   8.149   2.720
85857W        W86722  27.393  10.211   1.184
85858W        W86723  29.143   8.771   1.365
85859W        W86724  27.365   7.404   3.084
85860W        W86725  28.145  10.109   2.163
85861W        W86726  28.448  10.453   1.871
85862W        W86727  27.667  10.255   0.299
85863W        W86728  25.677  10.147   3.141
85864W        W86729  26.420   8.139   2.379
85865W        W86730  26.390   7.487   1.489
85866W        W86731  28.011   8.329   2.181
85867W        W86732  26.809   9.500   0.381
85868W        W86733  28.807   9.442   1.880
85869W        W86734  26.134  10.200   3.303
85870W        W86735  28.521  10.882   1.100
85871W        W86736  26.620   7.902   1.545
85872W        W86737  26.389   9.395   1.635
85873W        W86738  26.702  10.806   2.385
85874W        W86739  28.769  10.902   3.417
85875W        W86740  27.928   9.090   2.350
85876W        W86741  25.777   8.888   0.265
85877W        W86742  28.911  10.546   0.962
85878W        W86743  28.748   7.870   0.581
85879W        W86744  26.887   7.389   2.984
85880W        W86745  28.593  10.191   1.442
85881W        W86746  28.622   8.747   1.347
85882W        W86747  26.739   8.420   1.563
85883W        W86748  26.984   8.682   2.887
85884W        W86749  28.095   9.835   2.750
85885W        W86750  26.745   8.289   2.862
85886W        W86751  26.724  10.755   1.478
85887W        W86752  26.041  10.714   3.112
85888W        W86753  26.153  10.075   0.242
85889W        W86754  28.670   9.833   1.052
85890W        W86755  26.274   8.625   2.938
85891W        W86756  29.047   8.555   0.419
85892W        W86757  26.792   9.612   0.890
85893W        W86758  27.891   8.994   2.971
85894W        W86759  27.782   8.622   2.515
85895W        W86760  26.342   8.994   2.544
85896W        W86761  28.552  10.882   2.373
85897W        W86762  28.343   7.516   3.367
85898W        W86763  26.007   7.666   2.954
85899W        W86764  26.346   8.689   2.007
85900W        W86765  26.715   8.503   0.129
85901W        W86766  25.518  10.262   2.674
85902W        W86767  27.103   8.971   2.117
85903W        W86768  26.926   7.996   0.222
85904W        W86769  26.061   8.812   1.003
85905W        W86770  25.832  10.664   2.440
85906W        W86771  28.627   8.890   0.548
85907W        W86772  28.722   7.806   3.234
85908W        W86773  28.158  10.015   1.197
85909W        W86774  25.756   8.939   3.374
85910W        W86775  28.722   7.403   0.670
85911W        W86776  28.242   9.878   0.681
85912W        W86777  27.144   8.936   0.766
85913W        W86778  28.331   7.740   0.289
85914W        W86779  28.396   8.347   2.475
85915W        W86780  26.105   8.940   1.682
85916W        W86781  26.399   9.879   1.331
85917W        W86782  28.162   8.499   1.296
85918W        W86783  27.185   7.878   1.992
85919W        W86784  29.147   9.789   2.503
85920W        W86785  29.065   7.776   2.064
85921W        W86786  25.604  10.606   1.440
85922W        W86787  26.113   9.793   0.976
85923W        W86788  26.028   7.410   3.529
85924W        W86789  27.147  10.263   3.631
85925W        W86790  28.902   9.231   1.421
85926W        W86791  28.256   9.408   0.301
85927W        W86792  27.551  10.929   2.513
85928W        W86793  28.408   9.651   3.550
85929W        W86794  27.223   7.361   0.830
85930W        W86795  27.936   8.230   1.689
85931W        W86796  25.622   9.817   2.021
85932W        W86797  26.875   7.779   0.662
85933W        W86798  26.679   9.263   3.511
85934W        W86799  27.673   8.244   1.225
85935W        W86800  27.878   9.654   2.347
85936W        W86801  26.032  10.259   2.782
85937W        W86802  26.623  10.242   3.505
85938W        W86803  26.474   8.039   0.519
85939W        W86804  27.991   8.181   0.844
85940W        W86805  27.949  10.289   3.081
85941W        W86806  26.634   8.881   1.680
85942W        W86807  26.289  10.579   2.545
85943W        W86808  29.034  10.696   0.146
85944W        W86809  25.897   9.368   3.142
85945W        W86810  27.892   9.630   1.830
85946W        W86811  26.328   9.279   1.072
85947W        W86812  26.699  10.286   2.467
85948W        W86813  27.077   7.705   1.508
85949W        W86814  25.688   9.689   0.438
85950W        W86815  27.207   8.640   0.308
85951W        W86816  25.853   9.189   1.327
85952W        W86817  27.143   7.831   2.791
85953W        W86818  28.815   7.540   0.218
85954W        W86819  28.908   9.286   3.317
85955W        W86820  27.562  10.543   3.469
85956W        W86821  29.120   9.637   2.991
85957W        W86822  28.528  10.435   3.602
85958W        W86823  26.267  10.891   2.080
85959W        W86824  29.126   9.513   0.954
85960W        W86825  27.656   8.780   1.467
85961W        W86826  27.423   7.392   1.357
85962W        W86827  26.482  10.376   1.194
85963W        W86828  26.981   8.117   2.419
85964W        W86829  26.681   7.486   1.888
85965W        W86830  25.744  10.308   0.436
85966W        W86831  27.560   9.672   1.154
85967W        W86832  26.435  10.467   3.033
85968W        W86833  25.912   9.290   0.729
85969W        W86834  25.797   7.833   1.728
85970W        W86835  27.345   9.798   1.785
85971W        W86836  25.597   7.652   0.805
85972W        W86837  28.261   8.858   2.732
85973W        W86838  28.138   8.244   0.304
85974W        W86839  28.655   9.916   1.952
85975W        W86840  27.316  10.400   1.783
85976W        W86841  26.728  10.504   0.694
85977W        W86842  28.010   7.407   0.124
85978W        W86843  25.810  10.667   1.865
85979W        W86844  28.007   8.425   3.500
85980W        W86845  25.990   7.955   3.499
85981W        W86846  25.721   8.555   0.832
85982W        W86847  26.412   8.544   0.557
85983W        W86848  28.175   8.871   3.374
85984W        W86849  26.518   9.152   2.083
85985W        W86850  27.992   7.438   1.203
85986W        W86851  27.123  10.869   1.706
85987W        W86852  28.337  10.331   2.643
85988W        W86853  27.921  10.480   1.754
85989W        W86854  27.940   9.460   1.348
85990W        W86855  27.402   7.685   0.419
85991W        W86856  29.083   7.313   1.141
85992W        W86857  26.771   8.948   0.304
85993W        W86858  28.937   8.285   1.294
85994W        W86859  27.629   9.455   0.171
85995W        W86860  28.565   9.655   2.919
85996W        W86861  28.219  10.356   0.386
85997W        W86862  26.834   8.031   3.292
85998W        W86863  26.654   8.615   2.533
85999W        W86864  28.746  10.110   2.810
86000W        W86865  27.846   8.060   3.187
86001W        W86866  25.690   8.531   2.964
86002W        W86867  27.450   9.008   2.690
86003W        W86868  25.807   9.766   1.347
86004W        W86869  25.954   9.063   2.237
86005W        W86870  28.271   9.349   2.587
86006W        W86871  28.043  10.729   3.398
86007W        W86872  27.939   8.468   2.951
86008W        W86873  28.216  10.522   1.356
86009W        W86874  27.218  10.242   2.679
86010W        W86875  26.703  10.597   1.948
86011W        W86876  28.508   9.768   2.367
86012W        W86877  27.558   9.840   3.504
86013W        W86878  26.163   9.793   1.843
86014W        W86879  28.509   9.552   1.488
86015W        W86880  28.150  10.618   2.239
86016W        W86881  26.128  10.347   2.109
86017W        W86882  27.149   8.399   3.319
86018W        W86883  27.600  10.565   0.830
86019W        W86884  26.908   9.820   3.468
86020W        W86885  27.034  10.058   0.845
86021W        W86886  26.255   8.798   0.104
86022W        W86887  25.594  10.884   7.003
86023W        W86888  25.970   9.777   6.526
86024W        W86889  28.675   9.507   4.296
86025W        W86890  28.805  10.592   6.323
86026W        W86891  26.723  10.583   3.849
86027W        W86892  26.806   8.735   4.832
86028W        W86893  26.321   8.583   4.996
86029W        W86894  27.312   9.398   4.430
86030W        W86895  26.987  10.490   6.785
86031W        W86896  25.636   8.051   6.748
86032W        W86897  26.398   7.331   6.550
86033W        W86898  28.092   7.719   5.437
86034W        W86899  27.741   8.590   4.007
86035W        W86900  28.311   8.024   7.098
86036W        W86901  25.677   7.816   6.223
86037W        W86902  25.776  10.435   7.244
86038W        W86903  27.298   9.825   3.976
86039W        W86904  25.730   8.608   5.669
86040W        W86905  26.623   8.499   6.906
86041W        W86906  29.082   8.358   5.405
86042W        W86907  28.846   9.401   6.264
86043W        W86908  27.154   8.734   5.291
86044W        W86909  27.700  10.073   5.660
86045W        W86910  26.200   9.507   5.892
86046W        W86911  25.559   9.035   5.463
86047W        W86912  26.595   9.007   6.655
86048W        W86913  28.866   8.790   6.909
86049W        W86914  26.482  10.234   5.354
86050W        W86915  27.603   9.923   6.488
86051W        W86916  26.823   8.563   5.713
86052W        W86917  27.115   9.347   5.356
86053W        W86918  28.112  10.120   7.204
86054W        W86919  27.191   9.440   7.214
86055W        W86920  27.172   9.156   6.692
86056W        W86921  25.581   8.547   7.214
86057W        W86922  28.413  10.082   6.813
86058W        W86923  25.994   7.664   4.811
86059W        W86924  26.521   9.922   5.810
86060W        W86925  28.984   9.705   5.100
86061W        W86926  28.397   8.105   5.667
86062W        W86927  28.682   8.058   3.762
86063W        W86928  29.147   8.859   6.068
86064W        W86929  27.114  10.566   5.821
86065W        W86930  28.888  10.032   4.259
86066W        W86931  26.017  10.818   4.013
86067W        W86932  26.410  10.864   4.689
86068W        W86933  26.207   7.618   6.115
86069W        W86934  28.830   8.636   6.390
86070W        W86935  28.235   9.058   4.849
86071W        W86936  28.201   8.746   3.876
86072W        W86937  27.409   9.890   6.016
86073W        W86938  27.215   8.220   5.215
86074W        W86939  27.815  10.307   6.209
86075W        W86940  28.686   9.098   4.631
86076W        W86941  27.588   7.756   4.647
86077W        W86942  26.245  10.450   4.330
86078W        W86943  25.616   7.949   4.929
86079W        W86944  28.402   8.556   5.403
86080W        W86945  25.860  10.173   5.318
86081W        W86946  27.201  10.523   4.188
86082W        W86947  28.593   8.549   3.652
86083W        W86948  25.616  10.307   5.816
86084W        W86949  26.407   9.879   6.296
86085W        W86950  26.780   9.239   4.915
86086W        W86951  26.802   7.644   6.008
86087W        W86952  29.031   7.406   5.305
86088W        W86953  26.250   9.278   3.773
86089W        W86954  25.905   8.311   3.952
86090W        W86955  25.967  10.267   4.746
86091W        W86956  27.098   9.750   4.994
86092W        W86957  28.430  10.609   6.708
86093W        W86958  27.356   8.251   4.392
86094W        W86959  28.739  10.649   5.164
86095W        W86960  28.416   8.502   6.762
86096W        W86961  29.129  10.158   4.896
86097W        W86962  27.756   9.450   6.380
86098W        W86963  25.522   9.001   4.586
86099W        W86964  26.633   9.416   6.159
86100W        W86965  27.837   8.680   4.537
86101W        W86966  27.714   9.170   4.641
86102W        W86967  26.057   8.590   6.115
86103W        W86968  26.042   8.466   7.037
86104W        W86969  25.932   7.383   5.196
86105W        W86970  27.700   7.730   5.757
86106W        W86971  27.348   7.915   6.920
86107W        W86972  27.703   8.064   4.098
86108W        W86973  28.886  10.457   6.852
86109W        W86974  27.853   7.538   6.891
86110W        W86975  28.872   9.839   7.013
86111W        W86976  28.302   8.006   6.609
86112W        W86977  28.102   7.944   4.879
86113W        W86978  28.495   9.078   7.283
86114W        W86979  26.235  10.654   5.269
86115W        W86980  26.893   8.371   4.255
86116W        W86981  26.462   7.655   6.919
86117W        W86982  28.514   8.139   4.600
86118W        W86983  28.881   8.621   4.545
86119W        W86984  26.624  10.838   7.016
86120W        W86985  26.550   7.374   4.251
86121W        W86986  28.871   7.908   5.286
86122W        W86987  29.021  10.157   3.731
86123W        W86988  25.928   9.360   5.433
86124W        W86989  27.845   7.947   3.663
86125W        W86990  28.979  10.279   5.383
86126W        W86991  29.018   7.473   6.133
86127W        W86992  27.463   8.685   6.687
86128W        W86993  27.556  10.024   4.390
86129W        W86994  27.956   9.318   7.130
86130W        W86995  27.630   7.295   5.439
86131W        W86996  26.242   8.198   5.502
86132W        W86997  25.796   9.398   6.276
86133W        W86998  27.655  10.591   4.982
86134W        W86999  28.849   8.188   5.854
86135W        W87000  27.486  10.535   6.621
86136W        W87001  28.829   9.594   3.826
86137W        W87002  27.264   9.077   4.887
86138W        W87003  29.116   7.588   6.628
86139W        W87004  27.265   9.423   6.222
86140W        W87005  27.482   8.309   5.667
86141W        W87006  28.334   8.607   4.505
86142W        W87007  28.621   8.340   4.147
86143W        W87008  28.430  10.380   4.536
86144W        W87009  28.264   9.983   5.332
86145W        W87010  28.160   9.062   4.310
86146W        W87011  27.593   9.272   5.296
86147W        W87012  28.474   9.060   5.363
86148W        W87013  25.849   8.075   5.787
86149W        W87014  28.627   9.127   6.614
86150W        W87015  28.978  10.745   5.760
86151W        W87016  26.908  10.189   5.162
86152W        W87017  27.915  10.722   6.486
86153W        W87018  27.909   8.052   6.250
86154W        W87019  27.116  10.760   6.311
86155W        W87020  28.813   7.714   4.777
86156W        W87021  28.604   9.033   6.078
86157W        W87022  25.587   8.354   6.116
86158W        W87023  28.447   8.149   5.134
86159W        W87024  28.858   8.300   6.911
86160W        W87025  27.743   9.999   5.129
86161W        W87026  26.999  10.590   4.742
86162W        W87027  26.114   7.770   4.000
86163W        W87028  27.218   7.424   5.810
86164W        W87029  26.246  10.544   3.658
86165W        W87030  26.620   9.010   4.409
86166W        W87031  27.274   9.639   6.722
86167W        W87032  27.104   7.997   4.712
86168W        W87033  28.460   7.594   5.140
86169W        W87034  28.180  10.876   5.468
86170W        W87035  27.592  10.524   5.808
86171W        W87036  26.988   9.561   5.769
86172W        W87037  28.758  10.284   5.895
86173W        W87038  26.452   7.787   4.664
86174W        W87039  26.974  10.084   5.624
86175W        W87040  26.457   8.015   3.689
86176W        W87041  27.258   8.624   6.083
86177W        W87042  28.106   7.490   5.953
86178W        W87043  25.526   9.333   5.838
86179W        W87044  27.230   9.151   3.996
86180W        W87045  26.498   7.466   3.766
86181W        W87046  27.236   8.547   4.817
86182W        W87047  28.206   7.523   6.516
86183W        W87048  26.794   9.535   6.625
86184W        W87049  27.598   9.317   6.842
86185W        W87050  28.215   9.347   6.735
86186W        W87051  27.499   7.487   7.240
86187W        W87052  26.721   8.103   5.633
86188W        W87053  26.147   8.059   5.031
86189W        W87054  25.933  10.771   4.707
86190W        W87055  27.265  10.101   6.832
86191W        W87056  26.300   9.586   4.191
86192W        W87057  27.980   8.971   5.412
86193W        W87058  28.260   8.770   5.811
86194W        W87059  27.465   9.444   5.745
86195W        W87060  27.935   9.818   3.877
86196W        W87061  27.607   7.839   5.205
86197W        W87062  29.086   8.117   4.473
86198W        W87063  25.580  10.706   6.504
86199W        W87064  25.997   9.932   6.036
86200W        W87065  25.564  10.778   4.268
86201W        W87066  27.463   8.048   6.074
86202W        W87067  26.826  10.071   3.923
86203W        W87068  28.731  10.453   4.109
86204W        W87069  27.706   9.106   4.123
86205W        W87070  26.549   8.297   4.640
86206W        W87071  27.381   8.207   3.692
86207W        W87072  27.965   9.772   6.870
86208W        W87073  28.318   7.678   4.487
86209W        W87074  25.648   7.526   3.935
86210W        W87075  26.934   9.845   6.225
86211W        W87076  26.733   9.761   5.317
86212W        W87077  26.475   9.713   3.715
86213W        W87078  25.716   9.954   4.483
86214W        W87079  26.220   9.024   6.925
86215W        W87080  26.924   7.584   7.111
86216W        W87081  27.633   7.726   6.467
86217W        W87082  26.828   7.494   4.748
86218W        W87083  27.887   7.571   4.253
86219W        W87084  25.832   7.503   5.830
86220W        W87085  25.880   8.466   5.200
86221W        W87086  28.569   7.574   5.606
86222W        W87087  25.991   8.072   4.420
86223W        W87088  28.562   7.760   6.036
86224W        W87089  28.958   8.963   3.721
86225W        W87090  26.250   7.721   5.540
86226W        W87091  27.364   8.293   6.480
86227W        W87092  25.512   7.983   3.958
86228W        W87093  26.298   9.372   6.519
86229W        W87094  27.656   8.770   5.698
86230W        W87095  27.523  10.849   3.994
86231W        W87096  25.669   9.356   3.691
86232W        W87097  26.404   9.767   6.817
86233W        W87098  25.925   8.934   6.448
86234W        W87099  26.916   9.039   6.242
86235W        W87100  28.684   7.398   6.504
86236W        W87101  29.082   9.008   6.495
86237W        W87102  29.070   9.208   4.181
86238W        W87103  27.933   9.540   4.280
86239W        W87104  28.407  10.840   3.975
86240W        W87105  27.584   8.830   7.117
86241W        W87106  25.914   9.797   7.157
86242W        W87107  29.120   7.719   7.109
86243W        W87108  28.838   8.647   5.730
86244W        W87109  27.146  10.777   7.207
86245W        W87110  27.001   7.406   3.934
86246W        W87111  28.540  10.005   3.877
86247W        W87112  26.309   8.098   6.763
86248W        W87113  26.743  10.092   6.625
86249W        W87114  28.869   8.083   6.423
86250W        W87115  28.080  10.742   4.391
86251W        W87116  28.319   9.361   5.758
86252W        W87117  26.569   7.777   6.425
86253W        W87118  27.038   8.846   7.182
86254W        W87119  26.541  10.025   4.376
86255W        W87120  28.296   9.523   4.640
86256W        W87121  26.064   8.149   6.364
86257W        W87122  27.393  10.211   4.828
86258W        W87123  29.143   8.771   5.009
86259W        W87124  27.365   7.404   6.728
86260W        W87125  28.145  10.109   5.807
86261W        W87126  28.448  10.453   5.515
86262W        W87127  27.667  10.255   3.943
86263W        W87128  25.677  10.147   6.785
86264W        W87129  26.420   8.139   6.023
86265W        W87130  26.390   7.487   5.133
86266W        W87131  28.011   8.329   5.825
86267W        W87132  26.809   9.500   4.025
86268W        W87133  28.807   9.442   5.524
86269W        W87134  26.134  10.200   6.947
86270W        W87135  28.521  10.882   4.744
86271W        W87136  26.620   7.902   5.189
86272W        W87137  26.389   9.395   5.279
86273W        W87138  26.702  10.806   6.029
86274W        W87139  28.769  10.902   7.061
86275W        W87140  27.928   9.090   5.994
86276W        W87141  25.777   8.888   3.909
86277W        W87142  28.911  10.546   4.606
86278W        W87143  28.748   7.870   4.225
86279W        W87144  26.887   7.389   6.628
86280W        W87145  28.593  10.191   5.086
86281W        W87146  28.622   8.747   4.991
86282W        W87147  26.739   8.420   5.207
86283W        W87148  26.984   8.682   6.531
86284W        W87149  28.095   9.835   6.394
86285W        W87150  26.745   8.289   6.506
86286W        W87151  26.724  10.755   5.122
86287W        W87152  26.041  10.714   6.756
86288W        W87153  26.153  10.075   3.886
86289W        W87154  28.670   9.833   4.696
86290W        W87155  26.274   8.625   6.582
86291W        W87156  29.047   8.555   4.063
86292W        W87157  26.792   9.612   4.534
86293W        W87158  27.891   8.994   6.615
86294W        W87159  27.782   8.622   6.159
86295W        W87160  26.342   8.994   6.188
86296W        W87161  28.552  10.882   6.017
86297W        W87162  28.343   7.516   7.011
86298W        W87163  26.007   7.666   6.598
86299W        W87164  26.346   8.689   5.651
86300W        W87165  26.715   8.503   3.773
86301W        W87166  25.518  10.262   6.318
86302W        W87167  27.103   8.971   5.761
86303W        W87168  26.926   7.996   3.866
86304W        W87169  26.061   8.812   4.647
86305W        W87170  25.832  10.664   6.084
86306W        W87171  28.627   8.890   4.192
86307W        W87172  28.722   7.806   6.878
86308W        W87173  28.158  10.015   4.841
86309W        W87174  25.756   8.939   7.018
86310W        W87175  28.722   7.403   4.314
86311W        W87176  28.242   9.878   4.325
86312W        W87177  27.144   8.936   4.410
86313W        W87178  28.331   7.740   3.933
86314W        W87179  28.396   8.347   6.119
86315W        W87180  26.105   8.940   5.326
86316W        W87181  26.399   9.879   4.975
86317W        W87182  28.162   8.499   4.940
86318W        W87183  27.185   7.878   5.636
86319W        W87184  29.147   9.789   6.147
86320W        W87185  29.065   7.776   5.708
86321W        W87186  25.604  10.606   5.084
86322W        W87187  26.113   9.793   4.620
86323W        W87188  26.028   7.410   7.173
86324W        W87189  27.147  10.263   7.275
86325W        W87190  28.902   9.231   5.065
86326W        W87191  28.256   9.408   3.945
86327W        W87192  27.551  10.929   6.157
86328W        W87193  28.408   9.651   7.194
86329W        W87194  27.223   7.361   4.474
86330W        W87195  27.936   8.230   5.333
86331W        W87196  25.622   9.817   5.665
86332W        W87197  26.875   7.779   4.306
86333W        W87198  26.679   9.263   7.155
86334W        W87199  27.673   8.244   4.869
86335W        W87200  27.878   9.654   5.991
86336W        W87201  26.032  10.259   6.426
86337W        W87202  26.623  10.242   7.149
86338W        W87203  26.474   8.039   4.163
86339W        W87204  27.991   8.181   4.488
86340W        W87205  27.949  10.289   6.725
86341W        W87206  26.634   8.881   5.324
86342W        W87207  26.289  10.579   6.189
86343W        W87208  29.034  10.696   3.790
86344W        W87209  25.897   9.368   6.786
86345W        W87210  27.892   9.630   5.474
86346W        W87211  26.328   9.279   4.716
86347W        W87212  26.699  10.286   6.111
86348W        W87213  27.077   7.705   5.152
86349W        W87214  25.688   9.689   4.082
86350W        W87215  27.207   8.640   3.952
86351W        W87216  25.853   9.189   4.971
86352W        W87217  27.143   7.831   6.435
86353W        W87218  28.815   7.540   3.862
86354W        W87219  28.908   9.286   6.961
86355W        W87220  27.562  10.543   7.113
86356W        W87221  29.120   9.637   6.635
86357W        W87222  28.528  10.435   7.246
86358W        W87223  26.267  10.891   5.724
86359W        W87224  29.126   9.513   4.598
86360W        W87225  27.656   8.780   5.111
86361W        W87226  27.423   7.392   5.001
86362W        W87227  26.482  10.376   4.838
86363W        W87228  26.981   8.117   6.063
86364W        W87229  26.681   7.486   5.532
86365W        W87230  25.744  10.308   4.080
86366W        W87231  27.560   9.672   4.798
86367W        W87232  26.435  10.467   6.677
86368W        W87233  25.912   9.290   4.373
86369W        W87234  25.797   7.833   5.372
86370W        W87235  27.345   9.798   5.429
86371W        W87236  25.597   7.652   4.449
86372W        W87237  28.261   8.858   6.376
86373W        W87238  28.138   8.244   3.948
86374W        W87239  28.655   9.916   5.596
86375W        W87240  27.316  10.400   5.427
86376W        W87241  26.728  10.504   4.338
86377W        W87242  28.010   7.407   3.768
86378W        W87243  25.810  10.667   5.509
86379W        W87244  28.007   8.425   7.144
86380W        W87245  25.990   7.955   7.143
86381W        W87246  25.721   8.555   4.476
86382W        W87247  26.412   8.544   4.201
86383W        W87248  28.175   8.871   7.018
86384W        W87249  26.518   9.152   5.727
86385W        W87250  27.992   7.438   4.847
86386W        W87251  27.123  10.869   5.350
86387W        W87252  28.337  10.331   6.287
86388W        W87253  27.921  10.480   5.398
86389W        W87254  27.940   9.460   4.992
86390W        W87255  27.402   7.685   4.063
86391W        W87256  29.083   7.313   4.785
86392W        W87257  26.771   8.948   3.948
86393W        W87258  28.937   8.285   4.938
86394W        W87259  27.629   9.455   3.815
86395W        W87260  28.565   9.655   6.563
86396W        W87261  28.219  10.356   4.030
86397W        W87262  26.834   8.031   6.936
86398W        W87263  26.654   8.615   6.177
86399W        W87264  28.746  10.110   6.454
86400W        W87265  27.846   8.060   6.831
86401W        W87266  25.690   8.531   6.608
86402W        W87267  27.450   9.008   6.334
86403W        W87268  25.807   9.766   4.991
86404W        W87269  25.954   9.063   5.881
86405W        W87270  28.271   9.349   6.231
86406W        W87271  28.043  10.729   7.042
86407W        W87272  27.939   8.468   6.595
86408W        W87273  28.216  10.522   5.000
86409W        W87274  27.218  10.242   6.323
86410W        W87275  26.703  10.597   5.592
86411W        W87276  28.508   9.768   6.011
86412W        W87277  27.558   9.840   7.148
86413W        W87278  26.163   9.793   5.487
86414W        W87279  28.509   9.552   5.132
86415W        W87280  28.150  10.618   5.883
86416W        W87281  26.128  10.347   5.753
86417W        W87282  27.149   8.399   6.963
86418W        W87283  27.600  10.565   4.474
86419W        W87284  26.908   9.820   7.112
86420W        W87285  27.034  10.058   4.489
86421W        W87286  26.255   8.798   3.748
86422W        W87287  25.594  10.884  10.648
86423W        W87288  25.970   9.777  10.171
86424W        W87289  28.675   9.507   7.941
86425W        W87290  28.805  10.592   9.968
86426W        W87291  26.723  10.583   7.494
86427W        W87292  26.806   8.735   8.477
86428W        W87293  26.321   8.583   8.641
86429W        W87294  27.312   9.398   8.075
86430W        W87295  26.987  10.490  10.430
86431W        W87296  25.636   8.051  10.393
86432W        W87297  26.398   7.331  10.195
86433W        W87298  28.092   7.719   9.082
86434W        W87299  27.741   8.590   7.652
86435W        W87300  28.311   8.024  10.743
86436W        W87301  25.677   7.816   9.868
86437W        W87302  25.776  10.435  10.889
86438W        W87303  27.298   9.825   7.621
86439W        W87304  25.730   8.608   9.314
86440W        W87305  26.623   8.499  10.551
86441W        W87306  29.082   8.358   9.050
86442W        W87307  28.846   9.401   9.909
86443W        W87308  27.154   8.734   8.936
86444W        W87309  27.700  10.073   9.305
86445W        W87310  26.200   9.507   9.537
86446W        W87311  25.559   9.035   9.108
86447W        W87312  26.595   9.007  10.300
86448W        W87313  28.866   8.790  10.554
86449W        W87314  26.482  10.234   8.999
86450W        W87315  27.603   9.923  10.133
86451W        W87316  26.823   8.563   9.358
86452W        W87317  27.115   9.347   9.001
86453W        W87318  28.112  10.120  10.849
86454W        W87319  27.191   9.440  10.859
86455W        W87320  27.172   9.156  10.337
86456W        W87321  25.581   8.547  10.859
86457W        W87322  28.413  10.082  10.458
86458W        W87323  25.994   7.664   8.456
86459W        W87324  26.521   9.922   9.455
86460W        W87325  28.984   9.705   8.745
86461W        W87326  28.397   8.105   9.312
86462W        W87327  28.682   8.058   7.407
86463W        W87328  29.147   8.859   9.713
86464W        W87329  27.114  10.566   9.466
86465W        W87330  28.888  10.032   7.904
86466W        W87331  26.017  10.818   7.658
86467W        W87332  26.410  10.864   8.334
86468W        W87333  26.207   7.618   9.760
86469W        W87334  28.830   8.636  10.035
86470W        W87335  28.235   9.058   8.494
86471W        W87336  28.201   8.746   7.521
86472W        W87337  27.409   9.890   9.661
86473W        W87338  27.215   8.220   8.860
86474W        W87339  27.815  10.307   9.854
86475W        W87340  28.686   9.098   8.276
86476W        W87341  27.588   7.756   8.292
86477W        W87342  26.245  10.450   7.975
86478W        W87343  25.616   7.949   8.574
86479W        W87344  28.402   8.556   9.048
86480W        W87345  25.860  10.173   8.963
86481W        W87346  27.201  10.523   7.833
86482W        W87347  28.593   8.549   7.297
86483W        W87348  25.616  10.307   9.461
86484W        W87349  26.407   9.879   9.941
86485W        W87350  26.780   9.239   8.560
86486W        W87351  26.802   7.644   9.653
86487W        W87352  29.031   7.406   8.950
86488W        W87353  26.250   9.278   7.418
86489W        W87354  25.905   8.311   7.597
86490W        W87355  25.967  10.267   8.391
86491W        W87356  27.098   9.750   8.639
86492W        W87357  28.430  10.609  10.353
86493W        W87358  27.356   8.251   8.037
86494W        W87359  28.739  10.649   8.809
86495W        W87360  28.416   8.502  10.407
86496W        W87361  29.129  10.158   8.541
86497W        W87362  27.756   9.450  10.025
86498W        W87363  25.522   9.001   8.231
86499W        W87364  26.633   9.416   9.804
86500W        W87365  27.837   8.680   8.182
86501W        W87366  27.714   9.170   8.286
86502W        W87367  26.057   8.590   9.760
86503W        W87368  26.042   8.466  10.682
86504W        W87369  25.932   7.383   8.841
86505W        W87370  27.700   7.730   9.402
86506W        W87371  27.348   7.915  10.565
86507W        W87372  27.703   8.064   7.743
86508W        W87373  28.886  10.457  10.497
86509W        W87374  27.853   7.538  10.536
86510W        W87375  28.872   9.839  10.658
86511W        W87376  28.302   8.006  10.254
86512W        W87377  28.102   7.944   8.524
86513W        W87378  28.495   9.078  10.928
86514W        W87379  26.235  10.654   8.914
86515W        W87380  26.893   8.371   7.900
86516W        W87381  26.462   7.655  10.564
86517W        W87382  28.514   8.139   8.245
86518W        W87383  28.881   8.621   8.190
86519W        W87384  26.624  10.838  10.661
86520W        W87385  26.550   7.374   7.896
86521W        W87386  28.871   7.908   8.931
86522W        W87387  29.021  10.157   7.376
86523W        W87388  25.928   9.360   9.078
86524W        W87389  27.845   7.947   7.308
86525W        W87390  28.979  10.279   9.028
86526W        W87391  29.018   7.473   9.778
86527W        W87392  27.463   8.685  10.332
86528W        W87393  27.556  10.024   8.035
86529W        W87394  27.956   9.318  10.775
86530W        W87395  27.630   7.295   9.084
86531W        W87396  26.242   8.198   9.147
86532W        W87397  25.796   9.398   9.921
86533W        W87398  27.655  10.591   8.627
86534W        W87399  28.849   8.188   9.499
86535W        W87400  27.486  10.535  10.266
86536W        W87401  28.829   9.594   7.471
86537W        W87402  27.264   9.077   8.532
86538W        W87403  29.116   7.588  10.273
86539W        W87404  27.265   9.423   9.867
86540W        W87405  27.482   8.309   9.312
86541W        W87406  28.334   8.607   8.150
86542W        W87407  28.621   8.340   7.792
86543W        W87408  28.430  10.380   8.181
86544W        W87409  28.264   9.983   8.977
86545W        W87410  28.160   9.062   7.955
86546W        W87411  27.593   9.272   8.941
86547W        W87412  28.474   9.060   9.008
86548W        W87413  25.849   8.075   9.432
86549W        W87414  28.627   9.127  10.259
86550W        W87415  28.978  10.745   9.405
86551W        W87416  26.908  10.189   8.807
86552W        W87417  27.915  10.722  10.131
86553W        W87418  27.909   8.052   9.895
86554W        W87419  27.116  10.760   9.956
86555W        W87420  28.813   7.714   8.422
86556W        W87421  28.604   9.033   9.723
86557W        W87422  25.587   8.354   9.761
86558W        W87423  28.447   8.149   8.779
86559W        W87424  28.858   8.300  10.556
86560W        W87425  27.743   9.999   8.774
86561W        W87426  26.999  10.590   8.387
86562W        W87427  26.114   7.770   7.645
86563W        W87428  27.218   7.424   9.455
86564W        W87429  26.246  10.544   7.303
86565W        W87430  26.620   9.010   8.054
86566W        W87431  27.274   9.639  10.367
86567W        W87432  27.104   7.997   8.357
86568W        W87433  28.460   7.594   8.785
86569W        W87434  28.180  10.876   9.113
86570W        W87435  27.592  10.524   9.453
86571W        W87436  26.988   9.561   9.414
86572W        W87437  28.758  10.284   9.540
86573W        W87438  26.452   7.787   8.309
86574W        W87439  26.974  10.084   9.269
86575W        W87440  26.457   8.015   7.334
86576W        W87441  27.258   8.624   9.728
86577W        W87442  28.106   7.490   9.598
86578W        W87443  25.526   9.333   9.483
86579W        W87444  27.230   9.151   7.641
86580W        W87445  26.498   7.466   7.411
86581W        W87446  27.236   8.547   8.462
86582W        W87447  28.206   7.523  10.161
86583W        W87448  26.794   9.535  10.270
86584W        W87449  27.598   9.317  10.487
86585W        W87450  28.215   9.347  10.380
86586W        W87451  27.499   7.487  10.885
86587W        W87452  26.721   8.103   9.278
86588W        W87453  26.147   8.059   8.676
86589W        W87454  25.933  10.771   8.352
86590W        W87455  27.265  10.101  10.477
86591W        W87456  26.300   9.586   7.836
86592W        W87457  27.980   8.971   9.057
86593W        W87458  28.260   8.770   9.456
86594W        W87459  27.465   9.444   9.390
86595W        W87460  27.935   9.818   7.522
86596W        W87461  27.607   7.839   8.850
86597W        W87462  29.086   8.117   8.118
86598W        W87463  25.580  10.706  10.149
86599W        W87464  25.997   9.932   9.681
86600W        W87465  25.564  10.778   7.913
86601W        W87466  27.463   8.048   9.719
86602W        W87467  26.826  10.071   7.568
86603W        W87468  28.731  10.453   7.754
86604W        W87469  27.706   9.106   7.768
86605W        W87470  26.549   8.297   8.285
86606W        W87471  27.381   8.207   7.337
86607W        W87472  27.965   9.772  10.515
86608W        W87473  28.318   7.678   8.132
86609W        W87474  25.648   7.526   7.580
86610W        W87475  26.934   9.845   9.870
86611W        W87476  26.733   9.761   8.962
86612W        W87477  26.475   9.713   7.360
86613W        W87478  25.716   9.954   8.128
86614W        W87479  26.220   9.024  10.570
86615W        W87480  26.924   7.584  10.756
86616W        W87481  27.633   7.726  10.112
86617W        W87482  26.828   7.494   8.393
86618W        W87483  27.887   7.571   7.898
86619W        W87484  25.832   7.503   9.475
86620W        W87485  25.880   8.466   8.845
86621W        W87486  28.569   7.574   9.251
86622W        W87487  25.991   8.072   8.065
86623W        W87488  28.562   7.760   9.681
86624W        W87489  28.958   8.963   7.366
86625W        W87490  26.250   7.721   9.185
86626W        W87491  27.364   8.293  10.125
86627W        W87492  25.512   7.983   7.603
86628W        W87493  26.298   9.372  10.164
86629W        W87494  27.656   8.770   9.343
86630W        W87495  27.523  10.849   7.639
86631W        W87496  25.669   9.356   7.336
86632W        W87497  26.404   9.767  10.462
86633W        W87498  25.925   8.934  10.093
86634W        W87499  26.916   9.039   9.887
86635W        W87500  28.684   7.398  10.149
86636W        W87501  29.082   9.008  10.140
86637W        W87502  29.070   9.208   7.826
86638W        W87503  27.933   9.540   7.925
86639W        W87504  28.407  10.840   7.620
86640W        W87505  27.584   8.830  10.762
86641W        W87506  25.914   9.797  10.802
86642W        W87507  29.120   7.719  10.754
86643W        W87508  28.838   8.647   9.375
86644W        W87509  27.146  10.777  10.852
86645W        W87510  27.001   7.406   7.579
86646W        W87511  28.540  10.005   7.522
86647W        W87512  26.309   8.098  10.408
86648W        W87513  26.743  10.092  10.270
86649W        W87514  28.869   8.083  10.068
86650W        W87515  28.080  10.742   8.036
86651W        W87516  28.319   9.361   9.403
86652W        W87517  26.569   7.777  10.070
86653W        W87518  27.038   8.846  10.827
86654W        W87519  26.541  10.025   8.021
86655W        W87520  28.296   9.523   8.285
86656W        W87521  26.064   8.149  10.009
86657W        W87522  27.393  10.211   8.473
86658W        W87523  29.143   8.771   8.654
86659W        W87524  27.365   7.404  10.373
86660W        W87525  28.145  10.109   9.452
86661W        W87526  28.448  10.453   9.160
86662W        W87527  27.667  10.255   7.588
86663W        W87528  25.677  10.147  10.430
86664W        W87529  26.420   8.139   9.668
86665W        W87530  26.390   7.487   8.778
86666W        W87531  28.011   8.329   9.470
86667W        W87532  26.809   9.500   7.670
86668W        W87533  28.807   9.442   9.169
86669W        W87534  26.134  10.200  10.592
86670W        W87535  28.521  10.882   8.389
86671W        W87536  26.620   7.902   8.834
86672W        W87537  26.389   9.395   8.924
86673W        W87538  26.702  10.806   9.674
86674W        W87539  28.769  10.902  10.706
86675W        W87540  27.928   9.090   9.639
86676W        W87541  25.777   8.888   7.554
86677W        W87542  28.911  10.546   8.251
86678W        W87543  28.748   7.870   7.870
86679W        W87544  26.887   7.389  10.273
86680W        W87545  28.593  10.191   8.731
86681W        W87546  28.622   8.747   8.636
86682W        W87547  26.739   8.420   8.852
86683W        W87548  26.984   8.682  10.176
86684W        W87549  28.095   9.835  10.039
86685W        W87550  26.745   8.289  10.151
86686W        W87551  26.724  10.755   8.767
86687W        W87552  26.041  10.714  10.401
86688W        W87553  26.153  10.075   7.531
86689W        W87554  28.670   9.833   8.341
86690W        W87555  26.274   8.625  10.227
86691W        W87556  29.047   8.555   7.708
86692W        W87557  26.792   9.612   8.179
86693W        W87558  27.891   8.994  10.260
86694W        W87559  27.782   8.622   9.804
86695W        W87560  26.342   8.994   9.833
86696W        W87561  28.552  10.882   9.662
86697W        W87562  28.343   7.516  10.656
86698W        W87563  26.007   7.666  10.243
86699W        W87564  26.346   8.689   9.296
86700W        W87565  26.715   8.503   7.418
86701W        W87566  25.518  10.262   9.963
86702W        W87567  27.103   8.971   9.406
86703W        W87568  26.926   7.996   7.511
86704W        W87569  26.061   8.812   8.292
86705W        W87570  25.832  10.664   9.729
86706W        W87571  28.627   8.890   7.837
86707W        W87572  28.722   7.806  10.523
86708W        W87573  28.158  10.015   8.486
86709W        W87574  25.756   8.939  10.663
86710W        W87575  28.722   7.403   7.959
86711W        W87576  28.242   9.878   7.970
86712W        W87577  27.144   8.936   8.055
86713W        W87578  28.331   7.740   7.578
86714W        W87579  28.396   8.347   9.764
86715W        W87580  26.105   8.940   8.971
86716W        W87581  26.399   9.879   8.620
86717W        W87582  28.162   8.499   8.585
86718W        W87583  27.185   7.878   9.281
86719W        W87584  29.147   9.789   9.792
86720W        W87585  29.065   7.776   9.353
86721W        W87586  25.604  10.606   8.729
86722W        W87587  26.113   9.793   8.265
86723W        W87588  26.028   7.410  10.818
86724W        W87589  27.147  10.263  10.920
86725W        W87590  28.902   9.231   8.710
86726W        W87591  28.256   9.408   7.590
86727W        W87592  27.551  10.929   9.802
86728W        W87593  28.408   9.651  10.839
86729W        W87594  27.223   7.361   8.119
86730W        W87595  27.936   8.230   8.978
86731W        W87596  25.622   9.817   9.310
86732W        W87597  26.875   7.779   7.951
86733W        W87598  26.679   9.263  10.800
86734W        W87599  27.673   8.244   8.514
86735W        W87600  27.878   9.654   9.636
86736W        W87601  26.032  10.259  10.071
86737W        W87602  26.623  10.242  10.794
86738W        W87603  26.474   8.039   7.808
86739W        W87604  27.991   8.181   8.133
86740W        W87605  27.949  10.289  10.370
86741W        W87606  26.634   8.881   8.969
86742W        W87607  26.289  10.579   9.834
86743W        W87608  29.034  10.696   7.435
86744W        W87609  25.897   9.368  10.431
86745W        W87610  27.892   9.630   9.119
86746W        W87611  26.328   9.279   8.361
86747W        W87612  26.699  10.286   9.756
86748W        W87613  27.077   7.705   8.797
86749W        W87614  25.688   9.689   7.727
86750W        W87615  27.207   8.640   7.597
86751W        W87616  25.853   9.189   8.616
86752W        W87617  27.143   7.831  10.080
86753W        W87618  28.815   7.540   7.507
86754W        W87619  28.908   9.286  10.606
86755W        W87620  27.562  10.543  10.758
86756W        W87621  29.120   9.637  10.280
86757W        W87622  28.528  10.435  10.891
86758W        W87623  26.267  10.891   9.369
86759W        W87624  29.126   9.513   8.243
86760W        W87625  27.656   8.780   8.756
86761W        W87626  27.423   7.392   8.646
86762W        W87627  26.482  10.376   8.483
86763W        W87628  26.981   8.117   9.708
86764W        W87629  26.681   7.486   9.177
86765W        W87630  25.744  10.308   7.725
86766W        W87631  27.560   9.672   8.443
86767W        W87632  26.435  10.467  10.322
86768W        W87633  25.912   9.290   8.018
86769W        W87634  25.797   7.833   9.017
86770W        W87635  27.345   9.798   9.074
86771W        W87636  25.597   7.652   8.094
86772W        W87637  28.261   8.858  10.021
86773W        W87638  28.138   8.244   7.593
86774W        W87639  28.655   9.916   9.241
86775W        W87640  27.316  10.400   9.072
86776W        W87641  26.728  10.504   7.983
86777W        W87642  28.010   7.407   7.413
86778W        W87643  25.810  10.667   9.154
86779W        W87644  28.007   8.425  10.789
86780W        W87645  25.990   7.955  10.788
86781W        W87646  25.721   8.555   8.121
86782W        W87647  26.412   8.544   7.846
86783W        W87648  28.175   8.871  10.663
86784W        W87649  26.518   9.152   9.372
86785W        W87650  27.992   7.438   8.492
86786W        W87651  27.123  10.869   8.995
86787W        W87652  28.337  10.331   9.932
86788W        W87653  27.921  10.480   9.043
86789W        W87654  27.940   9.460   8.637
86790W        W87655  27.402   7.685   7.708
86791W        W87656  29.083   7.313   8.430
86792W        W87657  26.771   8.948   7.593
86793W        W87658  28.937   8.285   8.583
86794W        W87659  27.629   9.455   7.460
86795W        W87660  28.565   9.655  10.208
86796W        W87661  28.219  10.356   7.675
86797W        W87662  26.834   8.031  10.581
86798W        W87663  26.654   8.615   9.822
86799W        W87664  28.746  10.110  10.099
86800W        W87665  27.846   8.060  10.476
86801W        W87666  25.690   8.531  10.253
86802W        W87667  27.450   9.008   9.979
86803W        W87668  25.807   9.766   8.636
86804W        W87669  25.954   9.063   9.526
86805W        W87670  28.271   9.349   9.876
86806W        W87671  28.043  10.729  10.687
86807W        W87672  27.939   8.468  10.240
86808W        W87673  28.216  10.522   8.645
86809W        W87674  27.218  10.242   9.968
86810W        W87675  26.703  10.597   9.237
86811W        W87676  28.508   9.768   9.656
86812W        W87677  27.558   9.840  10.793
86813W        W87678  26.163   9.793   9.132
86814W        W87679  28.509   9.552   8.777
86815W        W87680  28.150  10.618   9.528
86816W        W87681  26.128  10.347   9.398
86817W        W87682  27.149   8.399  10.608
86818W        W87683  27.600  10.565   8.119
86819W        W87684  26.908   9.820  10.757
86820W        W87685  27.034  10.058   8.134
86821W        W87686  26.255   8.798   7.393
86822W        W87687  25.594  10.884  14.292
86823W        W87688  25.970   9.777  13.815
86824W        W87689  28.675   9.507  11.585
86825W        W87690  28.805  10.592  13.612
86826W        W87691  26.723  10.583  11.138
86827W        W87692  26.806   8.735  12.121
86828W        W87693  26.321   8.583  12.285
86829W        W87694  27.312   9.398  11.719
86830W        W87695  26.987  10.490  14.074
86831W        W87696  25.636   8.051  14.037
86832W        W87697  26.398   7.331  13.839
86833W        W87698  28.092   7.719  12.726
86834W        W87699  27.741   8.590  11.296
86835W        W87700  28.311   8.024  14.387
86836W        W87701  25.677   7.816  13.512
86837W        W87702  25.776  10.435  14.533
86838W        W87703  27.298   9.825  11.265
86839W        W87704  25.730   8.608  12.958
86840W        W87705  26.623   8.499  14.195
86841W        W87706  29.082   8.358  12.694
86842W        W87707  28.846   9.401  13.553
86843W        W87708  27.154   8.734  12.580
86844W        W87709  27.700  10.073  12.949
86845W        W87710  26.200   9.507  13.181
86846W        W87711  25.559   9.035  12.752
86847W        W87712  26.595   9.007  13.944
86848W        W87713  28.866   8.790  14.198
86849W        W87714  26.482  10.234  12.643
86850W        W87715  27.603   9.923  13.777
86851W        W87716  26.823   8.563  13.002
86852W        W87717  27.115   9.347  12.645
86853W        W87718  28.112  10.120  14.493
86854W        W87719  27.191   9.440  14.503
86855W        W87720  27.172   9.156  13.981
86856W        W87721  25.581   8.547  14.503
86857W        W87722  28.413  10.082  14.102
86858W        W87723  25.994   7.664  12.100
86859W        W87724  26.521   9.922  13.099
86860W        W87725  28.984   9.705  12.389
86861W        W87726  28.397   8.105  12.956
86862W        W87727  28.682   8.058  11.051
86863W        W87728  29.147   8.859  13.357
86864W        W87729  27.114  10.566  13.110
86865W        W87730  28.888  10.032  11.548
86866W        W87731  26.017  10.818  11.302
86867W        W87732  26.410  10.864  11.978
86868W        W87733  26.207   7.618  13.404
86869W        W87734  28.830   8.636  13.679
86870W        W87735  28.235   9.058  12.138
86871W        W87736  28.201   8.746  11.165
86872W        W87737  27.409   9.890  13.305
86873W        W87738  27.215   8.220  12.504
86874W        W87739  27.815  10.307  13.498
86875W        W87740  28.686   9.098  11.920
86876W        W87741  27.588   7.756  11.936
86877W        W87742  26.245  10.450  11.619
86878W        W87743  25.616   7.949  12.218
86879W        W87744  28.402   8.556  12.692
86880W        W87745  25.860  10.173  12.607
86881W        W87746  27.201  10.523  11.477
86882W        W87747  28.593   8.549  10.941
86883W        W87748  25.616  10.307  13.105
86884W        W87749  26.407   9.879  13.585
86885W        W87750  26.780   9.239  12.204
86886W        W87751  26.802   7.644  13.297
86887W        W87752  29.031   7.406  12.594
86888W        W87753  26.250   9.278  11.062
86889W        W87754  25.905   8.311  11.241
86890W        W87755  25.967  10.267  12.035
86891W        W87756  27.098   9.750  12.283
86892W        W87757  28.430  10.609  13.997
86893W        W87758  27.356   8.251  11.681
86894W        W87759  28.739  10.649  12.453
86895W        W87760  28.416   8.502  14.051
86896W        W87761  29.129  10.158  12.185
86897W        W87762  27.756   9.450  13.669
86898W        W87763  25.522   9.001  11.875
86899W        W87764  26.633   9.416  13.448
86900W        W87765  27.837   8.680  11.826
86901W        W87766  27.714   9.170  11.930
86902W        W87767  26.057   8.590  13.404
86903W        W87768  26.042   8.466  14.326
86904W        W87769  25.932   7.383  12.485
86905W        W87770  27.700   7.730  13.046
86906W        W87771  27.348   7.915  14.209
86907W        W87772  27.703   8.064  11.387
86908W        W87773  28.886  10.457  14.141
86909W        W87774  27.853   7.538  14.180
86910W        W87775  28.872   9.839  14.302
86911W        W87776  28.302   8.006  13.898
86912W        W87777  28.102   7.944  12.168
86913W        W87778  28.495   9.078  14.572
86914W        W87779  26.235  10.654  12.558
86915W        W87780  26.893   8.371  11.544
86916W        W87781  26.462   7.655  14.208
86917W        W87782  28.514   8.139  11.889
86918W        W87783  28.881   8.621  11.834
86919W        W87784  26.624  10.838  14.305
86920W        W87785  26.550   7.374  11.540
86921W        W87786  28.871   7.908  12.575
86922W        W87787  29.021  10.157  11.020
86923W        W87788  25.928   9.360  12.722
86924W        W87789  27.845   7.947  10.952
86925W        W87790  28.979  10.279  12.672
86926W        W87791  29.018   7.473  13.422
86927W        W87792  27.463   8.685  13.976
86928W        W87793  27.556  10.024  11.679
86929W        W87794  27.956   9.318  14.419
86930W        W87795  27.630   7.295  12.728
86931W        W87796  26.242   8.198  12.791
86932W        W87797  25.796   9.398  13.565
86933W        W87798  27.655  10.591  12.271
86934W        W87799  28.849   8.188  13.143
86935W        W87800  27.486  10.535  13.910
86936W        W87801  28.829   9.594  11.115
86937W        W87802  27.264   9.077  12.176
86938W        W87803  29.116   7.588  13.917
86939W        W87804  27.265   9.423  13.511
86940W        W87805  27.482   8.309  12.956
86941W        W87806  28.334   8.607  11.794
86942W        W87807  28.621   8.340  11.436
86943W        W87808  28.430  10.380  11.825
86944W        W87809  28.264   9.983  12.621
86945W        W87810  28.160   9.062  11.599
86946W        W87811  27.593   9.272  12.585
86947W        W87812  28.474   9.060  12.652
86948W        W87813  25.849   8.075  13.076
86949W        W87814  28.627   9.127  13.903
86950W        W87815  28.978  10.745  13.049
86951W        W87816  26.908  10.189  12.451
86952W        W87817  27.915  10.722  13.775
86953W        W87818  27.909   8.052  13.539
86954W        W87819  27.116  10.760  13.600
86955W        W87820  28.813   7.714  12.066
86956W        W87821  28.604   9.033  13.367
86957W        W87822  25.587   8.354  13.405
86958W        W87823  28.447   8.149  12.423
86959W        W87824  28.858   8.300  14.200
86960W        W87825  27.743   9.999  12.418
86961W        W87826  26.999  10.590  12.031
86962W        W87827  26.114   7.770  11.289
86963W        W87828  27.218   7.424  13.099
86964W        W87829  26.246  10.544  10.947
86965W        W87830  26.620   9.010  11.698
86966W        W87831  27.274   9.639  14.011
86967W        W87832  27.104   7.997  12.001
86968W        W87833  28.460   7.594  12.429
86969W        W87834  28.180  10.876  12.757
86970W        W87835  27.592  10.524  13.097
86971W        W87836  26.988   9.561  13.058
86972W        W87837  28.758  10.284  13.184
86973W        W87838  26.452   7.787  11.953
86974W        W87839  26.974  10.084  12.913
86975W        W87840  26.457   8.015  10.978
86976W        W87841  27.258   8.624  13.372
86977W        W87842  28.106   7.490  13.242
86978W        W87843  25.526   9.333  13.127
86979W        W87844  27.230   9.151  11.285
86980W        W87845  26.498   7.466  11.055
86981W        W87846  27.236   8.547  12.106
86982W        W87847  28.206   7.523  13.805
86983W        W87848  26.794   9.535  13.914
86984W        W87849  27.598   9.317  14.131
86985W        W87850  28.215   9.347  14.024
86986W        W87851  27.499   7.487  14.529
86987W        W87852  26.721   8.103  12.922
86988W        W87853  26.147   8.059  12.320
86989W        W87854  25.933  10.771  11.996
86990W        W87855  27.265  10.101  14.121
86991W        W87856  26.300   9.586  11.480
86992W        W87857  27.980   8.971  12.701
86993W        W87858  28.260   8.770  13.100
86994W        W87859  27.465   9.444  13.034
86995W        W87860  27.935   9.818  11.166
86996W        W87861  27.607   7.839  12.494
86997W        W87862  29.086   8.117  11.762
86998W        W87863  25.580  10.706  13.793
86999W        W87864  25.997   9.932  13.325
87000W        W87865  25.564  10.778  11.557
87001W        W87866  27.463   8.048  13.363
87002W        W87867  26.826  10.071  11.212
87003W        W87868  28.731  10.453  11.398
87004W        W87869  27.706   9.106  11.412
87005W        W87870  26.549   8.297  11.929
87006W        W87871  27.381   8.207  10.981
87007W        W87872  27.965   9.772  14.159
87008W        W87873  28.318   7.678  11.776
87009W        W87874  25.648   7.526  11.224
87010W        W87875  26.934   9.845  13.514
87011W        W87876  26.733   9.761  12.606
87012W        W87877  26.475   9.713  11.004
87013W        W87878  25.716   9.954  11.772
87014W        W87879  26.220   9.024  14.214
87015W        W87880  26.924   7.584  14.400
87016W        W87881  27.633   7.726  13.756
87017W        W87882  26.828   7.494  12.037
87018W        W87883  27.887   7.571  11.542
87019W        W87884  25.832   7.503  13.119
87020W        W87885  25.880   8.466  12.489
87021W        W87886  28.569   7.574  12.895
87022W        W87887  25.991   8.072  11.709
87023W        W87888  28.562   7.760  13.325
87024W        W87889  28.958   8.963  11.010
87025W        W87890  26.250   7.721  12.829
87026W        W87891  27.364   8.293  13.769
87027W        W87892  25.512   7.983  11.247
87028W        W87893  26.298   9.372  13.808
87029W        W87894  27.656   8.770  12.987
87030W        W87895  27.523  10.849  11.283
87031W        W87896  25.669   9.356  10.980
87032W        W87897  26.404   9.767  14.106
87033W        W87898  25.925   8.934  13.737
87034W        W87899  26.916   9.039  13.531
87035W        W87900  28.684   7.398  13.793
87036W        W87901  29.082   9.008  13.784
87037W        W87902  29.070   9.208  11.470
87038W        W87903  27.933   9.540  11.569
87039W        W87904  28.407  10.840  11.264
87040W        W87905  27.584   8.830  14.406
87041W        W87906  25.914   9.797  14.446
87042W        W87907  29.120   7.719  14.398
87043W        W87908  28.838   8.647  13.019
87044W        W87909  27.146  10.777  14.496
87045W        W87910  27.001   7.406  11.223
87046W        W87911  28.540  10.005  11.166
87047W        W87912  26.309   8.098  14.052
87048W        W87913  26.743  10.092  13.914
87049W        W87914  28.869   8.083  13.712
87050W        W87915  28.080  10.742  11.680
87051W        W87916  28.319   9.361  13.047
87052W        W87917  26.569   7.777  13.714
87053W        W87918  27.038   8.846  14.471
87054W        W87919  26.541  10.025  11.665
87055W        W87920  28.296   9.523  11.929
87056W        W87921  26.064   8.149  13.653
87057W        W87922  27.393  10.211  12.117
87058W        W87923  29.143   8.771  12.298
87059W        W87924  27.365   7.404  14.017
87060W        W87925  28.145  10.109  13.096
87061W        W87926  28.448  10.453  12.804
87062W        W87927  27.667  10.255  11.232
87063W        W87928  25.677  10.147  14.074
87064W        W87929  26.420   8.139  13.312
87065W        W87930  26.390   7.487  12.422
87066W        W87931  28.011   8.329  13.114
87067W        W87932  26.809   9.500  11.314
87068W        W87933  28.807   9.442  12.813
87069W        W87934  26.134  10.200  14.236
87070W        W87935  28.521  10.882  12.033
87071W        W87936  26.620   7.902  12.478
87072W        W87937  26.389   9.395  12.568
87073W        W87938  26.702  10.806  13.318
87074W        W87939  28.769  10.902  14.350
87075W        W87940  27.928   9.090  13.283
87076W        W87941  25.777   8.888  11.198
87077W        W87942  28.911  10.546  11.895
87078W        W87943  28.748   7.870  11.514
87079W        W87944  26.887   7.389  13.917
87080W        W87945  28.593  10.191  12.375
87081W        W87946  28.622   8.747  12.280
87082W        W87947  26.739   8.420  12.496
87083W        W87948  26.984   8.682  13.820
87084W        W87949  28.095   9.835  13.683
87085W        W87950  26.745   8.289  13.795
87086W        W87951  26.724  10.755  12.411
87087W        W87952  26.041  10.714  14.045
87088W        W87953  26.153  10.075  11.175
87089W        W87954  28.670   9.833  11.985
87090W        W87955  26.274   8.625  13.871
87091W        W87956  29.047   8.555  11.352
87092W        W87957  26.792   9.612  11.823
87093W        W87958  27.891   8.994  13.904
87094W        W87959  27.782   8.622  13.448
87095W        W87960  26.342   8.994  13.477
87096W        W87961  28.552  10.882  13.306
87097W        W87962  28.343   7.516  14.300
87098W        W87963  26.007   7.666  13.887
87099W        W87964  26.346   8.689  12.940
87100W        W87965  26.715   8.503  11.062
87101W        W87966  25.518  10.262  13.607
87102W        W87967  27.103   8.971  13.050
87103W        W87968  26.926   7.996  11.155
87104W        W87969  26.061   8.812  11.936
87105W        W87970  25.832  10.664  13.373
87106W        W87971  28.627   8.890  11.481
87107W        W87972  28.722   7.806  14.167
87108W        W87973  28.158  10.015  12.130
87109W        W87974  25.756   8.939  14.307
87110W        W87975  28.722   7.403  11.603
87111W        W87976  28.242   9.878  11.614
87112W        W87977  27.144   8.936  11.699
87113W        W87978  28.331   7.740  11.222
87114W        W87979  28.396   8.347  13.408
87115W        W87980  26.105   8.940  12.615
87116W        W87981  26.399   9.879  12.264
87117W        W87982  28.162   8.499  12.229
87118W        W87983  27.185   7.878  12.925
87119W        W87984  29.147   9.789  13.436
87120W        W87985  29.065   7.776  12.997
87121W        W87986  25.604  10.606  12.373
87122W        W87987  26.113   9.793  11.909
87123W        W87988  26.028   7.410  14.462
87124W        W87989  27.147  10.263  14.564
87125W        W87990  28.902   9.231  12.354
87126W        W87991  28.256   9.408  11.234
87127W        W87992  27.551  10.929  13.446
87128W        W87993  28.408   9.651  14.483
87129W        W87994  27.223   7.361  11.763
87130W        W87995  27.936   8.230  12.622
87131W        W87996  25.622   9.817  12.954
87132W        W87997  26.875   7.779  11.595
87133W        W87998  26.679   9.263  14.444
87134W        W87999  27.673   8.244  12.158
87135W        W88000  27.878   9.654  13.280
87136W        W88001  26.032  10.259  13.715
87137W        W88002  26.623  10.242  14.438
87138W        W88003  26.474   8.039  11.452
87139W        W88004  27.991   8.181  11.777
87140W        W88005  27.949  10.289  14.014
87141W        W88006  26.634   8.881  12.613
87142W        W88007  26.289  10.579  13.478
87143W        W88008  29.034  10.696  11.079
87144W        W88009  25.897   9.368  14.075
87145W        W88010  27.892   9.630  12.763
87146W        W88011  26.328   9.279  12.005
87147W        W88012  26.699  10.286  13.400
87148W        W88013  27.077   7.705  12.441
87149W        W88014  25.688   9.689  11.371
87150W        W88015  27.207   8.640  11.241
87151W        W88016  25.853   9.189  12.260
87152W        W88017  27.143   7.831  13.724
87153W        W88018  28.815   7.540  11.151
87154W        W88019  28.908   9.286  14.250
87155W        W88020  27.562  10.543  14.402
87156W        W88021  29.120   9.637  13.924
87157W        W88022  28.528  10.435  14.535
87158W        W88023  26.267  10.891  13.013
87159W        W88024  29.126   9.513  11.887
87160W        W88025  27.656   8.780  12.400
87161W        W88026  27.423   7.392  12.290
87162W        W88027  26.482  10.376  12.127
87163W        W88028  26.981   8.117  13.352
87164W        W88029  26.681   7.486  12.821
87165W        W88030  25.744  10.308  11.369
87166W        W88031  27.560   9.672  12.087
87167W        W88032  26.435  10.467  13.966
87168W        W88033  25.912   9.290  11.662
87169W        W88034  25.797   7.833  12.661
87170W        W88035  27.345   9.798  12.718
87171W        W88036  25.597   7.652  11.738
87172W        W88037  28.261   8.858  13.665
87173W        W88038  28.138   8.244  11.237
87174W        W88039  28.655   9.916  12.885
87175W        W88040  27.316  10.400  12.716
87176W        W88041  26.728  10.504  11.627
87177W        W88042  28.010   7.407  11.057
87178W        W88043  25.810  10.667  12.798
87179W        W88044  28.007   8.425  14.433
87180W        W88045  25.990   7.955  14.432
87181W        W88046  25.721   8.555  11.765
87182W        W88047  26.412   8.544  11.490
87183W        W88048  28.175   8.871  14.307
87184W        W88049  26.518   9.152  13.016
87185W        W88050  27.992   7.438  12.136
87186W        W88051  27.123  10.869  12.639
87187W        W88052  28.337  10.331  13.576
87188W        W88053  27.921  10.480  12.687
87189W        W88054  27.940   9.460  12.281
87190W        W88055  27.402   7.685  11.352
87191W        W88056  29.083   7.313  12.074
87192W        W88057  26.771   8.948  11.237
87193W        W88058  28.937   8.285  12.227
87194W        W88059  27.629   9.455  11.104
87195W        W88060  28.565   9.655  13.852
87196W        W88061  28.219  10.356  11.319
87197W        W88062  26.834   8.031  14.225
87198W        W88063  26.654   8.615  13.466
87199W        W88064  28.746  10.110  13.743
87200W        W88065  27.846   8.060  14.120
87201W        W88066  25.690   8.531  13.897
87202W        W88067  27.450   9.008  13.623
87203W        W88068  25.807   9.766  12.280
87204W        W88069  25.954   9.063  13.170
87205W        W88070  28.271   9.349  13.520
87206W        W88071  28.043  10.729  14.331
87207W        W88072  27.939   8.468  13.884
87208W        W88073  28.216  10.522  12.289
87209W        W88074  27.218  10.242  13.612
87210W        W88075  26.703  10.597  12.881
87211W        W88076  28.508   9.768  13.300
87212W        W88077  27.558   9.840  14.437
87213W        W88078  26.163   9.793  12.776
87214W        W88079  28.509   9.552  12.421
87215W        W88080  28.150  10.618  13.172
87216W        W88081  26.128  10.347  13.042
87217W        W88082  27.149   8.399  14.252
87218W        W88083  27.600  10.565  11.763
87219W        W88084  26.908   9.820  14.401
87220W        W88085  27.034  10.058  11.778
87221W        W88086  26.255   8.798  11.037
87222W        W88087  25.594  10.884  17.936
87223W        W88088  25.970   9.777  17.459
87224W        W88089  28.675   9.507  15.229
87225W        W88090  28.805  10.592  17.256
87226W        W88091  26.723  10.583  14.782
87227W        W88092  26.806   8.735  15.765
87228W        W88093  26.321   8.583  15.929
87229W        W88094  27.312   9.398  15.363
87230W        W88095  26.987  10.490  17.718
87231W        W88096  25.636   8.051  17.681
87232W        W88097  26.398   7.331  17.483
87233W        W88098  28.092   7.719  16.370
87234W        W88099  27.741   8.590  14.940
87235W        W88100  28.311   8.024  18.031
87236W        W88101  25.677   7.816  17.156
87237W        W88102  25.776  10.435  18.177
87238W        W88103  27.298   9.825  14.909
87239W        W88104  25.730   8.608  16.602
87240W        W88105  26.623   8.499  17.839
87241W        W88106  29.082   8.358  16.338
87242W        W88107  28.846   9.401  17.197
87243W        W88108  27.154   8.734  16.224
87244W        W88109  27.700  10.073  16.593
87245W        W88110  26.200   9.507  16.825
87246W        W88111  25.559   9.035  16.396
87247W        W88112  26.595   9.007  17.588
87248W        W88113  28.866   8.790  17.842
87249W        W88114  26.482  10.234  16.287
87250W        W88115  27.603   9.923  17.421
87251W        W88116  26.823   8.563  16.646
87252W        W88117  27.115   9.347  16.289
87253W        W88118  28.112  10.120  18.137
87254W        W88119  27.191   9.440  18.147
87255W        W88120  27.172   9.156  17.625
87256W        W88121  25.581   8.547  18.147
87257W        W88122  28.413  10.082  17.746
87258W        W88123  25.994   7.664  15.744
87259W        W88124  26.521   9.922  16.743
87260W        W88125  28.984   9.705  16.033
87261W        W88126  28.397   8.105  16.600
87262W        W88127  28.682   8.058  14.695
87263W        W88128  29.147   8.859  17.001
87264W        W88129  27.114  10.566  16.754
87265W        W88130  28.888  10.032  15.192
87266W        W88131  26.017  10.818  14.946
87267W        W88132  26.410  10.864  15.622
87268W        W88133  26.207   7.618  17.048
87269W        W88134  28.830   8.636  17.323
87270W        W88135  28.235   9.058  15.782
87271W        W88136  28.201   8.746  14.809
87272W        W88137  27.409   9.890  16.949
87273W        W88138  27.215   8.220  16.148
87274W        W88139  27.815  10.307  17.142
87275W        W88140  28.686   9.098  15.564
87276W        W88141  27.588   7.756  15.580
87277W        W88142  26.245  10.450  15.263
87278W        W88143  25.616   7.949  15.862
87279W        W88144  28.402   8.556  16.336
87280W        W88145  25.860  10.173  16.251
87281W        W88146  27.201  10.523  15.121
87282W        W88147  28.593   8.549  14.585
87283W        W88148  25.616  10.307  16.749
87284W        W88149  26.407   9.879  17.229
87285W        W88150  26.780   9.239  15.848
87286W        W88151  26.802   7.644  16.941
87287W        W88152  29.031   7.406  16.238
87288W        W88153  26.250   9.278  14.706
87289W        W88154  25.905   8.311  14.885
87290W        W88155  25.967  10.267  15.679
87291W        W88156  27.098   9.750  15.927
87292W        W88157  28.430  10.609  17.641
87293W        W88158  27.356   8.251  15.325
87294W        W88159  28.739  10.649  16.097
87295W        W88160  28.416   8.502  17.695
87296W        W88161  29.129  10.158  15.829
87297W        W88162  27.756   9.450  17.313
87298W        W88163  25.522   9.001  15.519
87299W        W88164  26.633   9.416  17.092
87300W        W88165  27.837   8.680  15.470
87301W        W88166  27.714   9.170  15.574
87302W        W88167  26.057   8.590  17.048
87303W        W88168  26.042   8.466  17.970
87304W        W88169  25.932   7.383  16.129
87305W        W88170  27.700   7.730  16.690
87306W        W88171  27.348   7.915  17.853
87307W        W88172  27.703   8.064  15.031
87308W        W88173  28.886  10.457  17.785
87309W        W88174  27.853   7.538  17.824
87310W        W88175  28.872   9.839  17.946
87311W        W88176  28.302   8.006  17.542
87312W        W88177  28.102   7.944  15.812
87313W        W88178  28.495   9.078  18.216
87314W        W88179  26.235  10.654  16.202
87315W        W88180  26.893   8.371  15.188
87316W        W88181  26.462   7.655  17.852
87317W        W88182  28.514   8.139  15.533
87318W        W88183  28.881   8.621  15.478
87319W        W88184  26.624  10.838  17.949
87320W        W88185  26.550   7.374  15.184
87321W        W88186  28.871   7.908  16.219
87322W        W88187  29.021  10.157  14.664
87323W        W88188  25.928   9.360  16.366
87324W        W88189  27.845   7.947  14.596
87325W        W88190  28.979  10.279  16.316
87326W        W88191  29.018   7.473  17.066
87327W        W88192  27.463   8.685  17.620
87328W        W88193  27.556  10.024  15.323
87329W        W88194  27.956   9.318  18.063
87330W        W88195  27.630   7.295  16.372
87331W        W88196  26.242   8.198  16.435
87332W        W88197  25.796   9.398  17.209
87333W        W88198  27.655  10.591  15.915
87334W        W88199  28.849   8.188  16.787
87335W        W88200  27.486  10.535  17.554
87336W        W88201  28.829   9.594  14.759
87337W        W88202  27.264   9.077  15.820
87338W        W88203  29.116   7.588  17.561
87339W        W88204  27.265   9.423  17.155
87340W        W88205  27.482   8.309  16.600
87341W        W88206  28.334   8.607  15.438
87342W        W88207  28.621   8.340  15.080
87343W        W88208  28.430  10.380  15.469
87344W        W88209  28.264   9.983  16.265
87345W        W88210  28.160   9.062  15.243
87346W        W88211  27.593   9.272  16.229
87347W        W88212  28.474   9.060  16.296
87348W        W88213  25.849   8.075  16.720
87349W        W88214  28.627   9.127  17.547
87350W        W88215  28.978  10.745  16.693
87351W        W88216  26.908  10.189  16.095
87352W        W88217  27.915  10.722  17.419
87353W        W88218  27.909   8.052  17.183
87354W        W88219  27.116  10.760  17.244
87355W        W88220  28.813   7.714  15.710
87356W        W88221  28.604   9.033  17.011
87357W        W88222  25.587   8.354  17.049
87358W        W88223  28.447   8.149  16.067
87359W        W88224  28.858   8.300  17.844
87360W        W88225  27.743   9.999  16.062
87361W        W88226  26.999  10.590  15.675
87362W        W88227  26.114   7.770  14.933
87363W        W88228  27.218   7.424  16.743
87364W        W88229  26.246  10.544  14.591
87365W        W88230  26.620   9.010  15.342
87366W        W88231  27.274   9.639  17.655
87367W        W88232  27.104   7.997  15.645
87368W        W88233  28.460   7.594  16.073
87369W        W88234  28.180  10.876  16.401
87370W        W88235  27.592  10.524  16.741
87371W        W88236  26.988   9.561  16.702
87372W        W88237  28.758  10.284  16.828
87373W        W88238  26.452   7.787  15.597
87374W        W88239  26.974  10.084  16.557
87375W        W88240  26.457   8.015  14.622
87376W        W88241  27.258   8.624  17.016
87377W        W88242  28.106   7.490  16.886
87378W        W88243  25.526   9.333  16.771
87379W        W88244  27.230   9.151  14.929
87380W        W88245  26.498   7.466  14.699
87381W        W88246  27.236   8.547  15.750
87382W        W88247  28.206   7.523  17.449
87383W        W88248  26.794   9.535  17.558
87384W        W88249  27.598   9.317  17.775
87385W        W88250  28.215   9.347  17.668
87386W        W88251  27.499   7.487  18.173
87387W        W88252  26.721   8.103  16.566
87388W        W88253  26.147   8.059  15.964
87389W        W88254  25.933  10.771  15.640
87390W        W88255  27.265  10.101  17.765
87391W        W88256  26.300   9.586  15.124
87392W        W88257  27.980   8.971  16.345
87393W        W88258  28.260   8.770  16.744
87394W        W88259  27.465   9.444  16.678
87395W        W88260  27.935   9.818  14.810
87396W        W88261  27.607   7.839  16.138
87397W        W88262  29.086   8.117  15.406
87398W        W88263  25.580  10.706  17.437
87399W        W88264  25.997   9.932  16.969
87400W        W88265  25.564  10.778  15.201
87401W        W88266  27.463   8.048  17.007
87402W        W88267  26.826  10.071  14.856
87403W        W88268  28.731  10.453  15.042
87404W        W88269  27.706   9.106  15.056
87405W        W88270  26.549   8.297  15.573
87406W        W88271  27.381   8.207  14.625
87407W        W88272  27.965   9.772  17.803
87408W        W88273  28.318   7.678  15.420
87409W        W88274  25.648   7.526  14.868
87410W        W88275  26.934   9.845  17.158
87411W        W88276  26.733   9.761  16.250
87412W        W88277  26.475   9.713  14.648
87413W        W88278  25.716   9.954  15.416
87414W        W88279  26.220   9.024  17.858
87415W        W88280  26.924   7.584  18.044
87416W        W88281  27.633   7.726  17.400
87417W        W88282  26.828   7.494  15.681
87418W        W88283  27.887   7.571  15.186
87419W        W88284  25.832   7.503  16.763
87420W        W88285  25.880   8.466  16.133
87421W        W88286  28.569   7.574  16.539
87422W        W88287  25.991   8.072  15.353
87423W        W88288  28.562   7.760  16.969
87424W        W88289  28.958   8.963  14.654
87425W        W88290  26.250   7.721  16.473
87426W        W88291  27.364   8.293  17.413
87427W        W88292  25.512   7.983  14.891
87428W        W88293  26.298   9.372  17.452
87429W        W88294  27.656   8.770  16.631
87430W        W88295  27.523  10.849  14.927
87431W        W88296  25.669   9.356  14.624
87432W        W88297  26.404   9.767  17.750
87433W        W88298  25.925   8.934  17.381
87434W        W88299  26.916   9.039  17.175
87435W        W88300  28.684   7.398  17.437
87436W        W88301  29.082   9.008  17.428
87437W        W88302  29.070   9.208  15.114
87438W        W88303  27.933   9.540  15.213
87439W        W88304  28.407  10.840  14.908
87440W        W88305  27.584   8.830  18.050
87441W        W88306  25.914   9.797  18.090
87442W        W88307  29.120   7.719  18.042
87443W        W88308  28.838   8.647  16.663
87444W        W88309  27.146  10.777  18.140
87445W        W88310  27.001   7.406  14.867
87446W        W88311  28.540  10.005  14.810
87447W        W88312  26.309   8.098  17.696
87448W        W88313  26.743  10.092  17.558
87449W        W88314  28.869   8.083  17.356
87450W        W88315  28.080  10.742  15.324
87451W        W88316  28.319   9.361  16.691
87452W        W88317  26.569   7.777  17.358
87453W        W88318  27.038   8.846  18.115
87454W        W88319  26.541  10.025  15.309
87455W        W88320  28.296   9.523  15.573
87456W        W88321  26.064   8.149  17.297
87457W        W88322  27.393  10.211  15.761
87458W        W88323  29.143   8.771  15.942
87459W        W88324  27.365   7.404  17.661
87460W        W88325  28.145  10.109  16.740
87461W        W88326  28.448  10.453  16.448
87462W        W88327  27.667  10.255  14.876
87463W        W88328  25.677  10.147  17.718
87464W        W88329  26.420   8.139  16.956
87465W        W88330  26.390   7.487  16.066
87466W        W88331  28.011   8.329  16.758
87467W        W88332  26.809   9.500  14.958
87468W        W88333  28.807   9.442  16.457
87469W        W88334  26.134  10.200  17.880
87470W        W88335  28.521  10.882  15.677
87471W        W88336  26.620   7.902  16.122
87472W        W88337  26.389   9.395  16.212
87473W        W88338  26.702  10.806  16.962
87474W        W88339  28.769  10.902  17.994
87475W        W88340  27.928   9.090  16.927
87476W        W88341  25.777   8.888  14.842
87477W        W88342  28.911  10.546  15.539
87478W        W88343  28.748   7.870  15.158
87479W        W88344  26.887   7.389  17.561
87480W        W88345  28.593  10.191  16.019
87481W        W88346  28.622   8.747  15.924
87482W        W88347  26.739   8.420  16.140
87483W        W88348  26.984   8.682  17.464
87484W        W88349  28.095   9.835  17.327
87485W        W88350  26.745   8.289  17.439
87486W        W88351  26.724  10.755  16.055
87487W        W88352  26.041  10.714  17.689
87488W        W88353  26.153  10.075  14.819
87489W        W88354  28.670   9.833  15.629
87490W        W88355  26.274   8.625  17.515
87491W        W88356  29.047   8.555  14.996
87492W        W88357  26.792   9.612  15.467
87493W        W88358  27.891   8.994  17.548
87494W        W88359  27.782   8.622  17.092
87495W        W88360  26.342   8.994  17.121
87496W        W88361  28.552  10.882  16.950
87497W        W88362  28.343   7.516  17.944
87498W        W88363  26.007   7.666  17.531
87499W        W88364  26.346   8.689  16.584
87500W        W88365  26.715   8.503  14.706
87501W        W88366  25.518  10.262  17.251
87502W        W88367  27.103   8.971  16.694
87503W        W88368  26.926   7.996  14.799
87504W        W88369  26.061   8.812  15.580
87505W        W88370  25.832  10.664  17.017
87506W        W88371  28.627   8.890  15.125
87507W        W88372  28.722   7.806  17.811
87508W        W88373  28.158  10.015  15.774
87509W        W88374  25.756   8.939  17.951
87510W        W88375  28.722   7.403  15.247
87511W        W88376  28.242   9.878  15.258
87512W        W88377  27.144   8.936  15.343
87513W        W88378  28.331   7.740  14.866
87514W        W88379  28.396   8.347  17.052
87515W        W88380  26.105   8.940  16.259
87516W        W88381  26.399   9.879  15.908
87517W        W88382  28.162   8.499  15.873
87518W        W88383  27.185   7.878  16.569
87519W        W88384  29.147   9.789  17.080
87520W        W88385  29.065   7.776  16.641
87521W        W88386  25.604  10.606  16.017
87522W        W88387  26.113   9.793  15.553
87523W        W88388  26.028   7.410  18.106
87524W        W88389  27.147  10.263  18.208
87525W        W88390  28.902   9.231  15.998
87526W        W88391  28.256   9.408  14.878
87527W        W88392  27.551  10.929  17.090
87528W        W88393  28.408   9.651  18.127
87529W        W88394  27.223   7.361  15.407
87530W        W88395  27.936   8.230  16.266
87531W        W88396  25.622   9.817  16.598
87532W        W88397  26.875   7.779  15.239
87533W        W88398  26.679   9.263  18.088
87534W        W88399  27.673   8.244  15.802
87535W        W88400  27.878   9.654  16.924
87536W        W88401  26.032  10.259  17.359
87537W        W88402  26.623  10.242  18.082
87538W        W88403  26.474   8.039  15.096
87539W        W88404  27.991   8.181  15.421
87540W        W88405  27.949  10.289  17.658
87541W        W88406  26.634   8.881  16.257
87542W        W88407  26.289  10.579  17.122
87543W        W88408  29.034  10.696  14.723
87544W        W88409  25.897   9.368  17.719
87545W        W88410  27.892   9.630  16.407
87546W        W88411  26.328   9.279  15.649
87547W        W88412  26.699  10.286  17.044
87548W        W88413  27.077   7.705  16.085
87549W        W88414  25.688   9.689  15.015
87550W        W88415  27.207   8.640  14.885
87551W        W88416  25.853   9.189  15.904
87552W        W88417  27.143   7.831  17.368
87553W        W88418  28.815   7.540  14.795
87554W        W88419  28.908   9.286  17.894
87555W        W88420  27.562  10.543  18.046
87556W        W88421  29.120   9.637  17.568
87557W        W88422  28.528  10.435  18.179
87558W        W88423  26.267  10.891  16.657
87559W        W88424  29.126   9.513  15.531
87560W        W88425  27.656   8.780  16.044
87561W        W88426  27.423   7.392  15.934
87562W        W88427  26.482  10.376  15.771
87563W        W88428  26.981   8.117  16.996
87564W        W88429  26.681   7.486  16.465
87565W        W88430  25.744  10.308  15.013
87566W        W88431  27.560   9.672  15.731
87567W        W88432  26.435  10.467  17.610
87568W        W88433  25.912   9.290  15.306
87569W        W88434  25.797   7.833  16.305
87570W        W88435  27.345   9.798  16.362
87571W        W88436  25.597   7.652  15.382
87572W        W88437  28.261   8.858  17.309
87573W        W88438  28.138   8.244  14.881
87574W        W88439  28.655   9.916  16.529
87575W        W88440  27.316  10.400  16.360
87576W        W88441  26.728  10.504  15.271
87577W        W88442  28.010   7.407  14.701
87578W        W88443  25.810  10.667  16.442
87579W        W88444  28.007   8.425  18.077
87580W        W88445  25.990   7.955  18.076
87581W        W88446  25.721   8.555  15.409
87582W        W88447  26.412   8.544  15.134
87583W        W88448  28.175   8.871  17.951
87584W        W88449  26.518   9.152  16.660
87585W        W88450  27.992   7.438  15.780
87586W        W88451  27.123  10.869  16.283
87587W        W88452  28.337  10.331  17.220
87588W        W88453  27.921  10.480  16.331
87589W        W88454  27.940   9.460  15.925
87590W        W88455  27.402   7.685  14.996
87591W        W88456  29.083   7.313  15.718
87592W        W88457  26.771   8.948  14.881
87593W        W88458  28.937   8.285  15.871
87594W        W88459  27.629   9.455  14.748
87595W        W88460  28.565   9.655  17.496
87596W        W88461  28.219  10.356  14.963
87597W        W88462  26.834   8.031  17.869
87598W        W88463  26.654   8.615  17.110
87599W        W88464  27.846   8.060  17.764
87600W        W88465  25.690   8.531  17.541
87601W        W88466  27.450   9.008  17.267
87602W        W88467  25.807   9.766  15.924
87603W        W88468  25.954   9.063  16.814
87604W        W88469  28.271   9.349  17.164
87605W        W88470  28.043  10.729  17.975
87606W        W88471  27.939   8.468  17.528
87607W        W88472  28.216  10.522  15.933
87608W        W88473  27.218  10.242  17.256
87609W        W88474  26.703  10.597  16.525
87610W        W88475  28.508   9.768  16.944
87611W        W88476  27.558   9.840  18.081
87612W        W88477  26.163   9.793  16.420
87613W        W88478  28.509   9.552  16.065
87614W        W88479  28.150  10.618  16.816
87615W        W88480  26.128  10.347  16.686
87616W        W88481  27.149   8.399  17.896
87617W        W88482  27.600  10.565  15.407
87618W        W88483  26.908   9.820  18.045
87619W        W88484  27.034  10.058  15.422
87620W        W88485  26.255   8.798  14.681
87621W        W88486  25.594  10.884  21.580
87622W        W88487  25.970   9.777  21.103
87623W        W88488  28.675   9.507  18.873
87624W        W88489  28.805  10.592  20.900
87625W        W88490  26.723  10.583  18.426
87626W        W88491  26.806   8.735  19.409
87627W        W88492  26.321   8.583  19.573
87628W        W88493  27.312   9.398  19.007
87629W        W88494  26.987  10.490  21.362
87630W        W88495  25.636   8.051  21.325
87631W        W88496  26.398   7.331  21.127
87632W        W88497  28.092   7.719  20.014
87633W        W88498  27.741   8.590  18.584
87634W        W88499  28.311   8.024  21.675
87635W        W88500  25.677   7.816  20.800
87636W        W88501  25.776  10.435  21.821
87637W        W88502  27.298   9.825  18.553
87638W        W88503  25.730   8.608  20.246
87639W        W88504  26.623   8.499  21.483
87640W        W88505  29.082   8.358  19.982
87641W        W88506  28.846   9.401  20.841
87642W        W88507  27.154   8.734  19.868
87643W        W88508  27.700  10.073  20.237
87644W        W88509  26.200   9.507  20.469
87645W        W88510  25.559   9.035  20.040
87646W        W88511  26.595   9.007  21.232
87647W        W88512  28.866   8.790  21.486
87648W        W88513  26.482  10.234  19.931
87649W        W88514  27.603   9.923  21.065
87650W        W88515  26.823   8.563  20.290
87651W        W88516  27.115   9.347  19.933
87652W        W88517  28.112  10.120  21.781
87653W        W88518  27.191   9.440  21.791
87654W        W88519  27.172   9.156  21.269
87655W        W88520  25.581   8.547  21.791
87656W        W88521  28.413  10.082  21.390
87657W        W88522  25.994   7.664  19.388
87658W        W88523  26.521   9.922  20.387
87659W        W88524  28.984   9.705  19.677
87660W        W88525  28.397   8.105  20.244
87661W        W88526  28.682   8.058  18.339
87662W        W88527  29.147   8.859  20.645
87663W        W88528  27.114  10.566  20.398
87664W        W88529  28.888  10.032  18.836
87665W        W88530  26.017  10.818  18.590
87666W        W88531  26.410  10.864  19.266
87667W        W88532  26.207   7.618  20.692
87668W        W88533  28.830   8.636  20.967
87669W        W88534  28.235   9.058  19.426
87670W        W88535  28.201   8.746  18.453
87671W        W88536  27.409   9.890  20.593
87672W        W88537  27.215   8.220  19.792
87673W        W88538  27.815  10.307  20.786
87674W        W88539  28.686   9.098  19.208
87675W        W88540  27.588   7.756  19.224
87676W        W88541  26.245  10.450  18.907
87677W        W88542  25.616   7.949  19.506
87678W        W88543  28.402   8.556  19.980
87679W        W88544  25.860  10.173  19.895
87680W        W88545  27.201  10.523  18.765
87681W        W88546  28.593   8.549  18.229
87682W        W88547  25.616  10.307  20.393
87683W        W88548  26.407   9.879  20.873
87684W        W88549  26.780   9.239  19.492
87685W        W88550  26.802   7.644  20.585
87686W        W88551  29.031   7.406  19.882
87687W        W88552  26.250   9.278  18.350
87688W        W88553  25.905   8.311  18.529
87689W        W88554  25.967  10.267  19.323
87690W        W88555  27.098   9.750  19.571
87691W        W88556  28.430  10.609  21.285
87692W        W88557  27.356   8.251  18.969
87693W        W88558  28.739  10.649  19.741
87694W        W88559  28.416   8.502  21.339
87695W        W88560  29.129  10.158  19.473
87696W        W88561  27.756   9.450  20.957
87697W        W88562  25.522   9.001  19.163
87698W        W88563  26.633   9.416  20.736
87699W        W88564  27.837   8.680  19.114
87700W        W88565  27.714   9.170  19.218
87701W        W88566  26.057   8.590  20.692
87702W        W88567  26.042   8.466  21.614
87703W        W88568  25.932   7.383  19.773
87704W        W88569  27.700   7.730  20.334
87705W        W88570  27.348   7.915  21.497
87706W        W88571  27.703   8.064  18.675
87707W        W88572  28.886  10.457  21.429
87708W        W88573  27.853   7.538  21.468
87709W        W88574  28.872   9.839  21.590
87710W        W88575  28.302   8.006  21.186
87711W        W88576  28.102   7.944  19.456
87712W        W88577  28.495   9.078  21.860
87713W        W88578  26.235  10.654  19.846
87714W        W88579  26.893   8.371  18.832
87715W        W88580  26.462   7.655  21.496
87716W        W88581  28.514   8.139  19.177
87717W        W88582  28.881   8.621  19.122
87718W        W88583  26.624  10.838  21.593
87719W        W88584  26.550   7.374  18.828
87720W        W88585  28.871   7.908  19.863
87721W        W88586  29.021  10.157  18.308
87722W        W88587  25.928   9.360  20.010
87723W        W88588  27.845   7.947  18.240
87724W        W88589  28.979  10.279  19.960
87725W        W88590  29.018   7.473  20.710
87726W        W88591  27.463   8.685  21.264
87727W        W88592  27.556  10.024  18.967
87728W        W88593  27.956   9.318  21.707
87729W        W88594  27.630   7.295  20.016
87730W        W88595  26.242   8.198  20.079
87731W        W88596  25.796   9.398  20.853
87732W        W88597  27.655  10.591  19.559
87733W        W88598  28.849   8.188  20.431
87734W        W88599  27.486  10.535  21.198
87735W        W88600  28.829   9.594  18.403
87736W        W88601  27.264   9.077  19.464
87737W        W88602  29.116   7.588  21.205
87738W        W88603  27.265   9.423  20.799
87739W        W88604  27.482   8.309  20.244
87740W        W88605  28.334   8.607  19.082
87741W        W88606  28.621   8.340  18.724
87742W        W88607  28.430  10.380  19.113
87743W        W88608  28.264   9.983  19.909
87744W        W88609  28.160   9.062  18.887
87745W        W88610  27.593   9.272  19.873
87746W        W88611  28.474   9.060  19.940
87747W        W88612  25.849   8.075  20.364
87748W        W88613  28.627   9.127  21.191
87749W        W88614  28.978  10.745  20.337
87750W        W88615  26.908  10.189  19.739
87751W        W88616  27.915  10.722  21.063
87752W        W88617  27.909   8.052  20.827
87753W        W88618  27.116  10.760  20.888
87754W        W88619  28.813   7.714  19.354
87755W        W88620  28.604   9.033  20.655
87756W        W88621  25.587   8.354  20.693
87757W        W88622  28.447   8.149  19.711
87758W        W88623  28.858   8.300  21.488
87759W        W88624  27.743   9.999  19.706
87760W        W88625  26.999  10.590  19.319
87761W        W88626  26.114   7.770  18.577
87762W        W88627  27.218   7.424  20.387
87763W        W88628  26.246  10.544  18.235
87764W        W88629  26.620   9.010  18.986
87765W        W88630  27.274   9.639  21.299
87766W        W88631  27.104   7.997  19.289
87767W        W88632  28.460   7.594  19.717
87768W        W88633  28.180  10.876  20.045
87769W        W88634  27.592  10.524  20.385
87770W        W88635  26.988   9.561  20.346
87771W        W88636  28.758  10.284  20.472
87772W        W88637  26.452   7.787  19.241
87773W        W88638  26.974  10.084  20.201
87774W        W88639  26.457   8.015  18.266
87775W        W88640  27.258   8.624  20.660
87776W        W88641  28.106   7.490  20.530
87777W        W88642  25.526   9.333  20.415
87778W        W88643  27.230   9.151  18.573
87779W        W88644  26.498   7.466  18.343
87780W        W88645  27.236   8.547  19.394
87781W        W88646  28.206   7.523  21.093
87782W        W88647  26.794   9.535  21.202
87783W        W88648  27.598   9.317  21.419
87784W        W88649  28.215   9.347  21.312
87785W        W88650  27.499   7.487  21.817
87786W        W88651  26.721   8.103  20.210
87787W        W88652  26.147   8.059  19.608
87788W        W88653  25.933  10.771  19.284
87789W        W88654  27.265  10.101  21.409
87790W        W88655  26.300   9.586  18.768
87791W        W88656  27.980   8.971  19.989
87792W        W88657  28.260   8.770  20.388
87793W        W88658  27.465   9.444  20.322
87794W        W88659  27.935   9.818  18.454
87795W        W88660  27.607   7.839  19.782
87796W        W88661  29.086   8.117  19.050
87797W        W88662  25.580  10.706  21.081
87798W        W88663  25.997   9.932  20.613
87799W        W88664  25.564  10.778  18.845
87800W        W88665  27.463   8.048  20.651
87801W        W88666  26.826  10.071  18.500
87802W        W88667  28.731  10.453  18.686
87803W        W88668  27.706   9.106  18.700
87804W        W88669  26.549   8.297  19.217
87805W        W88670  27.381   8.207  18.269
87806W        W88671  27.965   9.772  21.447
87807W        W88672  28.318   7.678  19.064
87808W        W88673  25.648   7.526  18.512
87809W        W88674  26.934   9.845  20.802
87810W        W88675  26.733   9.761  19.894
87811W        W88676  26.475   9.713  18.292
87812W        W88677  25.716   9.954  19.060
87813W        W88678  26.220   9.024  21.502
87814W        W88679  26.924   7.584  21.688
87815W        W88680  27.633   7.726  21.044
87816W        W88681  26.828   7.494  19.325
87817W        W88682  27.887   7.571  18.830
87818W        W88683  25.832   7.503  20.407
87819W        W88684  25.880   8.466  19.777
87820W        W88685  28.569   7.574  20.183
87821W        W88686  25.991   8.072  18.997
87822W        W88687  28.562   7.760  20.613
87823W        W88688  28.958   8.963  18.298
87824W        W88689  26.250   7.721  20.117
87825W        W88690  27.364   8.293  21.057
87826W        W88691  25.512   7.983  18.535
87827W        W88692  26.298   9.372  21.096
87828W        W88693  27.656   8.770  20.275
87829W        W88694  27.523  10.849  18.571
87830W        W88695  25.669   9.356  18.268
87831W        W88696  26.404   9.767  21.394
87832W        W88697  25.925   8.934  21.025
87833W        W88698  26.916   9.039  20.819
87834W        W88699  28.684   7.398  21.081
87835W        W88700  29.082   9.008  21.072
87836W        W88701  29.070   9.208  18.758
87837W        W88702  27.933   9.540  18.857
87838W        W88703  28.407  10.840  18.552
87839W        W88704  27.584   8.830  21.694
87840W        W88705  25.914   9.797  21.734
87841W        W88706  29.120   7.719  21.686
87842W        W88707  28.838   8.647  20.307
87843W        W88708  27.146  10.777  21.784
87844W        W88709  27.001   7.406  18.511
87845W        W88710  28.540  10.005  18.454
87846W        W88711  26.309   8.098  21.340
87847W        W88712  26.743  10.092  21.202
87848W        W88713  28.869   8.083  21.000
87849W        W88714  28.080  10.742  18.968
87850W        W88715  28.319   9.361  20.335
87851W        W88716  26.569   7.777  21.002
87852W        W88717  27.038   8.846  21.759
87853W        W88718  26.541  10.025  18.953
87854W        W88719  28.296   9.523  19.217
87855W        W88720  26.064   8.149  20.941
87856W        W88721  27.393  10.211  19.405
87857W        W88722  29.143   8.771  19.586
87858W        W88723  27.365   7.404  21.305
87859W        W88724  28.145  10.109  20.384
87860W        W88725  28.448  10.453  20.092
87861W        W88726  27.667  10.255  18.520
87862W        W88727  25.677  10.147  21.362
87863W        W88728  26.420   8.139  20.600
87864W        W88729  26.390   7.487  19.710
87865W        W88730  28.011   8.329  20.402
87866W        W88731  26.809   9.500  18.602
87867W        W88732  28.807   9.442  20.101
87868W        W88733  26.134  10.200  21.524
87869W        W88734  28.521  10.882  19.321
87870W        W88735  26.620   7.902  19.766
87871W        W88736  26.389   9.395  19.856
87872W        W88737  26.702  10.806  20.606
87873W        W88738  28.769  10.902  21.638
87874W        W88739  27.928   9.090  20.571
87875W        W88740  25.777   8.888  18.486
87876W        W88741  28.911  10.546  19.183
87877W        W88742  28.748   7.870  18.802
87878W        W88743  26.887   7.389  21.205
87879W        W88744  28.593  10.191  19.663
87880W        W88745  28.622   8.747  19.568
87881W        W88746  26.739   8.420  19.784
87882W        W88747  26.984   8.682  21.108
87883W        W88748  28.095   9.835  20.971
87884W        W88749  26.745   8.289  21.083
87885W        W88750  26.724  10.755  19.699
87886W        W88751  26.041  10.714  21.333
87887W        W88752  26.153  10.075  18.463
87888W        W88753  28.670   9.833  19.273
87889W        W88754  26.274   8.625  21.159
87890W        W88755  29.047   8.555  18.640
87891W        W88756  26.792   9.612  19.111
87892W        W88757  27.891   8.994  21.192
87893W        W88758  27.782   8.622  20.736
87894W        W88759  26.342   8.994  20.765
87895W        W88760  28.552  10.882  20.594
87896W        W88761  28.343   7.516  21.588
87897W        W88762  26.007   7.666  21.175
87898W        W88763  26.346   8.689  20.228
87899W        W88764  26.715   8.503  18.350
87900W        W88765  25.518  10.262  20.895
87901W        W88766  27.103   8.971  20.338
87902W        W88767  26.926   7.996  18.443
87903W        W88768  26.061   8.812  19.224
87904W        W88769  25.832  10.664  20.661
87905W        W88770  28.627   8.890  18.769
87906W        W88771  28.722   7.806  21.455
87907W        W88772  28.158  10.015  19.418
87908W        W88773  25.756   8.939  21.595
87909W        W88774  28.722   7.403  18.891
87910W        W88775  28.242   9.878  18.902
87911W        W88776  27.144   8.936  18.987
87912W        W88777  28.331   7.740  18.510
87913W        W88778  28.396   8.347  20.696
87914W        W88779  26.105   8.940  19.903
87915W        W88780  26.399   9.879  19.552
87916W        W88781  28.162   8.499  19.517
87917W        W88782  27.185   7.878  20.213
87918W        W88783  29.147   9.789  20.724
87919W        W88784  29.065   7.776  20.285
87920W        W88785  25.604  10.606  19.661
87921W        W88786  26.113   9.793  19.197
87922W        W88787  26.028   7.410  21.750
87923W        W88788  27.147  10.263  21.852
87924W        W88789  28.902   9.231  19.642
87925W        W88790  28.256   9.408  18.522
87926W        W88791  27.551  10.929  20.734
87927W        W88792  28.408   9.651  21.771
87928W        W88793  27.223   7.361  19.051
87929W        W88794  27.936   8.230  19.910
87930W        W88795  25.622   9.817  20.242
87931W        W88796  26.875   7.779  18.883
87932W        W88797  26.679   9.263  21.732
87933W        W88798  27.673   8.244  19.446
87934W        W88799  27.878   9.654  20.568
87935W        W88800  26.032  10.259  21.003
87936W        W88801  26.623  10.242  21.726
87937W        W88802  26.474   8.039  18.740
87938W        W88803  27.991   8.181  19.065
87939W        W88804  27.949  10.289  21.302
87940W        W88805  26.634   8.881  19.901
87941W        W88806  26.289  10.579  20.766
87942W        W88807  29.034  10.696  18.367
87943W        W88808  25.897   9.368  21.363
87944W        W88809  27.892   9.630  20.051
87945W        W88810  26.328   9.279  19.293
87946W        W88811  26.699  10.286  20.688
87947W        W88812  27.077   7.705  19.729
87948W        W88813  25.688   9.689  18.659
87949W        W88814  27.207   8.640  18.529
87950W        W88815  25.853   9.189  19.548
87951W        W88816  27.143   7.831  21.012
87952W        W88817  28.815   7.540  18.439
87953W        W88818  28.908   9.286  21.538
87954W        W88819  27.562  10.543  21.690
87955W        W88820  29.120   9.637  21.212
87956W        W88821  28.528  10.435  21.823
87957W        W88822  26.267  10.891  20.301
87958W        W88823  29.126   9.513  19.175
87959W        W88824  27.656   8.780  19.688
87960W        W88825  27.423   7.392  19.578
87961W        W88826  26.482  10.376  19.415
87962W        W88827  26.981   8.117  20.640
87963W        W88828  26.681   7.486  20.109
87964W        W88829  25.744  10.308  18.657
87965W        W88830  27.560   9.672  19.375
87966W        W88831  26.435  10.467  21.254
87967W        W88832  25.912   9.290  18.950
87968W        W88833  25.797   7.833  19.949
87969W        W88834  27.345   9.798  20.006
87970W        W88835  25.597   7.652  19.026
87971W        W88836  28.261   8.858  20.953
87972W        W88837  28.138   8.244  18.525
87973W        W88838  28.655   9.916  20.173
87974W        W88839  27.316  10.400  20.004
87975W        W88840  26.728  10.504  18.915
87976W        W88841  28.010   7.407  18.345
87977W        W88842  25.810  10.667  20.086
87978W        W88843  28.007   8.425  21.721
87979W        W88844  25.990   7.955  21.720
87980W        W88845  25.721   8.555  19.053
87981W        W88846  26.412   8.544  18.778
87982W        W88847  28.175   8.871  21.595
87983W        W88848  26.518   9.152  20.304
87984W        W88849  27.992   7.438  19.424
87985W        W88850  27.123  10.869  19.927
87986W        W88851  28.337  10.331  20.864
87987W        W88852  27.921  10.480  19.975
87988W        W88853  27.940   9.460  19.569
87989W        W88854  27.402   7.685  18.640
87990W        W88855  29.083   7.313  19.362
87991W        W88856  26.771   8.948  18.525
87992W        W88857  28.937   8.285  19.515
87993W        W88858  27.629   9.455  18.392
87994W        W88859  28.565   9.655  21.140
87995W        W88860  28.219  10.356  18.607
87996W        W88861  26.834   8.031  21.513
87997W        W88862  26.654   8.615  20.754
87998W        W88863  28.746  10.110  21.031
87999W        W88864  27.846   8.060  21.408
88000W        W88865  25.690   8.531  21.185
88001W        W88866  27.450   9.008  20.911
88002W        W88867  25.807   9.766  19.568
88003W        W88868  25.954   9.063  20.458
88004W        W88869  28.271   9.349  20.808
88005W        W88870  28.043  10.729  21.619
88006W        W88871  27.939   8.468  21.172
88007W        W88872  28.216  10.522  19.577
88008W        W88873  27.218  10.242  20.900
88009W        W88874  26.703  10.597  20.169
88010W        W88875  28.508   9.768  20.588
88011W        W88876  27.558   9.840  21.725
88012W        W88877  26.163   9.793  20.064
88013W        W88878  28.509   9.552  19.709
88014W        W88879  28.150  10.618  20.460
88015W        W88880  26.128  10.347  20.330
88016W        W88881  27.149   8.399  21.540
88017W        W88882  27.600  10.565  19.051
88018W        W88883  26.908   9.820  21.689
88019W        W88884  27.034  10.058  19.066
88020W        W88885  26.255   8.798  18.325
88021W        W88886  25.594  10.884  25.225
88022W        W88887  25.970   9.777  24.748
88023W        W88888  28.675   9.507  22.518
88024W        W88889  28.805  10.592  24.545
88025W        W88890  26.723  10.583  22.071
88026W        W88891  26.806   8.735  23.054
88027W        W88892  26.321   8.583  23.218
88028W        W88893  27.312   9.398  22.652
88029W        W88894  26.987  10.490  25.007
88030W        W88895  25.636   8.051  24.970
88031W        W88896  26.398   7.331  24.772
88032W        W88897  28.092   7.719  23.659
88033W        W88898  27.741   8.590  22.229
88034W        W88899  28.311   8.024  25.320
88035W        W88900  25.677   7.816  24.445
88036W        W88901  25.776  10.435  25.466
88037W        W88902  27.298   9.825  22.198
88038W        W88903  25.730   8.608  23.891
88039W        W88904  26.623   8.499  25.128
88040W        W88905  29.082   8.358  23.627
88041W        W88906  28.846   9.401  24.486
88042W        W88907  27.154   8.734  23.513
88043W        W88908  27.700  10.073  23.882
88044W        W88909  26.200   9.507  24.114
88045W        W88910  25.559   9.035  23.685
88046W        W88911  26.595   9.007  24.877
88047W        W88912  28.866   8.790  25.131
88048W        W88913  26.482  10.234  23.576
88049W        W88914  27.603   9.923  24.710
88050W        W88915  26.823   8.563  23.935
88051W        W88916  27.115   9.347  23.578
88052W        W88917  28.112  10.120  25.426
88053W        W88918  27.191   9.440  25.436
88054W        W88919  27.172   9.156  24.914
88055W        W88920  25.581   8.547  25.436
88056W        W88921  28.413  10.082  25.035
88057W        W88922  25.994   7.664  23.033
88058W        W88923  26.521   9.922  24.032
88059W        W88924  28.984   9.705  23.322
88060W        W88925  28.397   8.105  23.889
88061W        W88926  28.682   8.058  21.984
88062W        W88927  29.147   8.859  24.290
88063W        W88928  27.114  10.566  24.043
88064W        W88929  28.888  10.032  22.481
88065W        W88930  26.017  10.818  22.235
88066W        W88931  26.410  10.864  22.911
88067W        W88932  26.207   7.618  24.337
88068W        W88933  28.830   8.636  24.612
88069W        W88934  28.235   9.058  23.071
88070W        W88935  28.201   8.746  22.098
88071W        W88936  27.409   9.890  24.238
88072W        W88937  27.215   8.220  23.437
88073W        W88938  27.815  10.307  24.431
88074W        W88939  28.686   9.098  22.853
88075W        W88940  27.588   7.756  22.869
88076W        W88941  26.245  10.450  22.552
88077W        W88942  25.616   7.949  23.151
88078W        W88943  28.402   8.556  23.625
88079W        W88944  25.860  10.173  23.540
88080W        W88945  27.201  10.523  22.410
88081W        W88946  28.593   8.549  21.874
88082W        W88947  25.616  10.307  24.038
88083W        W88948  26.407   9.879  24.518
88084W        W88949  26.780   9.239  23.137
88085W        W88950  26.802   7.644  24.230
88086W        W88951  29.031   7.406  23.527
88087W        W88952  26.250   9.278  21.995
88088W        W88953  25.905   8.311  22.174
88089W        W88954  25.967  10.267  22.968
88090W        W88955  27.098   9.750  23.216
88091W        W88956  28.430  10.609  24.930
88092W        W88957  27.356   8.251  22.614
88093W        W88958  28.739  10.649  23.386
88094W        W88959  28.416   8.502  24.984
88095W        W88960  29.129  10.158  23.118
88096W        W88961  27.756   9.450  24.602
88097W        W88962  25.522   9.001  22.808
88098W        W88963  26.633   9.416  24.381
88099W        W88964  27.837   8.680  22.759
88100W        W88965  27.714   9.170  22.863
88101W        W88966  26.057   8.590  24.337
88102W        W88967  26.042   8.466  25.259
88103W        W88968  25.932   7.383  23.418
88104W        W88969  27.700   7.730  23.979
88105W        W88970  27.348   7.915  25.142
88106W        W88971  27.703   8.064  22.320
88107W        W88972  28.886  10.457  25.074
88108W        W88973  27.853   7.538  25.113
88109W        W88974  28.872   9.839  25.235
88110W        W88975  28.302   8.006  24.831
88111W        W88976  28.102   7.944  23.101
88112W        W88977  28.495   9.078  25.505
88113W        W88978  26.235  10.654  23.491
88114W        W88979  26.893   8.371  22.477
88115W        W88980  26.462   7.655  25.141
88116W        W88981  28.514   8.139  22.822
88117W        W88982  28.881   8.621  22.767
88118W        W88983  26.624  10.838  25.238
88119W        W88984  26.550   7.374  22.473
88120W        W88985  28.871   7.908  23.508
88121W        W88986  29.021  10.157  21.953
88122W        W88987  25.928   9.360  23.655
88123W        W88988  27.845   7.947  21.885
88124W        W88989  28.979  10.279  23.605
88125W        W88990  29.018   7.473  24.355
88126W        W88991  27.463   8.685  24.909
88127W        W88992  27.556  10.024  22.612
88128W        W88993  27.956   9.318  25.352
88129W        W88994  27.630   7.295  23.661
88130W        W88995  26.242   8.198  23.724
88131W        W88996  25.796   9.398  24.498
88132W        W88997  27.655  10.591  23.204
88133W        W88998  28.849   8.188  24.076
88134W        W88999  27.486  10.535  24.843
88135W        W89000  28.829   9.594  22.048
88136W        W89001  27.264   9.077  23.109
88137W        W89002  29.116   7.588  24.850
88138W        W89003  27.265   9.423  24.444
88139W        W89004  27.482   8.309  23.889
88140W        W89005  28.334   8.607  22.727
88141W        W89006  28.621   8.340  22.369
88142W        W89007  28.430  10.380  22.758
88143W        W89008  28.264   9.983  23.554
88144W        W89009  28.160   9.062  22.532
88145W        W89010  27.593   9.272  23.518
88146W        W89011  28.474   9.060  23.585
88147W        W89012  25.849   8.075  24.009
88148W        W89013  28.627   9.127  24.836
88149W        W89014  28.978  10.745  23.982
88150W        W89015  26.908  10.189  23.384
88151W        W89016  27.915  10.722  24.708
88152W        W89017  27.909   8.052  24.472
88153W        W89018  27.116  10.760  24.533
88154W        W89019  28.813   7.714  22.999
88155W        W89020  28.604   9.033  24.300
88156W        W89021  25.587   8.354  24.338
88157W        W89022  28.447   8.149  23.356
88158W        W89023  28.858   8.300  25.133
88159W        W89024  27.743   9.999  23.351
88160W        W89025  26.999  10.590  22.964
88161W        W89026  26.114   7.770  22.222
88162W        W89027  27.218   7.424  24.032
88163W        W89028  26.246  10.544  21.880
88164W        W89029  26.620   9.010  22.631
88165W        W89030  27.274   9.639  24.944
88166W        W89031  27.104   7.997  22.934
88167W        W89032  28.460   7.594  23.362
88168W        W89033  28.180  10.876  23.690
88169W        W89034  27.592  10.524  24.030
88170W        W89035  26.988   9.561  23.991
88171W        W89036  28.758  10.284  24.117
88172W        W89037  26.452   7.787  22.886
88173W        W89038  26.974  10.084  23.846
88174W        W89039  26.457   8.015  21.911
88175W        W89040  27.258   8.624  24.305
88176W        W89041  28.106   7.490  24.175
88177W        W89042  25.526   9.333  24.060
88178W        W89043  27.230   9.151  22.218
88179W        W89044  26.498   7.466  21.988
88180W        W89045  27.236   8.547  23.039
88181W        W89046  28.206   7.523  24.738
88182W        W89047  26.794   9.535  24.847
88183W        W89048  27.598   9.317  25.064
88184W        W89049  28.215   9.347  24.957
88185W        W89050  27.499   7.487  25.462
88186W        W89051  26.721   8.103  23.855
88187W        W89052  26.147   8.059  23.253
88188W        W89053  25.933  10.771  22.929
88189W        W89054  27.265  10.101  25.054
88190W        W89055  26.300   9.586  22.413
88191W        W89056  27.980   8.971  23.634
88192W        W89057  28.260   8.770  24.033
88193W        W89058  27.465   9.444  23.967
88194W        W89059  27.935   9.818  22.099
88195W        W89060  27.607   7.839  23.427
88196W        W89061  29.086   8.117  22.695
88197W        W89062  25.580  10.706  24.726
88198W        W89063  25.997   9.932  24.258
88199W        W89064  25.564  10.778  22.490
88200W        W89065  27.463   8.048  24.296
88201W        W89066  26.826  10.071  22.145
88202W        W89067  28.731  10.453  22.331
88203W        W89068  27.706   9.106  22.345
88204W        W89069  26.549   8.297  22.862
88205W        W89070  27.381   8.207  21.914
88206W        W89071  27.965   9.772  25.092
88207W        W89072  28.318   7.678  22.709
88208W        W89073  25.648   7.526  22.157
88209W        W89074  26.934   9.845  24.447
88210W        W89075  26.733   9.761  23.539
88211W        W89076  26.475   9.713  21.937
88212W        W89077  25.716   9.954  22.705
88213W        W89078  26.220   9.024  25.147
88214W        W89079  26.924   7.584  25.333
88215W        W89080  27.633   7.726  24.689
88216W        W89081  26.828   7.494  22.970
88217W        W89082  27.887   7.571  22.475
88218W        W89083  25.832   7.503  24.052
88219W        W89084  25.880   8.466  23.422
88220W        W89085  28.569   7.574  23.828
88221W        W89086  25.991   8.072  22.642
88222W        W89087  28.562   7.760  24.258
88223W        W89088  28.958   8.963  21.943
88224W        W89089  26.250   7.721  23.762
88225W        W89090  27.364   8.293  24.702
88226W        W89091  25.512   7.983  22.180
88227W        W89092  26.298   9.372  24.741
88228W        W89093  27.656   8.770  23.920
88229W        W89094  27.523  10.849  22.216
88230W        W89095  25.669   9.356  21.913
88231W        W89096  26.404   9.767  25.039
88232W        W89097  25.925   8.934  24.670
88233W        W89098  26.916   9.039  24.464
88234W        W89099  28.684   7.398  24.726
88235W        W89100  29.082   9.008  24.717
88236W        W89101  29.070   9.208  22.403
88237W        W89102  27.933   9.540  22.502
88238W        W89103  28.407  10.840  22.197
88239W        W89104  27.584   8.830  25.339
88240W        W89105  25.914   9.797  25.379
88241W        W89106  29.120   7.719  25.331
88242W        W89107  28.838   8.647  23.952
88243W        W89108  27.146  10.777  25.429
88244W        W89109  27.001   7.406  22.156
88245W        W89110  28.540  10.005  22.099
88246W        W89111  26.309   8.098  24.985
88247W        W89112  26.743  10.092  24.847
88248W        W89113  28.869   8.083  24.645
88249W        W89114  28.080  10.742  22.613
88250W        W89115  28.319   9.361  23.980
88251W        W89116  26.569   7.777  24.647
88252W        W89117  27.038   8.846  25.404
88253W        W89118  26.541  10.025  22.598
88254W        W89119  28.296   9.523  22.862
88255W        W89120  26.064   8.149  24.586
88256W        W89121  27.393  10.211  23.050
88257W        W89122  29.143   8.771  23.231
88258W        W89123  27.365   7.404  24.950
88259W        W89124  28.145  10.109  24.029
88260W        W89125  28.448  10.453  23.737
88261W        W89126  27.667  10.255  22.165
88262W        W89127  25.677  10.147  25.007
88263W        W89128  26.420   8.139  24.245
88264W        W89129  26.390   7.487  23.355
88265W        W89130  28.011   8.329  24.047
88266W        W89131  26.809   9.500  22.247
88267W        W89132  28.807   9.442  23.746
88268W        W89133  26.134  10.200  25.169
88269W        W89134  28.521  10.882  22.966
88270W        W89135  26.620   7.902  23.411
88271W        W89136  26.389   9.395  23.501
88272W        W89137  26.702  10.806  24.251
88273W        W89138  28.769  10.902  25.283
88274W        W89139  27.928   9.090  24.216
88275W        W89140  25.777   8.888  22.131
88276W        W89141  28.911  10.546  22.828
88277W        W89142  28.748   7.870  22.447
88278W        W89143  26.887   7.389  24.850
88279W        W89144  28.593  10.191  23.308
88280W        W89145  28.622   8.747  23.213
88281W        W89146  26.739   8.420  23.429
88282W        W89147  26.984   8.682  24.753
88283W        W89148  28.095   9.835  24.616
88284W        W89149  26.745   8.289  24.728
88285W        W89150  26.724  10.755  23.344
88286W        W89151  26.041  10.714  24.978
88287W        W89152  26.153  10.075  22.108
88288W        W89153  28.670   9.833  22.918
88289W        W89154  26.274   8.625  24.804
88290W        W89155  29.047   8.555  22.285
88291W        W89156  26.792   9.612  22.756
88292W        W89157  27.891   8.994  24.837
88293W        W89158  27.782   8.622  24.381
88294W        W89159  26.342   8.994  24.410
88295W        W89160  28.552  10.882  24.239
88296W        W89161  28.343   7.516  25.233
88297W        W89162  26.007   7.666  24.820
88298W        W89163  26.346   8.689  23.873
88299W        W89164  26.715   8.503  21.995
88300W        W89165  25.518  10.262  24.540
88301W        W89166  27.103   8.971  23.983
88302W        W89167  26.926   7.996  22.088
88303W        W89168  26.061   8.812  22.869
88304W        W89169  25.832  10.664  24.306
88305W        W89170  28.627   8.890  22.414
88306W        W89171  28.722   7.806  25.100
88307W        W89172  28.158  10.015  23.063
88308W        W89173  25.756   8.939  25.240
88309W        W89174  28.722   7.403  22.536
88310W        W89175  28.242   9.878  22.547
88311W        W89176  27.144   8.936  22.632
88312W        W89177  28.331   7.740  22.155
88313W        W89178  28.396   8.347  24.341
88314W        W89179  26.105   8.940  23.548
88315W        W89180  26.399   9.879  23.197
88316W        W89181  28.162   8.499  23.162
88317W        W89182  27.185   7.878  23.858
88318W        W89183  29.147   9.789  24.369
88319W        W89184  29.065   7.776  23.930
88320W        W89185  25.604  10.606  23.306
88321W        W89186  26.113   9.793  22.842
88322W        W89187  26.028   7.410  25.395
88323W        W89188  27.147  10.263  25.497
88324W        W89189  28.902   9.231  23.287
88325W        W89190  28.256   9.408  22.167
88326W        W89191  27.551  10.929  24.379
88327W        W89192  28.408   9.651  25.416
88328W        W89193  27.223   7.361  22.696
88329W        W89194  27.936   8.230  23.555
88330W        W89195  25.622   9.817  23.887
88331W        W89196  26.875   7.779  22.528
88332W        W89197  26.679   9.263  25.377
88333W        W89198  27.673   8.244  23.091
88334W        W89199  27.878   9.654  24.213
88335W        W89200  26.032  10.259  24.648
88336W        W89201  26.623  10.242  25.371
88337W        W89202  26.474   8.039  22.385
88338W        W89203  27.991   8.181  22.710
88339W        W89204  27.949  10.289  24.947
88340W        W89205  26.634   8.881  23.546
88341W        W89206  26.289  10.579  24.411
88342W        W89207  29.034  10.696  22.012
88343W        W89208  25.897   9.368  25.008
88344W        W89209  27.892   9.630  23.696
88345W        W89210  26.328   9.279  22.938
88346W        W89211  26.699  10.286  24.333
88347W        W89212  27.077   7.705  23.374
88348W        W89213  25.688   9.689  22.304
88349W        W89214  27.207   8.640  22.174
88350W        W89215  25.853   9.189  23.193
88351W        W89216  27.143   7.831  24.657
88352W        W89217  28.815   7.540  22.084
88353W        W89218  28.908   9.286  25.183
88354W        W89219  27.562  10.543  25.335
88355W        W89220  29.120   9.637  24.857
88356W        W89221  28.528  10.435  25.468
88357W        W89222  26.267  10.891  23.946
88358W        W89223  29.126   9.513  22.820
88359W        W89224  27.656   8.780  23.333
88360W        W89225  27.423   7.392  23.223
88361W        W89226  26.482  10.376  23.060
88362W        W89227  26.981   8.117  24.285
88363W        W89228  26.681   7.486  23.754
88364W        W89229  25.744  10.308  22.302
88365W        W89230  27.560   9.672  23.020
88366W        W89231  26.435  10.467  24.899
88367W        W89232  25.912   9.290  22.595
88368W        W89233  25.797   7.833  23.594
88369W        W89234  27.345   9.798  23.651
88370W        W89235  25.597   7.652  22.671
88371W        W89236  28.261   8.858  24.598
88372W        W89237  28.138   8.244  22.170
88373W        W89238  28.655   9.916  23.818
88374W        W89239  27.316  10.400  23.649
88375W        W89240  26.728  10.504  22.560
88376W        W89241  28.010   7.407  21.990
88377W        W89242  25.810  10.667  23.731
88378W        W89243  28.007   8.425  25.366
88379W        W89244  25.990   7.955  25.365
88380W        W89245  25.721   8.555  22.698
88381W        W89246  26.412   8.544  22.423
88382W        W89247  28.175   8.871  25.240
88383W        W89248  26.518   9.152  23.949
88384W        W89249  27.992   7.438  23.069
88385W        W89250  27.123  10.869  23.572
88386W        W89251  28.337  10.331  24.509
88387W        W89252  27.921  10.480  23.620
88388W        W89253  27.940   9.460  23.214
88389W        W89254  27.402   7.685  22.285
88390W        W89255  29.083   7.313  23.007
88391W        W89256  26.771   8.948  22.170
88392W        W89257  28.937   8.285  23.160
88393W        W89258  27.629   9.455  22.037
88394W        W89259  28.565   9.655  24.785
88395W        W89260  28.219  10.356  22.252
88396W        W89261  26.834   8.031  25.158
88397W        W89262  26.654   8.615  24.399
88398W        W89263  28.746  10.110  24.676
88399W        W89264  27.846   8.060  25.053
88400W        W89265  25.690   8.531  24.830
88401W        W89266  27.450   9.008  24.556
88402W        W89267  25.807   9.766  23.213
88403W        W89268  25.954   9.063  24.103
88404W        W89269  28.271   9.349  24.453
88405W        W89270  28.043  10.729  25.264
88406W        W89271  27.939   8.468  24.817
88407W        W89272  28.216  10.522  23.222
88408W        W89273  27.218  10.242  24.545
88409W        W89274  26.703  10.597  23.814
88410W        W89275  28.508   9.768  24.233
88411W        W89276  27.558   9.840  25.370
88412W        W89277  26.163   9.793  23.709
88413W        W89278  28.509   9.552  23.354
88414W        W89279  28.150  10.618  24.105
88415W        W89280  26.128  10.347  23.975
88416W        W89281  27.149   8.399  25.185
88417W        W89282  27.600  10.565  22.696
88418W        W89283  26.908   9.820  25.334
88419W        W89284  27.034  10.058  22.711
88420W        W89285  26.255   8.798  21.970
88421W        W89286  25.594  10.884  28.869
88422W        W89287  25.970   9.777  28.392
88423W        W89288  28.675   9.507  26.162
88424W        W89289  28.805  10.592  28.189
88425W        W89290  26.723  10.583  25.715
88426W        W89291  26.806   8.735  26.698
88427W        W89292  26.321   8.583  26.862
88428W        W89293  27.312   9.398  26.296
88429W        W89294  26.987  10.490  28.651
88430W        W89295  25.636   8.051  28.614
88431W        W89296  26.398   7.331  28.416
88432W        W89297  28.092   7.719  27.303
88433W        W89298  27.741   8.590  25.873
88434W        W89299  28.311   8.024  28.964
88435W        W89300  25.677   7.816  28.089
88436W        W89301  25.776  10.435  29.110
88437W        W89302  27.298   9.825  25.842
88438W        W89303  25.730   8.608  27.535
88439W        W89304  26.623   8.499  28.772
88440W        W89305  29.082   8.358  27.271
88441W        W89306  28.846   9.401  28.130
88442W        W89307  27.154   8.734  27.157
88443W        W89308  27.700  10.073  27.526
88444W        W89309  26.200   9.507  27.758
88445W        W89310  25.559   9.035  27.329
88446W        W89311  26.595   9.007  28.521
88447W        W89312  28.866   8.790  28.775
88448W        W89313  26.482  10.234  27.220
88449W        W89314  27.603   9.923  28.354
88450W        W89315  26.823   8.563  27.579
88451W        W89316  27.115   9.347  27.222
88452W        W89317  28.112  10.120  29.070
88453W        W89318  27.191   9.440  29.080
88454W        W89319  27.172   9.156  28.558
88455W        W89320  25.581   8.547  29.080
88456W        W89321  28.413  10.082  28.679
88457W        W89322  25.994   7.664  26.677
88458W        W89323  26.521   9.922  27.676
88459W        W89324  28.984   9.705  26.966
88460W        W89325  28.397   8.105  27.533
88461W        W89326  28.682   8.058  25.628
88462W        W89327  29.147   8.859  27.934
88463W        W89328  27.114  10.566  27.687
88464W        W89329  28.888  10.032  26.125
88465W        W89330  26.017  10.818  25.879
88466W        W89331  26.410  10.864  26.555
88467W        W89332  26.207   7.618  27.981
88468W        W89333  28.830   8.636  28.256
88469W        W89334  28.235   9.058  26.715
88470W        W89335  28.201   8.746  25.742
88471W        W89336  27.409   9.890  27.882
88472W        W89337  27.215   8.220  27.081
88473W        W89338  27.815  10.307  28.075
88474W        W89339  28.686   9.098  26.497
88475W        W89340  27.588   7.756  26.513
88476W        W89341  26.245  10.450  26.196
88477W        W89342  25.616   7.949  26.795
88478W        W89343  28.402   8.556  27.269
88479W        W89344  25.860  10.173  27.184
88480W        W89345  27.201  10.523  26.054
88481W        W89346  28.593   8.549  25.518
88482W        W89347  25.616  10.307  27.682
88483W        W89348  26.407   9.879  28.162
88484W        W89349  26.780   9.239  26.781
88485W        W89350  26.802   7.644  27.874
88486W        W89351  29.031   7.406  27.171
88487W        W89352  26.250   9.278  25.639
88488W        W89353  25.905   8.311  25.818
88489W        W89354  25.967  10.267  26.612
88490W        W89355  27.098   9.750  26.860
88491W        W89356  28.430  10.609  28.574
88492W        W89357  27.356   8.251  26.258
88493W        W89358  28.739  10.649  27.030
88494W        W89359  28.416   8.502  28.628
88495W        W89360  29.129  10.158  26.762
88496W        W89361  27.756   9.450  28.246
88497W        W89362  25.522   9.001  26.452
88498W        W89363  26.633   9.416  28.025
88499W        W89364  27.837   8.680  26.403
88500W        W89365  27.714   9.170  26.507
88501W        W89366  26.057   8.590  27.981
88502W        W89367  26.042   8.466  28.903
88503W        W89368  25.932   7.383  27.062
88504W        W89369  27.700   7.730  27.623
88505W        W89370  27.348   7.915  28.786
88506W        W89371  27.703   8.064  25.964
88507W        W89372  28.886  10.457  28.718
88508W        W89373  27.853   7.538  28.757
88509W        W89374  28.872   9.839  28.879
88510W        W89375  28.302   8.006  28.475
88511W        W89376  28.102   7.944  26.745
88512W        W89377  28.495   9.078  29.149
88513W        W89378  26.235  10.654  27.135
88514W        W89379  26.893   8.371  26.121
88515W        W89380  26.462   7.655  28.785
88516W        W89381  28.514   8.139  26.466
88517W        W89382  28.881   8.621  26.411
88518W        W89383  26.624  10.838  28.882
88519W        W89384  26.550   7.374  26.117
88520W        W89385  28.871   7.908  27.152
88521W        W89386  29.021  10.157  25.597
88522W        W89387  25.928   9.360  27.299
88523W        W89388  27.845   7.947  25.529
88524W        W89389  28.979  10.279  27.249
88525W        W89390  29.018   7.473  27.999
88526W        W89391  27.463   8.685  28.553
88527W        W89392  27.556  10.024  26.256
88528W        W89393  27.956   9.318  28.996
88529W        W89394  27.630   7.295  27.305
88530W        W89395  26.242   8.198  27.368
88531W        W89396  25.796   9.398  28.142
88532W        W89397  27.655  10.591  26.848
88533W        W89398  28.849   8.188  27.720
88534W        W89399  27.486  10.535  28.487
88535W        W89400  28.829   9.594  25.692
88536W        W89401  27.264   9.077  26.753
88537W        W89402  29.116   7.588  28.494
88538W        W89403  27.265   9.423  28.088
88539W        W89404  27.482   8.309  27.533
88540W        W89405  28.334   8.607  26.371
88541W        W89406  28.621   8.340  26.013
88542W        W89407  28.430  10.380  26.402
88543W        W89408  28.264   9.983  27.198
88544W        W89409  27.593   9.272  27.162
88545W        W89410  28.474   9.060  27.229
88546W        W89411  25.849   8.075  27.653
88547W        W89412  28.627   9.127  28.480
88548W        W89413  28.978  10.745  27.626
88549W        W89414  26.908  10.189  27.028
88550W        W89415  27.915  10.722  28.352
88551W        W89416  27.909   8.052  28.116
88552W        W89417  27.116  10.760  28.177
88553W        W89418  28.813   7.714  26.643
88554W        W89419  28.604   9.033  27.944
88555W        W89420  25.587   8.354  27.982
88556W        W89421  28.447   8.149  27.000
88557W        W89422  28.858   8.300  28.777
88558W        W89423  27.743   9.999  26.995
88559W        W89424  26.999  10.590  26.608
88560W        W89425  26.114   7.770  25.866
88561W        W89426  27.218   7.424  27.676
88562W        W89427  26.246  10.544  25.524
88563W        W89428  26.620   9.010  26.275
88564W        W89429  27.274   9.639  28.588
88565W        W89430  27.104   7.997  26.578
88566W        W89431  28.460   7.594  27.006
88567W        W89432  28.180  10.876  27.334
88568W        W89433  27.592  10.524  27.674
88569W        W89434  26.988   9.561  27.635
88570W        W89435  28.758  10.284  27.761
88571W        W89436  26.452   7.787  26.530
88572W        W89437  26.974  10.084  27.490
88573W        W89438  26.457   8.015  25.555
88574W        W89439  27.258   8.624  27.949
88575W        W89440  28.106   7.490  27.819
88576W        W89441  25.526   9.333  27.704
88577W        W89442  27.230   9.151  25.862
88578W        W89443  26.498   7.466  25.632
88579W        W89444  27.236   8.547  26.683
88580W        W89445  28.206   7.523  28.382
88581W        W89446  26.794   9.535  28.491
88582W        W89447  27.598   9.317  28.708
88583W        W89448  28.215   9.347  28.601
88584W        W89449  27.499   7.487  29.106
88585W        W89450  26.721   8.103  27.499
88586W        W89451  26.147   8.059  26.897
88587W        W89452  25.933  10.771  26.573
88588W        W89453  27.265  10.101  28.698
88589W        W89454  26.300   9.586  26.057
88590W        W89455  27.980   8.971  27.278
88591W        W89456  28.260   8.770  27.677
88592W        W89457  27.465   9.444  27.611
88593W        W89458  27.935   9.818  25.743
88594W        W89459  27.607   7.839  27.071
88595W        W89460  29.086   8.117  26.339
88596W        W89461  25.580  10.706  28.370
88597W        W89462  25.997   9.932  27.902
88598W        W89463  25.564  10.778  26.134
88599W        W89464  27.463   8.048  27.940
88600W        W89465  26.826  10.071  25.789
88601W        W89466  28.731  10.453  25.975
88602W        W89467  27.706   9.106  25.989
88603W        W89468  26.549   8.297  26.506
88604W        W89469  27.381   8.207  25.558
88605W        W89470  27.965   9.772  28.736
88606W        W89471  28.318   7.678  26.353
88607W        W89472  25.648   7.526  25.801
88608W        W89473  26.934   9.845  28.091
88609W        W89474  26.733   9.761  27.183
88610W        W89475  26.475   9.713  25.581
88611W        W89476  25.716   9.954  26.349
88612W        W89477  26.220   9.024  28.791
88613W        W89478  26.924   7.584  28.977
88614W        W89479  27.633   7.726  28.333
88615W        W89480  26.828   7.494  26.614
88616W        W89481  27.887   7.571  26.119
88617W        W89482  25.832   7.503  27.696
88618W        W89483  25.880   8.466  27.066
88619W        W89484  28.569   7.574  27.472
88620W        W89485  25.991   8.072  26.286
88621W        W89486  28.562   7.760  27.902
88622W        W89487  28.958   8.963  25.587
88623W        W89488  26.250   7.721  27.406
88624W        W89489  27.364   8.293  28.346
88625W        W89490  25.512   7.983  25.824
88626W        W89491  26.298   9.372  28.385
88627W        W89492  27.656   8.770  27.564
88628W        W89493  27.523  10.849  25.860
88629W        W89494  25.669   9.356  25.557
88630W        W89495  26.404   9.767  28.683
88631W        W89496  25.925   8.934  28.314
88632W        W89497  26.916   9.039  28.108
88633W        W89498  28.684   7.398  28.370
88634W        W89499  29.082   9.008  28.361
88635W        W89500  29.070   9.208  26.047
88636W        W89501  27.933   9.540  26.146
88637W        W89502  28.407  10.840  25.841
88638W        W89503  27.584   8.830  28.983
88639W        W89504  25.914   9.797  29.023
88640W        W89505  29.120   7.719  28.975
88641W        W89506  28.838   8.647  27.596
88642W        W89507  27.146  10.777  29.073
88643W        W89508  27.001   7.406  25.800
88644W        W89509  28.540  10.005  25.743
88645W        W89510  26.309   8.098  28.629
88646W        W89511  26.743  10.092  28.491
88647W        W89512  28.869   8.083  28.289
88648W        W89513  28.080  10.742  26.257
88649W        W89514  28.319   9.361  27.624
88650W        W89515  26.569   7.777  28.291
88651W        W89516  27.038   8.846  29.048
88652W        W89517  26.541  10.025  26.242
88653W        W89518  28.296   9.523  26.506
88654W        W89519  26.064   8.149  28.230
88655W        W89520  27.393  10.211  26.694
88656W        W89521  29.143   8.771  26.875
88657W        W89522  27.365   7.404  28.594
88658W        W89523  28.145  10.109  27.673
88659W        W89524  28.448  10.453  27.381
88660W        W89525  27.667  10.255  25.809
88661W        W89526  25.677  10.147  28.651
88662W        W89527  26.420   8.139  27.889
88663W        W89528  26.390   7.487  26.999
88664W        W89529  28.011   8.329  27.691
88665W        W89530  26.809   9.500  25.891
88666W        W89531  28.807   9.442  27.390
88667W        W89532  26.134  10.200  28.813
88668W        W89533  28.521  10.882  26.610
88669W        W89534  26.620   7.902  27.055
88670W        W89535  26.389   9.395  27.145
88671W        W89536  26.702  10.806  27.895
88672W        W89537  28.769  10.902  28.927
88673W        W89538  27.928   9.090  27.860
88674W        W89539  25.777   8.888  25.775
88675W        W89540  28.911  10.546  26.472
88676W        W89541  28.748   7.870  26.091
88677W        W89542  26.887   7.389  28.494
88678W        W89543  28.593  10.191  26.952
88679W        W89544  28.622   8.747  26.857
88680W        W89545  26.739   8.420  27.073
88681W        W89546  26.984   8.682  28.397
88682W        W89547  28.095   9.835  28.260
88683W        W89548  26.745   8.289  28.372
88684W        W89549  26.724  10.755  26.988
88685W        W89550  26.041  10.714  28.622
88686W        W89551  26.153  10.075  25.752
88687W        W89552  28.670   9.833  26.562
88688W        W89553  26.274   8.625  28.448
88689W        W89554  29.047   8.555  25.929
88690W        W89555  26.792   9.612  26.400
88691W        W89556  27.891   8.994  28.481
88692W        W89557  27.782   8.622  28.025
88693W        W89558  26.342   8.994  28.054
88694W        W89559  28.552  10.882  27.883
88695W        W89560  28.343   7.516  28.877
88696W        W89561  26.007   7.666  28.464
88697W        W89562  26.346   8.689  27.517
88698W        W89563  26.715   8.503  25.639
88699W        W89564  25.518  10.262  28.184
88700W        W89565  27.103   8.971  27.627
88701W        W89566  26.926   7.996  25.732
88702W        W89567  26.061   8.812  26.513
88703W        W89568  25.832  10.664  27.950
88704W        W89569  28.627   8.890  26.058
88705W        W89570  28.722   7.806  28.744
88706W        W89571  28.158  10.015  26.707
88707W        W89572  25.756   8.939  28.884
88708W        W89573  28.722   7.403  26.180
88709W        W89574  28.242   9.878  26.191
88710W        W89575  27.144   8.936  26.276
88711W        W89576  28.331   7.740  25.799
88712W        W89577  28.396   8.347  27.985
88713W        W89578  26.105   8.940  27.192
88714W        W89579  26.399   9.879  26.841
88715W        W89580  28.162   8.499  26.806
88716W        W89581  27.185   7.878  27.502
88717W        W89582  29.147   9.789  28.013
88718W        W89583  29.065   7.776  27.574
88719W        W89584  25.604  10.606  26.950
88720W        W89585  26.113   9.793  26.486
88721W        W89586  26.028   7.410  29.039
88722W        W89587  27.147  10.263  29.141
88723W        W89588  28.902   9.231  26.931
88724W        W89589  28.256   9.408  25.811
88725W        W89590  28.408   9.651  29.060
88726W        W89591  27.223   7.361  26.340
88727W        W89592  27.936   8.230  27.199
88728W        W89593  25.622   9.817  27.531
88729W        W89594  26.875   7.779  26.172
88730W        W89595  26.679   9.263  29.021
88731W        W89596  27.673   8.244  26.735
88732W        W89597  27.878   9.654  27.857
88733W        W89598  26.032  10.259  28.292
88734W        W89599  26.623  10.242  29.015
88735W        W89600  26.474   8.039  26.029
88736W        W89601  27.991   8.181  26.354
88737W        W89602  27.949  10.289  28.591
88738W        W89603  26.634   8.881  27.190
88739W        W89604  26.289  10.579  28.055
88740W        W89605  29.034  10.696  25.656
88741W        W89606  25.897   9.368  28.652
88742W        W89607  27.892   9.630  27.340
88743W        W89608  26.328   9.279  26.582
88744W        W89609  26.699  10.286  27.977
88745W        W89610  27.077   7.705  27.018
88746W        W89611  25.688   9.689  25.948
88747W        W89612  27.207   8.640  25.818
88748W        W89613  25.853   9.189  26.837
88749W        W89614  27.143   7.831  28.301
88750W        W89615  28.815   7.540  25.728
88751W        W89616  28.908   9.286  28.827
88752W        W89617  27.562  10.543  28.979
88753W        W89618  29.120   9.637  28.501
88754W        W89619  28.528  10.435  29.112
88755W        W89620  26.267  10.891  27.590
88756W        W89621  29.126   9.513  26.464
88757W        W89622  27.656   8.780  26.977
88758W        W89623  27.423   7.392  26.867
88759W        W89624  26.482  10.376  26.704
88760W        W89625  26.981   8.117  27.929
88761W        W89626  26.681   7.486  27.398
88762W        W89627  25.744  10.308  25.946
88763W        W89628  27.560   9.672  26.664
88764W        W89629  26.435  10.467  28.543
88765W        W89630  25.912   9.290  26.239
88766W        W89631  25.797   7.833  27.238
88767W        W89632  27.345   9.798  27.295
88768W        W89633  25.597   7.652  26.315
88769W        W89634  28.261   8.858  28.242
88770W        W89635  28.138   8.244  25.814
88771W        W89636  28.655   9.916  27.462
88772W        W89637  27.316  10.400  27.293
88773W        W89638  26.728  10.504  26.204
88774W        W89639  28.010   7.407  25.634
88775W        W89640  25.810  10.667  27.375
88776W        W89641  28.007   8.425  29.010
88777W        W89642  25.990   7.955  29.009
88778W        W89643  25.721   8.555  26.342
88779W        W89644  26.412   8.544  26.067
88780W        W89645  28.175   8.871  28.884
88781W        W89646  26.518   9.152  27.593
88782W        W89647  27.992   7.438  26.713
88783W        W89648  27.123  10.869  27.216
88784W        W89649  28.337  10.331  28.153
88785W        W89650  27.921  10.480  27.264
88786W        W89651  27.940   9.460  26.858
88787W        W89652  27.402   7.685  25.929
88788W        W89653  29.083   7.313  26.651
88789W        W89654  26.771   8.948  25.814
88790W        W89655  28.937   8.285  26.804
88791W        W89656  27.629   9.455  25.681
88792W        W89657  28.565   9.655  28.429
88793W        W89658  28.219  10.356  25.896
88794W        W89659  26.834   8.031  28.802
88795W        W89660  26.654   8.615  28.043
88796W        W89661  28.746  10.110  28.320
88797W        W89662  27.846   8.060  28.697
88798W        W89663  25.690   8.531  28.474
88799W        W89664  27.450   9.008  28.200
88800W        W89665  25.807   9.766  26.857
88801W        W89666  25.954   9.063  27.747
88802W        W89667  28.271   9.349  28.097
88803W        W89668  28.043  10.729  28.908
88804W        W89669  27.939   8.468  28.461
88805W        W89670  28.216  10.522  26.866
88806W        W89671  27.218  10.242  28.189
88807W        W89672  26.703  10.597  27.458
88808W        W89673  28.508   9.768  27.877
88809W        W89674  27.558   9.840  29.014
88810W        W89675  26.163   9.793  27.353
88811W        W89676  28.509   9.552  26.998
88812W        W89677  28.150  10.618  27.749
88813W        W89678  26.128  10.347  27.619
88814W        W89679  27.149   8.399  28.829
88815W        W89680  27.600  10.565  26.340
88816W        W89681  26.908   9.820  28.978
88817W        W89682  27.034  10.058  26.355
88818W        W89683  26.255   8.798  25.614
88819W        W89684  25.594  14.528   3.359
88820W        W89685  25.970  13.421   2.882
88821W        W89686  28.675  13.151   0.652
88822W        W89687  28.805  14.236   2.679
88823W        W89688  26.723  14.227   0.205
88824W        W89689  26.806  12.379   1.188
88825W        W89690  26.321  12.227   1.352
88826W        W89691  27.312  13.042   0.786
88827W        W89692  26.987  14.134   3.141
88828W        W89693  25.636  11.695   3.104
88829W        W89694  26.398  10.975   2.906
88830W        W89695  28.092  11.363   1.793
88831W        W89696  27.741  12.234   0.363
88832W        W89697  28.311  11.668   3.454
88833W        W89698  25.677  11.460   2.579
88834W        W89699  25.776  14.079   3.600
88835W        W89700  27.298  13.469   0.332
88836W        W89701  25.730  12.252   2.025
88837W        W89702  26.623  12.143   3.262
88838W        W89703  29.082  12.002   1.761
88839W        W89704  28.846  13.045   2.620
88840W        W89705  27.154  12.378   1.647
88841W        W89706  27.700  13.717   2.016
88842W        W89707  26.200  13.151   2.248
88843W        W89708  25.559  12.679   1.819
88844W        W89709  26.595  12.651   3.011
88845W        W89710  28.866  12.434   3.265
88846W        W89711  26.482  13.878   1.710
88847W        W89712  27.603  13.567   2.844
88848W        W89713  26.823  12.207   2.069
88849W        W89714  27.115  12.991   1.712
88850W        W89715  28.112  13.764   3.560
88851W        W89716  27.191  13.084   3.570
88852W        W89717  27.172  12.800   3.048
88853W        W89718  25.581  12.191   3.570
88854W        W89719  28.413  13.726   3.169
88855W        W89720  25.994  11.308   1.167
88856W        W89721  26.521  13.566   2.166
88857W        W89722  28.984  13.349   1.456
88858W        W89723  28.397  11.749   2.023
88859W        W89724  28.682  11.702   0.118
88860W        W89725  29.147  12.503   2.424
88861W        W89726  27.114  14.210   2.177
88862W        W89727  28.888  13.676   0.615
88863W        W89728  26.017  14.462   0.369
88864W        W89729  26.410  14.508   1.045
88865W        W89730  26.207  11.262   2.471
88866W        W89731  28.830  12.280   2.746
88867W        W89732  28.235  12.702   1.205
88868W        W89733  28.201  12.390   0.232
88869W        W89734  27.409  13.534   2.372
88870W        W89735  27.215  11.864   1.571
88871W        W89736  27.815  13.951   2.565
88872W        W89737  28.686  12.742   0.987
88873W        W89738  27.588  11.400   1.003
88874W        W89739  26.245  14.094   0.686
88875W        W89740  25.616  11.593   1.285
88876W        W89741  28.402  12.200   1.759
88877W        W89742  25.860  13.817   1.674
88878W        W89743  27.201  14.167   0.544
88879W        W89744  28.593  12.193   0.008
88880W        W89745  25.616  13.951   2.172
88881W        W89746  26.407  13.523   2.652
88882W        W89747  26.780  12.883   1.271
88883W        W89748  26.802  11.288   2.364
88884W        W89749  29.031  11.050   1.661
88885W        W89750  26.250  12.922   0.129
88886W        W89751  25.905  11.955   0.308
88887W        W89752  25.967  13.911   1.102
88888W        W89753  27.098  13.394   1.350
88889W        W89754  28.430  14.253   3.064
88890W        W89755  27.356  11.895   0.748
88891W        W89756  28.739  14.293   1.520
88892W        W89757  28.416  12.146   3.118
88893W        W89758  29.129  13.802   1.252
88894W        W89759  27.756  13.094   2.736
88895W        W89760  25.522  12.645   0.942
88896W        W89761  26.633  13.060   2.515
88897W        W89762  27.837  12.324   0.893
88898W        W89763  27.714  12.814   0.997
88899W        W89764  26.057  12.234   2.471
88900W        W89765  26.042  12.110   3.393
88901W        W89766  25.932  11.027   1.552
88902W        W89767  27.700  11.374   2.113
88903W        W89768  27.348  11.559   3.276
88904W        W89769  27.703  11.708   0.454
88905W        W89770  28.886  14.101   3.208
88906W        W89771  27.853  11.182   3.247
88907W        W89772  28.872  13.483   3.369
88908W        W89773  28.302  11.650   2.965
88909W        W89774  28.102  11.588   1.235
88910W        W89775  28.495  12.722   3.639
88911W        W89776  26.235  14.298   1.625
88912W        W89777  26.893  12.015   0.611
88913W        W89778  26.462  11.299   3.275
88914W        W89779  28.514  11.783   0.956
88915W        W89780  28.881  12.265   0.901
88916W        W89781  26.624  14.482   3.372
88917W        W89782  26.550  11.018   0.607
88918W        W89783  28.871  11.552   1.642
88919W        W89784  29.021  13.801   0.087
88920W        W89785  25.928  13.004   1.789
88921W        W89786  27.845  11.591   0.019
88922W        W89787  28.979  13.923   1.739
88923W        W89788  29.018  11.117   2.489
88924W        W89789  27.463  12.329   3.043
88925W        W89790  27.556  13.668   0.746
88926W        W89791  27.956  12.962   3.486
88927W        W89792  27.630  10.939   1.795
88928W        W89793  26.242  11.842   1.858
88929W        W89794  25.796  13.042   2.632
88930W        W89795  27.655  14.235   1.338
88931W        W89796  28.849  11.832   2.210
88932W        W89797  27.486  14.179   2.977
88933W        W89798  28.829  13.238   0.182
88934W        W89799  27.264  12.721   1.243
88935W        W89800  29.116  11.232   2.984
88936W        W89801  27.265  13.067   2.578
88937W        W89802  27.482  11.953   2.023
88938W        W89803  28.334  12.251   0.861
88939W        W89804  28.621  11.984   0.503
88940W        W89805  28.430  14.024   0.892
88941W        W89806  28.264  13.627   1.688
88942W        W89807  28.160  12.706   0.666
88943W        W89808  27.593  12.916   1.652
88944W        W89809  28.474  12.704   1.719
88945W        W89810  25.849  11.719   2.143
88946W        W89811  28.627  12.771   2.970
88947W        W89812  28.978  14.389   2.116
88948W        W89813  26.908  13.833   1.518
88949W        W89814  27.915  14.366   2.842
88950W        W89815  27.909  11.696   2.606
88951W        W89816  27.116  14.404   2.667
88952W        W89817  28.813  11.358   1.133
88953W        W89818  28.604  12.677   2.434
88954W        W89819  25.587  11.998   2.472
88955W        W89820  28.447  11.793   1.490
88956W        W89821  28.858  11.944   3.267
88957W        W89822  27.743  13.643   1.485
88958W        W89823  26.999  14.234   1.098
88959W        W89824  26.114  11.414   0.356
88960W        W89825  27.218  11.068   2.166
88961W        W89826  26.246  14.188   0.014
88962W        W89827  26.620  12.654   0.765
88963W        W89828  27.274  13.283   3.078
88964W        W89829  27.104  11.641   1.068
88965W        W89830  28.460  11.238   1.496
88966W        W89831  28.180  14.520   1.824
88967W        W89832  27.592  14.168   2.164
88968W        W89833  26.988  13.205   2.125
88969W        W89834  28.758  13.928   2.251
88970W        W89835  26.452  11.431   1.020
88971W        W89836  26.974  13.728   1.980
88972W        W89837  26.457  11.659   0.045
88973W        W89838  27.258  12.268   2.439
88974W        W89839  28.106  11.134   2.309
88975W        W89840  25.526  12.977   2.194
88976W        W89841  27.230  12.795   0.352
88977W        W89842  26.498  11.110   0.122
88978W        W89843  27.236  12.191   1.173
88979W        W89844  28.206  11.167   2.872
88980W        W89845  26.794  13.179   2.981
88981W        W89846  27.598  12.961   3.198
88982W        W89847  28.215  12.991   3.091
88983W        W89848  27.499  11.131   3.596
88984W        W89849  26.721  11.747   1.989
88985W        W89850  26.147  11.703   1.387
88986W        W89851  25.933  14.415   1.063
88987W        W89852  27.265  13.745   3.188
88988W        W89853  26.300  13.230   0.547
88989W        W89854  27.980  12.615   1.768
88990W        W89855  28.260  12.414   2.167
88991W        W89856  27.465  13.088   2.101
88992W        W89857  27.935  13.462   0.233
88993W        W89858  27.607  11.483   1.561
88994W        W89859  29.086  11.761   0.829
88995W        W89860  25.580  14.350   2.860
88996W        W89861  25.997  13.576   2.392
88997W        W89862  25.564  14.422   0.624
88998W        W89863  27.463  11.692   2.430
88999W        W89864  26.826  13.715   0.279
89000W        W89865  28.731  14.097   0.465
89001W        W89866  27.706  12.750   0.479
89002W        W89867  26.549  11.941   0.996
89003W        W89868  27.381  11.851   0.048
89004W        W89869  27.965  13.416   3.226
89005W        W89870  28.318  11.322   0.843
89006W        W89871  25.648  11.170   0.291
89007W        W89872  26.934  13.489   2.581
89008W        W89873  26.733  13.405   1.673
89009W        W89874  26.475  13.357   0.071
89010W        W89875  25.716  13.598   0.839
89011W        W89876  26.220  12.668   3.281
89012W        W89877  26.924  11.228   3.467
89013W        W89878  27.633  11.370   2.823
89014W        W89879  26.828  11.138   1.104
89015W        W89880  27.887  11.215   0.609
89016W        W89881  25.832  11.147   2.186
89017W        W89882  25.880  12.110   1.556
89018W        W89883  28.569  11.218   1.962
89019W        W89884  25.991  11.716   0.776
89020W        W89885  28.562  11.404   2.392
89021W        W89886  28.958  12.607   0.077
89022W        W89887  26.250  11.365   1.896
89023W        W89888  27.364  11.937   2.836
89024W        W89889  25.512  11.627   0.314
89025W        W89890  26.298  13.016   2.875
89026W        W89891  27.656  12.414   2.054
89027W        W89892  27.523  14.493   0.350
89028W        W89893  25.669  13.000   0.047
89029W        W89894  26.404  13.411   3.173
89030W        W89895  25.925  12.578   2.804
89031W        W89896  26.916  12.683   2.598
89032W        W89897  28.684  11.042   2.860
89033W        W89898  29.082  12.652   2.851
89034W        W89899  29.070  12.852   0.537
89035W        W89900  27.933  13.184   0.636
89036W        W89901  28.407  14.484   0.331
89037W        W89902  27.584  12.474   3.473
89038W        W89903  25.914  13.441   3.513
89039W        W89904  29.120  11.363   3.465
89040W        W89905  28.838  12.291   2.086
89041W        W89906  27.146  14.421   3.563
89042W        W89907  27.001  11.050   0.290
89043W        W89908  28.540  13.649   0.233
89044W        W89909  26.309  11.742   3.119
89045W        W89910  26.743  13.736   2.981
89046W        W89911  28.869  11.727   2.779
89047W        W89912  28.080  14.386   0.747
89048W        W89913  28.319  13.005   2.114
89049W        W89914  26.569  11.421   2.781
89050W        W89915  27.038  12.490   3.538
89051W        W89916  26.541  13.669   0.732
89052W        W89917  28.296  13.167   0.996
89053W        W89918  26.064  11.793   2.720
89054W        W89919  27.393  13.855   1.184
89055W        W89920  29.143  12.415   1.365
89056W        W89921  27.365  11.048   3.084
89057W        W89922  28.145  13.753   2.163
89058W        W89923  28.448  14.097   1.871
89059W        W89924  27.667  13.899   0.299
89060W        W89925  25.677  13.791   3.141
89061W        W89926  26.420  11.783   2.379
89062W        W89927  26.390  11.131   1.489
89063W        W89928  28.011  11.973   2.181
89064W        W89929  26.809  13.144   0.381
89065W        W89930  28.807  13.086   1.880
89066W        W89931  26.134  13.844   3.303
89067W        W89932  28.521  14.526   1.100
89068W        W89933  26.620  11.546   1.545
89069W        W89934  26.389  13.039   1.635
89070W        W89935  26.702  14.450   2.385
89071W        W89936  27.928  12.734   2.350
89072W        W89937  25.777  12.532   0.265
89073W        W89938  28.911  14.190   0.962
89074W        W89939  28.748  11.514   0.581
89075W        W89940  26.887  11.033   2.984
89076W        W89941  28.593  13.835   1.442
89077W        W89942  28.622  12.391   1.347
89078W        W89943  26.739  12.064   1.563
89079W        W89944  26.984  12.326   2.887
89080W        W89945  28.095  13.479   2.750
89081W        W89946  26.745  11.933   2.862
89082W        W89947  26.724  14.399   1.478
89083W        W89948  26.041  14.358   3.112
89084W        W89949  26.153  13.719   0.242
89085W        W89950  28.670  13.477   1.052
89086W        W89951  26.274  12.269   2.938
89087W        W89952  29.047  12.199   0.419
89088W        W89953  26.792  13.256   0.890
89089W        W89954  27.891  12.638   2.971
89090W        W89955  27.782  12.266   2.515
89091W        W89956  26.342  12.638   2.544
89092W        W89957  28.552  14.526   2.373
89093W        W89958  28.343  11.160   3.367
89094W        W89959  26.007  11.310   2.954
89095W        W89960  26.346  12.333   2.007
89096W        W89961  26.715  12.147   0.129
89097W        W89962  25.518  13.906   2.674
89098W        W89963  27.103  12.615   2.117
89099W        W89964  26.926  11.640   0.222
89100W        W89965  26.061  12.456   1.003
89101W        W89966  25.832  14.308   2.440
89102W        W89967  28.627  12.534   0.548
89103W        W89968  28.722  11.450   3.234
89104W        W89969  28.158  13.659   1.197
89105W        W89970  25.756  12.583   3.374
89106W        W89971  28.722  11.047   0.670
89107W        W89972  28.242  13.522   0.681
89108W        W89973  27.144  12.580   0.766
89109W        W89974  28.331  11.384   0.289
89110W        W89975  28.396  11.991   2.475
89111W        W89976  26.105  12.584   1.682
89112W        W89977  26.399  13.523   1.331
89113W        W89978  28.162  12.143   1.296
89114W        W89979  27.185  11.522   1.992
89115W        W89980  29.147  13.433   2.503
89116W        W89981  29.065  11.420   2.064
89117W        W89982  25.604  14.250   1.440
89118W        W89983  26.113  13.437   0.976
89119W        W89984  26.028  11.054   3.529
89120W        W89985  27.147  13.907   3.631
89121W        W89986  28.902  12.875   1.421
89122W        W89987  28.256  13.052   0.301
89123W        W89988  27.551  14.573   2.513
89124W        W89989  28.408  13.295   3.550
89125W        W89990  27.223  11.005   0.830
89126W        W89991  27.936  11.874   1.689
89127W        W89992  25.622  13.461   2.021
89128W        W89993  26.875  11.423   0.662
89129W        W89994  26.679  12.907   3.511
89130W        W89995  27.673  11.888   1.225
89131W        W89996  27.878  13.298   2.347
89132W        W89997  26.032  13.903   2.782
89133W        W89998  26.623  13.886   3.505
89134W        W89999  26.474  11.683   0.519
89135W        W90000  27.991  11.825   0.844
89136W        W90001  27.949  13.933   3.081
89137W        W90002  26.634  12.525   1.680
89138W        W90003  26.289  14.223   2.545
89139W        W90004  29.034  14.340   0.146
89140W        W90005  25.897  13.012   3.142
89141W        W90006  27.892  13.274   1.830
89142W        W90007  26.328  12.923   1.072
89143W        W90008  26.699  13.930   2.467
89144W        W90009  27.077  11.349   1.508
89145W        W90010  25.688  13.333   0.438
89146W        W90011  27.207  12.284   0.308
89147W        W90012  25.853  12.833   1.327
89148W        W90013  27.143  11.475   2.791
89149W        W90014  28.815  11.184   0.218
89150W        W90015  28.908  12.930   3.317
89151W        W90016  27.562  14.187   3.469
89152W        W90017  29.120  13.281   2.991
89153W        W90018  28.528  14.079   3.602
89154W        W90019  26.267  14.535   2.080
89155W        W90020  29.126  13.157   0.954
89156W        W90021  27.656  12.424   1.467
89157W        W90022  27.423  11.036   1.357
89158W        W90023  26.482  14.020   1.194
89159W        W90024  26.981  11.761   2.419
89160W        W90025  26.681  11.130   1.888
89161W        W90026  25.744  13.952   0.436
89162W        W90027  27.560  13.316   1.154
89163W        W90028  26.435  14.111   3.033
89164W        W90029  25.912  12.934   0.729
89165W        W90030  25.797  11.477   1.728
89166W        W90031  27.345  13.442   1.785
89167W        W90032  25.597  11.296   0.805
89168W        W90033  28.261  12.502   2.732
89169W        W90034  28.138  11.888   0.304
89170W        W90035  28.655  13.560   1.952
89171W        W90036  27.316  14.044   1.783
89172W        W90037  26.728  14.148   0.694
89173W        W90038  28.010  11.051   0.124
89174W        W90039  25.810  14.311   1.865
89175W        W90040  28.007  12.069   3.500
89176W        W90041  25.990  11.599   3.499
89177W        W90042  25.721  12.199   0.832
89178W        W90043  26.412  12.188   0.557
89179W        W90044  28.175  12.515   3.374
89180W        W90045  26.518  12.796   2.083
89181W        W90046  27.992  11.082   1.203
89182W        W90047  27.123  14.513   1.706
89183W        W90048  28.337  13.975   2.643
89184W        W90049  27.921  14.124   1.754
89185W        W90050  27.940  13.104   1.348
89186W        W90051  27.402  11.329   0.419
89187W        W90052  29.083  10.957   1.141
89188W        W90053  26.771  12.592   0.304
89189W        W90054  28.937  11.929   1.294
89190W        W90055  27.629  13.099   0.171
89191W        W90056  28.565  13.299   2.919
89192W        W90057  28.219  14.000   0.386
89193W        W90058  26.834  11.675   3.292
89194W        W90059  26.654  12.259   2.533
89195W        W90060  28.746  13.754   2.810
89196W        W90061  27.846  11.704   3.187
89197W        W90062  25.690  12.175   2.964
89198W        W90063  27.450  12.652   2.690
89199W        W90064  25.807  13.410   1.347
89200W        W90065  25.954  12.707   2.237
89201W        W90066  28.271  12.993   2.587
89202W        W90067  28.043  14.373   3.398
89203W        W90068  27.939  12.112   2.951
89204W        W90069  28.216  14.166   1.356
89205W        W90070  27.218  13.886   2.679
89206W        W90071  26.703  14.241   1.948
89207W        W90072  28.508  13.412   2.367
89208W        W90073  27.558  13.484   3.504
89209W        W90074  26.163  13.437   1.843
89210W        W90075  28.509  13.196   1.488
89211W        W90076  28.150  14.262   2.239
89212W        W90077  26.128  13.991   2.109
89213W        W90078  27.149  12.043   3.319
89214W        W90079  27.600  14.209   0.830
89215W        W90080  26.908  13.464   3.468
89216W        W90081  27.034  13.702   0.845
89217W        W90082  26.255  12.442   0.104
89218W        W90083  25.594  14.528   7.003
89219W        W90084  25.970  13.421   6.526
89220W        W90085  28.675  13.151   4.296
89221W        W90086  28.805  14.236   6.323
89222W        W90087  26.723  14.227   3.849
89223W        W90088  26.806  12.379   4.832
89224W        W90089  26.321  12.227   4.996
89225W        W90090  27.312  13.042   4.430
89226W        W90091  26.987  14.134   6.785
89227W        W90092  25.636  11.695   6.748
89228W        W90093  26.398  10.975   6.550
89229W        W90094  28.092  11.363   5.437
89230W        W90095  27.741  12.234   4.007
89231W        W90096  28.311  11.668   7.098
89232W        W90097  25.677  11.460   6.223
89233W        W90098  25.776  14.079   7.244
89234W        W90099  27.298  13.469   3.976
89235W        W90100  25.730  12.252   5.669
89236W        W90101  26.623  12.143   6.906
89237W        W90102  29.082  12.002   5.405
89238W        W90103  28.846  13.045   6.264
89239W        W90104  27.154  12.378   5.291
89240W        W90105  27.700  13.717   5.660
89241W        W90106  26.200  13.151   5.892
89242W        W90107  25.559  12.679   5.463
89243W        W90108  26.595  12.651   6.655
89244W        W90109  28.866  12.434   6.909
89245W        W90110  26.482  13.878   5.354
89246W        W90111  27.603  13.567   6.488
89247W        W90112  26.823  12.207   5.713
89248W        W90113  27.115  12.991   5.356
89249W        W90114  28.112  13.764   7.204
89250W        W90115  27.191  13.084   7.214
89251W        W90116  27.172  12.800   6.692
89252W        W90117  25.581  12.191   7.214
89253W        W90118  28.413  13.726   6.813
89254W        W90119  25.994  11.308   4.811
89255W        W90120  26.521  13.566   5.810
89256W        W90121  28.984  13.349   5.100
89257W        W90122  28.397  11.749   5.667
89258W        W90123  28.682  11.702   3.762
89259W        W90124  29.147  12.503   6.068
89260W        W90125  27.114  14.210   5.821
89261W        W90126  28.888  13.676   4.259
89262W        W90127  26.017  14.462   4.013
89263W        W90128  26.410  14.508   4.689
89264W        W90129  26.207  11.262   6.115
89265W        W90130  28.830  12.280   6.390
89266W        W90131  28.235  12.702   4.849
89267W        W90132  28.201  12.390   3.876
89268W        W90133  27.409  13.534   6.016
89269W        W90134  27.215  11.864   5.215
89270W        W90135  27.815  13.951   6.209
89271W        W90136  28.686  12.742   4.631
89272W        W90137  27.588  11.400   4.647
89273W        W90138  26.245  14.094   4.330
89274W        W90139  25.616  11.593   4.929
89275W        W90140  28.402  12.200   5.403
89276W        W90141  25.860  13.817   5.318
89277W        W90142  27.201  14.167   4.188
89278W        W90143  28.593  12.193   3.652
89279W        W90144  25.616  13.951   5.816
89280W        W90145  26.407  13.523   6.296
89281W        W90146  26.780  12.883   4.915
89282W        W90147  26.802  11.288   6.008
89283W        W90148  29.031  11.050   5.305
89284W        W90149  26.250  12.922   3.773
89285W        W90150  25.905  11.955   3.952
89286W        W90151  25.967  13.911   4.746
89287W        W90152  27.098  13.394   4.994
89288W        W90153  28.430  14.253   6.708
89289W        W90154  27.356  11.895   4.392
89290W        W90155  28.739  14.293   5.164
89291W        W90156  28.416  12.146   6.762
89292W        W90157  29.129  13.802   4.896
89293W        W90158  27.756  13.094   6.380
89294W        W90159  25.522  12.645   4.586
89295W        W90160  26.633  13.060   6.159
89296W        W90161  27.837  12.324   4.537
89297W        W90162  27.714  12.814   4.641
89298W        W90163  26.057  12.234   6.115
89299W        W90164  26.042  12.110   7.037
89300W        W90165  25.932  11.027   5.196
89301W        W90166  27.700  11.374   5.757
89302W        W90167  27.348  11.559   6.920
89303W        W90168  27.703  11.708   4.098
89304W        W90169  28.886  14.101   6.852
89305W        W90170  27.853  11.182   6.891
89306W        W90171  28.872  13.483   7.013
89307W        W90172  28.302  11.650   6.609
89308W        W90173  28.102  11.588   4.879
89309W        W90174  28.495  12.722   7.283
89310W        W90175  26.235  14.298   5.269
89311W        W90176  26.893  12.015   4.255
89312W        W90177  26.462  11.299   6.919
89313W        W90178  28.514  11.783   4.600
89314W        W90179  28.881  12.265   4.545
89315W        W90180  26.624  14.482   7.016
89316W        W90181  26.550  11.018   4.251
89317W        W90182  28.871  11.552   5.286
89318W        W90183  29.021  13.801   3.731
89319W        W90184  25.928  13.004   5.433
89320W        W90185  27.845  11.591   3.663
89321W        W90186  29.018  11.117   6.133
89322W        W90187  27.463  12.329   6.687
89323W        W90188  27.556  13.668   4.390
89324W        W90189  27.956  12.962   7.130
89325W        W90190  27.630  10.939   5.439
89326W        W90191  26.242  11.842   5.502
89327W        W90192  25.796  13.042   6.276
89328W        W90193  27.655  14.235   4.982
89329W        W90194  28.849  11.832   5.854
89330W        W90195  27.486  14.179   6.621
89331W        W90196  28.829  13.238   3.826
89332W        W90197  27.264  12.721   4.887
89333W        W90198  29.116  11.232   6.628
89334W        W90199  27.265  13.067   6.222
89335W        W90200  27.482  11.953   5.667
89336W        W90201  28.334  12.251   4.505
89337W        W90202  28.621  11.984   4.147
89338W        W90203  28.430  14.024   4.536
89339W        W90204  28.264  13.627   5.332
89340W        W90205  28.160  12.706   4.310
89341W        W90206  27.593  12.916   5.296
89342W        W90207  28.474  12.704   5.363
89343W        W90208  25.849  11.719   5.787
89344W        W90209  28.627  12.771   6.614
89345W        W90210  28.978  14.389   5.760
89346W        W90211  26.908  13.833   5.162
89347W        W90212  27.915  14.366   6.486
89348W        W90213  27.909  11.696   6.250
89349W        W90214  27.116  14.404   6.311
89350W        W90215  28.813  11.358   4.777
89351W        W90216  28.604  12.677   6.078
89352W        W90217  25.587  11.998   6.116
89353W        W90218  28.447  11.793   5.134
89354W        W90219  28.858  11.944   6.911
89355W        W90220  27.743  13.643   5.129
89356W        W90221  26.999  14.234   4.742
89357W        W90222  26.114  11.414   4.000
89358W        W90223  27.218  11.068   5.810
89359W        W90224  26.246  14.188   3.658
89360W        W90225  26.620  12.654   4.409
89361W        W90226  27.274  13.283   6.722
89362W        W90227  27.104  11.641   4.712
89363W        W90228  28.460  11.238   5.140
89364W        W90229  28.180  14.520   5.468
89365W        W90230  27.592  14.168   5.808
89366W        W90231  26.988  13.205   5.769
89367W        W90232  28.758  13.928   5.895
89368W        W90233  26.452  11.431   4.664
89369W        W90234  26.974  13.728   5.624
89370W        W90235  26.457  11.659   3.689
89371W        W90236  27.258  12.268   6.083
89372W        W90237  28.106  11.134   5.953
89373W        W90238  25.526  12.977   5.838
89374W        W90239  27.230  12.795   3.996
89375W        W90240  26.498  11.110   3.766
89376W        W90241  27.236  12.191   4.817
89377W        W90242  28.206  11.167   6.516
89378W        W90243  26.794  13.179   6.625
89379W        W90244  27.598  12.961   6.842
89380W        W90245  28.215  12.991   6.735
89381W        W90246  27.499  11.131   7.240
89382W        W90247  26.721  11.747   5.633
89383W        W90248  26.147  11.703   5.031
89384W        W90249  25.933  14.415   4.707
89385W        W90250  27.265  13.745   6.832
89386W        W90251  26.300  13.230   4.191
89387W        W90252  27.980  12.615   5.412
89388W        W90253  28.260  12.414   5.811
89389W        W90254  27.465  13.088   5.745
89390W        W90255  27.935  13.462   3.877
89391W        W90256  27.607  11.483   5.205
89392W        W90257  29.086  11.761   4.473
89393W        W90258  25.580  14.350   6.504
89394W        W90259  25.997  13.576   6.036
89395W        W90260  25.564  14.422   4.268
89396W        W90261  27.463  11.692   6.074
89397W        W90262  26.826  13.715   3.923
89398W        W90263  28.731  14.097   4.109
89399W        W90264  27.706  12.750   4.123
89400W        W90265  26.549  11.941   4.640
89401W        W90266  27.381  11.851   3.692
89402W        W90267  27.965  13.416   6.870
89403W        W90268  28.318  11.322   4.487
89404W        W90269  25.648  11.170   3.935
89405W        W90270  26.934  13.489   6.225
89406W        W90271  26.733  13.405   5.317
89407W        W90272  26.475  13.357   3.715
89408W        W90273  25.716  13.598   4.483
89409W        W90274  26.220  12.668   6.925
89410W        W90275  26.924  11.228   7.111
89411W        W90276  27.633  11.370   6.467
89412W        W90277  26.828  11.138   4.748
89413W        W90278  27.887  11.215   4.253
89414W        W90279  25.832  11.147   5.830
89415W        W90280  25.880  12.110   5.200
89416W        W90281  28.569  11.218   5.606
89417W        W90282  25.991  11.716   4.420
89418W        W90283  28.562  11.404   6.036
89419W        W90284  28.958  12.607   3.721
89420W        W90285  26.250  11.365   5.540
89421W        W90286  27.364  11.937   6.480
89422W        W90287  25.512  11.627   3.958
89423W        W90288  26.298  13.016   6.519
89424W        W90289  27.656  12.414   5.698
89425W        W90290  27.523  14.493   3.994
89426W        W90291  25.669  13.000   3.691
89427W        W90292  26.404  13.411   6.817
89428W        W90293  25.925  12.578   6.448
89429W        W90294  26.916  12.683   6.242
89430W        W90295  28.684  11.042   6.504
89431W        W90296  29.082  12.652   6.495
89432W        W90297  29.070  12.852   4.181
89433W        W90298  27.933  13.184   4.280
89434W        W90299  28.407  14.484   3.975
89435W        W90300  27.584  12.474   7.117
89436W        W90301  25.914  13.441   7.157
89437W        W90302  29.120  11.363   7.109
89438W        W90303  28.838  12.291   5.730
89439W        W90304  27.146  14.421   7.207
89440W        W90305  27.001  11.050   3.934
89441W        W90306  28.540  13.649   3.877
89442W        W90307  26.309  11.742   6.763
89443W        W90308  26.743  13.736   6.625
89444W        W90309  28.869  11.727   6.423
89445W        W90310  28.080  14.386   4.391
89446W        W90311  28.319  13.005   5.758
89447W        W90312  26.569  11.421   6.425
89448W        W90313  27.038  12.490   7.182
89449W        W90314  26.541  13.669   4.376
89450W        W90315  28.296  13.167   4.640
89451W        W90316  26.064  11.793   6.364
89452W        W90317  27.393  13.855   4.828
89453W        W90318  29.143  12.415   5.009
89454W        W90319  27.365  11.048   6.728
89455W        W90320  28.145  13.753   5.807
89456W        W90321  28.448  14.097   5.515
89457W        W90322  27.667  13.899   3.943
89458W        W90323  25.677  13.791   6.785
89459W        W90324  26.420  11.783   6.023
89460W        W90325  26.390  11.131   5.133
89461W        W90326  28.011  11.973   5.825
89462W        W90327  26.809  13.144   4.025
89463W        W90328  28.807  13.086   5.524
89464W        W90329  26.134  13.844   6.947
89465W        W90330  28.521  14.526   4.744
89466W        W90331  26.620  11.546   5.189
89467W        W90332  26.389  13.039   5.279
89468W        W90333  26.702  14.450   6.029
89469W        W90334  28.769  14.546   7.061
89470W        W90335  27.928  12.734   5.994
89471W        W90336  25.777  12.532   3.909
89472W        W90337  28.911  14.190   4.606
89473W        W90338  28.748  11.514   4.225
89474W        W90339  26.887  11.033   6.628
89475W        W90340  28.593  13.835   5.086
89476W        W90341  28.622  12.391   4.991
89477W        W90342  26.739  12.064   5.207
89478W        W90343  26.984  12.326   6.531
89479W        W90344  28.095  13.479   6.394
89480W        W90345  26.745  11.933   6.506
89481W        W90346  26.724  14.399   5.122
89482W        W90347  26.041  14.358   6.756
89483W        W90348  26.153  13.719   3.886
89484W        W90349  28.670  13.477   4.696
89485W        W90350  26.274  12.269   6.582
89486W        W90351  29.047  12.199   4.063
89487W        W90352  26.792  13.256   4.534
89488W        W90353  27.891  12.638   6.615
89489W        W90354  27.782  12.266   6.159
89490W        W90355  26.342  12.638   6.188
89491W        W90356  28.343  11.160   7.011
89492W        W90357  26.007  11.310   6.598
89493W        W90358  26.346  12.333   5.651
89494W        W90359  26.715  12.147   3.773
89495W        W90360  25.518  13.906   6.318
89496W        W90361  27.103  12.615   5.761
89497W        W90362  26.926  11.640   3.866
89498W        W90363  26.061  12.456   4.647
89499W        W90364  25.832  14.308   6.084
89500W        W90365  28.627  12.534   4.192
89501W        W90366  28.722  11.450   6.878
89502W        W90367  28.158  13.659   4.841
89503W        W90368  25.756  12.583   7.018
89504W        W90369  28.722  11.047   4.314
89505W        W90370  28.242  13.522   4.325
89506W        W90371  27.144  12.580   4.410
89507W        W90372  28.331  11.384   3.933
89508W        W90373  28.396  11.991   6.119
89509W        W90374  26.105  12.584   5.326
89510W        W90375  26.399  13.523   4.975
89511W        W90376  28.162  12.143   4.940
89512W        W90377  27.185  11.522   5.636
89513W        W90378  29.147  13.433   6.147
89514W        W90379  29.065  11.420   5.708
89515W        W90380  25.604  14.250   5.084
89516W        W90381  26.113  13.437   4.620
89517W        W90382  26.028  11.054   7.173
89518W        W90383  27.147  13.907   7.275
89519W        W90384  28.902  12.875   5.065
89520W        W90385  28.256  13.052   3.945
89521W        W90386  27.551  14.573   6.157
89522W        W90387  28.408  13.295   7.194
89523W        W90388  27.223  11.005   4.474
89524W        W90389  27.936  11.874   5.333
89525W        W90390  25.622  13.461   5.665
89526W        W90391  26.875  11.423   4.306
89527W        W90392  26.679  12.907   7.155
89528W        W90393  27.673  11.888   4.869
89529W        W90394  27.878  13.298   5.991
89530W        W90395  26.032  13.903   6.426
89531W        W90396  26.623  13.886   7.149
89532W        W90397  26.474  11.683   4.163
89533W        W90398  27.991  11.825   4.488
89534W        W90399  27.949  13.933   6.725
89535W        W90400  26.634  12.525   5.324
89536W        W90401  26.289  14.223   6.189
89537W        W90402  29.034  14.340   3.790
89538W        W90403  25.897  13.012   6.786
89539W        W90404  27.892  13.274   5.474
89540W        W90405  26.328  12.923   4.716
89541W        W90406  26.699  13.930   6.111
89542W        W90407  27.077  11.349   5.152
89543W        W90408  25.688  13.333   4.082
89544W        W90409  27.207  12.284   3.952
89545W        W90410  25.853  12.833   4.971
89546W        W90411  27.143  11.475   6.435
89547W        W90412  28.815  11.184   3.862
89548W        W90413  28.908  12.930   6.961
89549W        W90414  27.562  14.187   7.113
89550W        W90415  29.120  13.281   6.635
89551W        W90416  28.528  14.079   7.246
89552W        W90417  26.267  14.535   5.724
89553W        W90418  29.126  13.157   4.598
89554W        W90419  27.656  12.424   5.111
89555W        W90420  27.423  11.036   5.001
89556W        W90421  26.482  14.020   4.838
89557W        W90422  26.981  11.761   6.063
89558W        W90423  26.681  11.130   5.532
89559W        W90424  25.744  13.952   4.080
89560W        W90425  27.560  13.316   4.798
89561W        W90426  26.435  14.111   6.677
89562W        W90427  25.912  12.934   4.373
89563W        W90428  25.797  11.477   5.372
89564W        W90429  27.345  13.442   5.429
89565W        W90430  25.597  11.296   4.449
89566W        W90431  28.261  12.502   6.376
89567W        W90432  28.138  11.888   3.948
89568W        W90433  28.655  13.560   5.596
89569W        W90434  27.316  14.044   5.427
89570W        W90435  26.728  14.148   4.338
89571W        W90436  28.010  11.051   3.768
89572W        W90437  25.810  14.311   5.509
89573W        W90438  28.007  12.069   7.144
89574W        W90439  25.990  11.599   7.143
89575W        W90440  25.721  12.199   4.476
89576W        W90441  26.412  12.188   4.201
89577W        W90442  28.175  12.515   7.018
89578W        W90443  26.518  12.796   5.727
89579W        W90444  27.992  11.082   4.847
89580W        W90445  27.123  14.513   5.350
89581W        W90446  27.921  14.124   5.398
89582W        W90447  27.940  13.104   4.992
89583W        W90448  27.402  11.329   4.063
89584W        W90449  29.083  10.957   4.785
89585W        W90450  26.771  12.592   3.948
89586W        W90451  28.937  11.929   4.938
89587W        W90452  27.629  13.099   3.815
89588W        W90453  28.565  13.299   6.563
89589W        W90454  28.219  14.000   4.030
89590W        W90455  26.834  11.675   6.936
89591W        W90456  26.654  12.259   6.177
89592W        W90457  28.746  13.754   6.454
89593W        W90458  27.846  11.704   6.831
89594W        W90459  25.690  12.175   6.608
89595W        W90460  27.450  12.652   6.334
89596W        W90461  25.807  13.410   4.991
89597W        W90462  25.954  12.707   5.881
89598W        W90463  28.271  12.993   6.231
89599W        W90464  28.043  14.373   7.042
89600W        W90465  27.939  12.112   6.595
89601W        W90466  28.216  14.166   5.000
89602W        W90467  27.218  13.886   6.323
89603W        W90468  26.703  14.241   5.592
89604W        W90469  28.508  13.412   6.011
89605W        W90470  27.558  13.484   7.148
89606W        W90471  26.163  13.437   5.487
89607W        W90472  28.509  13.196   5.132
89608W        W90473  28.150  14.262   5.883
89609W        W90474  26.128  13.991   5.753
89610W        W90475  27.149  12.043   6.963
89611W        W90476  27.600  14.209   4.474
89612W        W90477  26.908  13.464   7.112
89613W        W90478  27.034  13.702   4.489
89614W        W90479  26.255  12.442   3.748
89615W        W90480  25.594  14.528  10.648
89616W        W90481  25.970  13.421  10.171
89617W        W90482  28.675  13.151   7.941
89618W        W90483  28.805  14.236   9.968
89619W        W90484  26.723  14.227   7.494
89620W        W90485  26.806  12.379   8.477
89621W        W90486  26.321  12.227   8.641
89622W        W90487  27.312  13.042   8.075
89623W        W90488  26.987  14.134  10.430
89624W        W90489  25.636  11.695  10.393
89625W        W90490  26.398  10.975  10.195
89626W        W90491  28.092  11.363   9.082
89627W        W90492  27.741  12.234   7.652
89628W        W90493  28.311  11.668  10.743
89629W        W90494  25.677  11.460   9.868
89630W        W90495  25.776  14.079  10.889
89631W        W90496  27.298  13.469   7.621
89632W        W90497  25.730  12.252   9.314
89633W        W90498  26.623  12.143  10.551
89634W        W90499  29.082  12.002   9.050
89635W        W90500  28.846  13.045   9.909
89636W        W90501  27.154  12.378   8.936
89637W        W90502  27.700  13.717   9.305
89638W        W90503  26.200  13.151   9.537
89639W        W90504  25.559  12.679   9.108
89640W        W90505  26.595  12.651  10.300
89641W        W90506  28.866  12.434  10.554
89642W        W90507  26.482  13.878   8.999
89643W        W90508  27.603  13.567  10.133
89644W        W90509  26.823  12.207   9.358
89645W        W90510  27.115  12.991   9.001
89646W        W90511  28.112  13.764  10.849
89647W        W90512  27.191  13.084  10.859
89648W        W90513  27.172  12.800  10.337
89649W        W90514  25.581  12.191  10.859
89650W        W90515  28.413  13.726  10.458
89651W        W90516  25.994  11.308   8.456
89652W        W90517  26.521  13.566   9.455
89653W        W90518  28.984  13.349   8.745
89654W        W90519  28.397  11.749   9.312
89655W        W90520  28.682  11.702   7.407
89656W        W90521  29.147  12.503   9.713
89657W        W90522  27.114  14.210   9.466
89658W        W90523  28.888  13.676   7.904
89659W        W90524  26.017  14.462   7.658
89660W        W90525  26.410  14.508   8.334
89661W        W90526  26.207  11.262   9.760
89662W        W90527  28.830  12.280  10.035
89663W        W90528  28.235  12.702   8.494
89664W        W90529  28.201  12.390   7.521
89665W        W90530  27.409  13.534   9.661
89666W        W90531  27.215  11.864   8.860
89667W        W90532  27.815  13.951   9.854
89668W        W90533  28.686  12.742   8.276
89669W        W90534  27.588  11.400   8.292
89670W        W90535  26.245  14.094   7.975
89671W        W90536  25.616  11.593   8.574
89672W        W90537  28.402  12.200   9.048
89673W        W90538  25.860  13.817   8.963
89674W        W90539  27.201  14.167   7.833
89675W        W90540  28.593  12.193   7.297
89676W        W90541  25.616  13.951   9.461
89677W        W90542  26.407  13.523   9.941
89678W        W90543  26.780  12.883   8.560
89679W        W90544  26.802  11.288   9.653
89680W        W90545  29.031  11.050   8.950
89681W        W90546  26.250  12.922   7.418
89682W        W90547  25.905  11.955   7.597
89683W        W90548  25.967  13.911   8.391
89684W        W90549  27.098  13.394   8.639
89685W        W90550  28.430  14.253  10.353
89686W        W90551  27.356  11.895   8.037
89687W        W90552  28.739  14.293   8.809
89688W        W90553  28.416  12.146  10.407
89689W        W90554  29.129  13.802   8.541
89690W        W90555  27.756  13.094  10.025
89691W        W90556  25.522  12.645   8.231
89692W        W90557  26.633  13.060   9.804
89693W        W90558  27.837  12.324   8.182
89694W        W90559  27.714  12.814   8.286
89695W        W90560  26.057  12.234   9.760
89696W        W90561  26.042  12.110  10.682
89697W        W90562  25.932  11.027   8.841
89698W        W90563  27.700  11.374   9.402
89699W        W90564  27.348  11.559  10.565
89700W        W90565  27.703  11.708   7.743
89701W        W90566  28.886  14.101  10.497
89702W        W90567  27.853  11.182  10.536
89703W        W90568  28.872  13.483  10.658
89704W        W90569  28.302  11.650  10.254
89705W        W90570  28.102  11.588   8.524
89706W        W90571  28.495  12.722  10.928
89707W        W90572  26.235  14.298   8.914
89708W        W90573  26.893  12.015   7.900
89709W        W90574  26.462  11.299  10.564
89710W        W90575  28.514  11.783   8.245
89711W        W90576  28.881  12.265   8.190
89712W        W90577  26.624  14.482  10.661
89713W        W90578  26.550  11.018   7.896
89714W        W90579  28.871  11.552   8.931
89715W        W90580  29.021  13.801   7.376
89716W        W90581  25.928  13.004   9.078
89717W        W90582  27.845  11.591   7.308
89718W        W90583  28.979  13.923   9.028
89719W        W90584  29.018  11.117   9.778
89720W        W90585  27.463  12.329  10.332
89721W        W90586  27.556  13.668   8.035
89722W        W90587  27.956  12.962  10.775
89723W        W90588  27.630  10.939   9.084
89724W        W90589  26.242  11.842   9.147
89725W        W90590  25.796  13.042   9.921
89726W        W90591  27.655  14.235   8.627
89727W        W90592  28.849  11.832   9.499
89728W        W90593  27.486  14.179  10.266
89729W        W90594  28.829  13.238   7.471
89730W        W90595  27.264  12.721   8.532
89731W        W90596  29.116  11.232  10.273
89732W        W90597  27.265  13.067   9.867
89733W        W90598  27.482  11.953   9.312
89734W        W90599  28.334  12.251   8.150
89735W        W90600  28.621  11.984   7.792
89736W        W90601  28.430  14.024   8.181
89737W        W90602  28.264  13.627   8.977
89738W        W90603  28.160  12.706   7.955
89739W        W90604  27.593  12.916   8.941
89740W        W90605  28.474  12.704   9.008
89741W        W90606  25.849  11.719   9.432
89742W        W90607  28.627  12.771  10.259
89743W        W90608  28.978  14.389   9.405
89744W        W90609  26.908  13.833   8.807
89745W        W90610  27.915  14.366  10.131
89746W        W90611  27.909  11.696   9.895
89747W        W90612  27.116  14.404   9.956
89748W        W90613  28.813  11.358   8.422
89749W        W90614  28.604  12.677   9.723
89750W        W90615  25.587  11.998   9.761
89751W        W90616  28.447  11.793   8.779
89752W        W90617  28.858  11.944  10.556
89753W        W90618  27.743  13.643   8.774
89754W        W90619  26.999  14.234   8.387
89755W        W90620  26.114  11.414   7.645
89756W        W90621  27.218  11.068   9.455
89757W        W90622  26.246  14.188   7.303
89758W        W90623  26.620  12.654   8.054
89759W        W90624  27.274  13.283  10.367
89760W        W90625  27.104  11.641   8.357
89761W        W90626  28.460  11.238   8.785
89762W        W90627  28.180  14.520   9.113
89763W        W90628  27.592  14.168   9.453
89764W        W90629  26.988  13.205   9.414
89765W        W90630  28.758  13.928   9.540
89766W        W90631  26.452  11.431   8.309
89767W        W90632  26.974  13.728   9.269
89768W        W90633  26.457  11.659   7.334
89769W        W90634  27.258  12.268   9.728
89770W        W90635  28.106  11.134   9.598
89771W        W90636  25.526  12.977   9.483
89772W        W90637  27.230  12.795   7.641
89773W        W90638  26.498  11.110   7.411
89774W        W90639  27.236  12.191   8.462
89775W        W90640  28.206  11.167  10.161
89776W        W90641  26.794  13.179  10.270
89777W        W90642  27.598  12.961  10.487
89778W        W90643  28.215  12.991  10.380
89779W        W90644  27.499  11.131  10.885
89780W        W90645  26.721  11.747   9.278
89781W        W90646  26.147  11.703   8.676
89782W        W90647  25.933  14.415   8.352
89783W        W90648  27.265  13.745  10.477
89784W        W90649  26.300  13.230   7.836
89785W        W90650  27.980  12.615   9.057
89786W        W90651  28.260  12.414   9.456
89787W        W90652  27.465  13.088   9.390
89788W        W90653  27.935  13.462   7.522
89789W        W90654  27.607  11.483   8.850
89790W        W90655  29.086  11.761   8.118
89791W        W90656  25.580  14.350  10.149
89792W        W90657  25.997  13.576   9.681
89793W        W90658  25.564  14.422   7.913
89794W        W90659  27.463  11.692   9.719
89795W        W90660  26.826  13.715   7.568
89796W        W90661  28.731  14.097   7.754
89797W        W90662  27.706  12.750   7.768
89798W        W90663  26.549  11.941   8.285
89799W        W90664  27.381  11.851   7.337
89800W        W90665  27.965  13.416  10.515
89801W        W90666  28.318  11.322   8.132
89802W        W90667  25.648  11.170   7.580
89803W        W90668  26.934  13.489   9.870
89804W        W90669  26.733  13.405   8.962
89805W        W90670  26.475  13.357   7.360
89806W        W90671  25.716  13.598   8.128
89807W        W90672  26.220  12.668  10.570
89808W        W90673  26.924  11.228  10.756
89809W        W90674  27.633  11.370  10.112
89810W        W90675  26.828  11.138   8.393
89811W        W90676  27.887  11.215   7.898
89812W        W90677  25.832  11.147   9.475
89813W        W90678  25.880  12.110   8.845
89814W        W90679  28.569  11.218   9.251
89815W        W90680  25.991  11.716   8.065
89816W        W90681  28.562  11.404   9.681
89817W        W90682  28.958  12.607   7.366
89818W        W90683  26.250  11.365   9.185
89819W        W90684  27.364  11.937  10.125
89820W        W90685  25.512  11.627   7.603
89821W        W90686  26.298  13.016  10.164
89822W        W90687  27.656  12.414   9.343
89823W        W90688  27.523  14.493   7.639
89824W        W90689  25.669  13.000   7.336
89825W        W90690  26.404  13.411  10.462
89826W        W90691  25.925  12.578  10.093
89827W        W90692  26.916  12.683   9.887
89828W        W90693  28.684  11.042  10.149
89829W        W90694  29.082  12.652  10.140
89830W        W90695  29.070  12.852   7.826
89831W        W90696  27.933  13.184   7.925
89832W        W90697  28.407  14.484   7.620
89833W        W90698  27.584  12.474  10.762
89834W        W90699  25.914  13.441  10.802
89835W        W90700  29.120  11.363  10.754
89836W        W90701  28.838  12.291   9.375
89837W        W90702  27.146  14.421  10.852
89838W        W90703  27.001  11.050   7.579
89839W        W90704  28.540  13.649   7.522
89840W        W90705  26.309  11.742  10.408
89841W        W90706  26.743  13.736  10.270
89842W        W90707  28.869  11.727  10.068
89843W        W90708  28.080  14.386   8.036
89844W        W90709  28.319  13.005   9.403
89845W        W90710  26.569  11.421  10.070
89846W        W90711  27.038  12.490  10.827
89847W        W90712  26.541  13.669   8.021
89848W        W90713  28.296  13.167   8.285
89849W        W90714  26.064  11.793  10.009
89850W        W90715  27.393  13.855   8.473
89851W        W90716  29.143  12.415   8.654
89852W        W90717  27.365  11.048  10.373
89853W        W90718  28.145  13.753   9.452
89854W        W90719  28.448  14.097   9.160
89855W        W90720  27.667  13.899   7.588
89856W        W90721  25.677  13.791  10.430
89857W        W90722  26.420  11.783   9.668
89858W        W90723  26.390  11.131   8.778
89859W        W90724  28.011  11.973   9.470
89860W        W90725  26.809  13.144   7.670
89861W        W90726  28.807  13.086   9.169
89862W        W90727  26.134  13.844  10.592
89863W        W90728  28.521  14.526   8.389
89864W        W90729  26.620  11.546   8.834
89865W        W90730  26.389  13.039   8.924
89866W        W90731  26.702  14.450   9.674
89867W        W90732  28.769  14.546  10.706
89868W        W90733  27.928  12.734   9.639
89869W        W90734  25.777  12.532   7.554
89870W        W90735  28.911  14.190   8.251
89871W        W90736  28.748  11.514   7.870
89872W        W90737  26.887  11.033  10.273
89873W        W90738  28.593  13.835   8.731
89874W        W90739  28.622  12.391   8.636
89875W        W90740  26.739  12.064   8.852
89876W        W90741  26.984  12.326  10.176
89877W        W90742  28.095  13.479  10.039
89878W        W90743  26.745  11.933  10.151
89879W        W90744  26.724  14.399   8.767
89880W        W90745  26.041  14.358  10.401
89881W        W90746  26.153  13.719   7.531
89882W        W90747  28.670  13.477   8.341
89883W        W90748  26.274  12.269  10.227
89884W        W90749  29.047  12.199   7.708
89885W        W90750  26.792  13.256   8.179
89886W        W90751  27.891  12.638  10.260
89887W        W90752  27.782  12.266   9.804
89888W        W90753  26.342  12.638   9.833
89889W        W90754  28.552  14.526   9.662
89890W        W90755  28.343  11.160  10.656
89891W        W90756  26.007  11.310  10.243
89892W        W90757  26.346  12.333   9.296
89893W        W90758  26.715  12.147   7.418
89894W        W90759  25.518  13.906   9.963
89895W        W90760  27.103  12.615   9.406
89896W        W90761  26.926  11.640   7.511
89897W        W90762  26.061  12.456   8.292
89898W        W90763  25.832  14.308   9.729
89899W        W90764  28.627  12.534   7.837
89900W        W90765  28.722  11.450  10.523
89901W        W90766  28.158  13.659   8.486
89902W        W90767  25.756  12.583  10.663
89903W        W90768  28.722  11.047   7.959
89904W        W90769  28.242  13.522   7.970
89905W        W90770  27.144  12.580   8.055
89906W        W90771  28.331  11.384   7.578
89907W        W90772  28.396  11.991   9.764
89908W        W90773  26.105  12.584   8.971
89909W        W90774  26.399  13.523   8.620
89910W        W90775  28.162  12.143   8.585
89911W        W90776  27.185  11.522   9.281
89912W        W90777  29.147  13.433   9.792
89913W        W90778  29.065  11.420   9.353
89914W        W90779  25.604  14.250   8.729
89915W        W90780  26.113  13.437   8.265
89916W        W90781  26.028  11.054  10.818
89917W        W90782  27.147  13.907  10.920
89918W        W90783  28.902  12.875   8.710
89919W        W90784  28.256  13.052   7.590
89920W        W90785  27.551  14.573   9.802
89921W        W90786  28.408  13.295  10.839
89922W        W90787  27.223  11.005   8.119
89923W        W90788  27.936  11.874   8.978
89924W        W90789  25.622  13.461   9.310
89925W        W90790  26.875  11.423   7.951
89926W        W90791  26.679  12.907  10.800
89927W        W90792  27.673  11.888   8.514
89928W        W90793  27.878  13.298   9.636
89929W        W90794  26.032  13.903  10.071
89930W        W90795  26.623  13.886  10.794
89931W        W90796  26.474  11.683   7.808
89932W        W90797  27.991  11.825   8.133
89933W        W90798  27.949  13.933  10.370
89934W        W90799  26.634  12.525   8.969
89935W        W90800  26.289  14.223   9.834
89936W        W90801  29.034  14.340   7.435
89937W        W90802  25.897  13.012  10.431
89938W        W90803  27.892  13.274   9.119
89939W        W90804  26.328  12.923   8.361
89940W        W90805  26.699  13.930   9.756
89941W        W90806  27.077  11.349   8.797
89942W        W90807  25.688  13.333   7.727
89943W        W90808  27.207  12.284   7.597
89944W        W90809  25.853  12.833   8.616
89945W        W90810  27.143  11.475  10.080
89946W        W90811  28.815  11.184   7.507
89947W        W90812  28.908  12.930  10.606
89948W        W90813  27.562  14.187  10.758
89949W        W90814  29.120  13.281  10.280
89950W        W90815  28.528  14.079  10.891
89951W        W90816  26.267  14.535   9.369
89952W        W90817  29.126  13.157   8.243
89953W        W90818  27.656  12.424   8.756
89954W        W90819  27.423  11.036   8.646
89955W        W90820  26.482  14.020   8.483
89956W        W90821  26.981  11.761   9.708
89957W        W90822  26.681  11.130   9.177
89958W        W90823  25.744  13.952   7.725
89959W        W90824  27.560  13.316   8.443
89960W        W90825  26.435  14.111  10.322
89961W        W90826  25.912  12.934   8.018
89962W        W90827  25.797  11.477   9.017
89963W        W90828  27.345  13.442   9.074
89964W        W90829  25.597  11.296   8.094
89965W        W90830  28.261  12.502  10.021
89966W        W90831  28.138  11.888   7.593
89967W        W90832  28.655  13.560   9.241
89968W        W90833  27.316  14.044   9.072
89969W        W90834  26.728  14.148   7.983
89970W        W90835  28.010  11.051   7.413
89971W        W90836  25.810  14.311   9.154
89972W        W90837  28.007  12.069  10.789
89973W        W90838  25.990  11.599  10.788
89974W        W90839  25.721  12.199   8.121
89975W        W90840  26.412  12.188   7.846
89976W        W90841  28.175  12.515  10.663
89977W        W90842  26.518  12.796   9.372
89978W        W90843  27.992  11.082   8.492
89979W        W90844  27.123  14.513   8.995
89980W        W90845  28.337  13.975   9.932
89981W        W90846  27.921  14.124   9.043
89982W        W90847  27.940  13.104   8.637
89983W        W90848  27.402  11.329   7.708
89984W        W90849  29.083  10.957   8.430
89985W        W90850  26.771  12.592   7.593
89986W        W90851  28.937  11.929   8.583
89987W        W90852  27.629  13.099   7.460
89988W        W90853  28.565  13.299  10.208
89989W        W90854  28.219  14.000   7.675
89990W        W90855  26.834  11.675  10.581
89991W        W90856  26.654  12.259   9.822
89992W        W90857  28.746  13.754  10.099
89993W        W90858  27.846  11.704  10.476
89994W        W90859  25.690  12.175  10.253
89995W        W90860  27.450  12.652   9.979
89996W        W90861  25.807  13.410   8.636
89997W        W90862  25.954  12.707   9.526
89998W        W90863  28.271  12.993   9.876
89999W        W90864  28.043  14.373  10.687
90000W        W90865  27.939  12.112  10.240
90001W        W90866  28.216  14.166   8.645
90002W        W90867  27.218  13.886   9.968
90003W        W90868  26.703  14.241   9.237
90004W        W90869  28.508  13.412   9.656
90005W        W90870  27.558  13.484  10.793
90006W        W90871  26.163  13.437   9.132
90007W        W90872  28.509  13.196   8.777
90008W        W90873  28.150  14.262   9.528
90009W        W90874  26.128  13.991   9.398
90010W        W90875  27.149  12.043  10.608
90011W        W90876  27.600  14.209   8.119
90012W        W90877  26.908  13.464  10.757
90013W        W90878  27.034  13.702   8.134
90014W        W90879  26.255  12.442   7.393
90015W        W90880  25.594  14.528  14.292
90016W        W90881  25.970  13.421  13.815
90017W        W90882  28.675  13.151  11.585
90018W        W90883  28.805  14.236  13.612
90019W        W90884  26.723  14.227  11.138
90020W        W90885  26.806  12.379  12.121
90021W        W90886  26.321  12.227  12.285
90022W        W90887  27.312  13.042  11.719
90023W        W90888  26.987  14.134  14.074
90024W        W90889  25.636  11.695  14.037
90025W        W90890  26.398  10.975  13.839
90026W        W90891  28.092  11.363  12.726
90027W        W90892  27.741  12.234  11.296
90028W        W90893  28.311  11.668  14.387
90029W        W90894  25.677  11.460  13.512
90030W        W90895  25.776  14.079  14.533
90031W        W90896  27.298  13.469  11.265
90032W        W90897  25.730  12.252  12.958
90033W        W90898  26.623  12.143  14.195
90034W        W90899  29.082  12.002  12.694
90035W        W90900  28.846  13.045  13.553
90036W        W90901  27.154  12.378  12.580
90037W        W90902  27.700  13.717  12.949
90038W        W90903  26.200  13.151  13.181
90039W        W90904  25.559  12.679  12.752
90040W        W90905  26.595  12.651  13.944
90041W        W90906  28.866  12.434  14.198
90042W        W90907  26.482  13.878  12.643
90043W        W90908  27.603  13.567  13.777
90044W        W90909  26.823  12.207  13.002
90045W        W90910  27.115  12.991  12.645
90046W        W90911  28.112  13.764  14.493
90047W        W90912  27.191  13.084  14.503
90048W        W90913  27.172  12.800  13.981
90049W        W90914  25.581  12.191  14.503
90050W        W90915  28.413  13.726  14.102
90051W        W90916  25.994  11.308  12.100
90052W        W90917  26.521  13.566  13.099
90053W        W90918  28.984  13.349  12.389
90054W        W90919  28.397  11.749  12.956
90055W        W90920  28.682  11.702  11.051
90056W        W90921  29.147  12.503  13.357
90057W        W90922  27.114  14.210  13.110
90058W        W90923  28.888  13.676  11.548
90059W        W90924  26.017  14.462  11.302
90060W        W90925  26.410  14.508  11.978
90061W        W90926  26.207  11.262  13.404
90062W        W90927  28.830  12.280  13.679
90063W        W90928  28.235  12.702  12.138
90064W        W90929  28.201  12.390  11.165
90065W        W90930  27.409  13.534  13.305
90066W        W90931  27.215  11.864  12.504
90067W        W90932  27.815  13.951  13.498
90068W        W90933  28.686  12.742  11.920
90069W        W90934  27.588  11.400  11.936
90070W        W90935  26.245  14.094  11.619
90071W        W90936  25.616  11.593  12.218
90072W        W90937  28.402  12.200  12.692
90073W        W90938  25.860  13.817  12.607
90074W        W90939  27.201  14.167  11.477
90075W        W90940  28.593  12.193  10.941
90076W        W90941  25.616  13.951  13.105
90077W        W90942  26.407  13.523  13.585
90078W        W90943  26.780  12.883  12.204
90079W        W90944  26.802  11.288  13.297
90080W        W90945  29.031  11.050  12.594
90081W        W90946  26.250  12.922  11.062
90082W        W90947  25.905  11.955  11.241
90083W        W90948  25.967  13.911  12.035
90084W        W90949  27.098  13.394  12.283
90085W        W90950  28.430  14.253  13.997
90086W        W90951  27.356  11.895  11.681
90087W        W90952  28.739  14.293  12.453
90088W        W90953  28.416  12.146  14.051
90089W        W90954  29.129  13.802  12.185
90090W        W90955  27.756  13.094  13.669
90091W        W90956  25.522  12.645  11.875
90092W        W90957  26.633  13.060  13.448
90093W        W90958  27.837  12.324  11.826
90094W        W90959  27.714  12.814  11.930
90095W        W90960  26.057  12.234  13.404
90096W        W90961  26.042  12.110  14.326
90097W        W90962  25.932  11.027  12.485
90098W        W90963  27.700  11.374  13.046
90099W        W90964  27.348  11.559  14.209
90100W        W90965  27.703  11.708  11.387
90101W        W90966  28.886  14.101  14.141
90102W        W90967  27.853  11.182  14.180
90103W        W90968  28.872  13.483  14.302
90104W        W90969  28.302  11.650  13.898
90105W        W90970  28.102  11.588  12.168
90106W        W90971  28.495  12.722  14.572
90107W        W90972  26.235  14.298  12.558
90108W        W90973  26.893  12.015  11.544
90109W        W90974  26.462  11.299  14.208
90110W        W90975  28.514  11.783  11.889
90111W        W90976  28.881  12.265  11.834
90112W        W90977  26.624  14.482  14.305
90113W        W90978  26.550  11.018  11.540
90114W        W90979  28.871  11.552  12.575
90115W        W90980  29.021  13.801  11.020
90116W        W90981  25.928  13.004  12.722
90117W        W90982  27.845  11.591  10.952
90118W        W90983  28.979  13.923  12.672
90119W        W90984  29.018  11.117  13.422
90120W        W90985  27.463  12.329  13.976
90121W        W90986  27.556  13.668  11.679
90122W        W90987  27.956  12.962  14.419
90123W        W90988  27.630  10.939  12.728
90124W        W90989  26.242  11.842  12.791
90125W        W90990  25.796  13.042  13.565
90126W        W90991  27.655  14.235  12.271
90127W        W90992  28.849  11.832  13.143
90128W        W90993  27.486  14.179  13.910
90129W        W90994  28.829  13.238  11.115
90130W        W90995  27.264  12.721  12.176
90131W        W90996  29.116  11.232  13.917
90132W        W90997  27.265  13.067  13.511
90133W        W90998  27.482  11.953  12.956
90134W        W90999  28.334  12.251  11.794
90135W        W91000  28.621  11.984  11.436
90136W        W91001  28.430  14.024  11.825
90137W        W91002  28.264  13.627  12.621
90138W        W91003  28.160  12.706  11.599
90139W        W91004  27.593  12.916  12.585
90140W        W91005  28.474  12.704  12.652
90141W        W91006  25.849  11.719  13.076
90142W        W91007  28.627  12.771  13.903
90143W        W91008  28.978  14.389  13.049
90144W        W91009  26.908  13.833  12.451
90145W        W91010  27.915  14.366  13.775
90146W        W91011  27.909  11.696  13.539
90147W        W91012  27.116  14.404  13.600
90148W        W91013  28.813  11.358  12.066
90149W        W91014  28.604  12.677  13.367
90150W        W91015  25.587  11.998  13.405
90151W        W91016  28.447  11.793  12.423
90152W        W91017  28.858  11.944  14.200
90153W        W91018  27.743  13.643  12.418
90154W        W91019  26.999  14.234  12.031
90155W        W91020  26.114  11.414  11.289
90156W        W91021  27.218  11.068  13.099
90157W        W91022  26.246  14.188  10.947
90158W        W91023  26.620  12.654  11.698
90159W        W91024  27.274  13.283  14.011
90160W        W91025  27.104  11.641  12.001
90161W        W91026  28.460  11.238  12.429
90162W        W91027  28.180  14.520  12.757
90163W        W91028  27.592  14.168  13.097
90164W        W91029  26.988  13.205  13.058
90165W        W91030  28.758  13.928  13.184
90166W        W91031  26.452  11.431  11.953
90167W        W91032  26.974  13.728  12.913
90168W        W91033  26.457  11.659  10.978
90169W        W91034  27.258  12.268  13.372
90170W        W91035  28.106  11.134  13.242
90171W        W91036  25.526  12.977  13.127
90172W        W91037  27.230  12.795  11.285
90173W        W91038  26.498  11.110  11.055
90174W        W91039  27.236  12.191  12.106
90175W        W91040  28.206  11.167  13.805
90176W        W91041  26.794  13.179  13.914
90177W        W91042  27.598  12.961  14.131
90178W        W91043  28.215  12.991  14.024
90179W        W91044  27.499  11.131  14.529
90180W        W91045  26.721  11.747  12.922
90181W        W91046  26.147  11.703  12.320
90182W        W91047  25.933  14.415  11.996
90183W        W91048  27.265  13.745  14.121
90184W        W91049  26.300  13.230  11.480
90185W        W91050  27.980  12.615  12.701
90186W        W91051  28.260  12.414  13.100
90187W        W91052  27.465  13.088  13.034
90188W        W91053  27.935  13.462  11.166
90189W        W91054  27.607  11.483  12.494
90190W        W91055  29.086  11.761  11.762
90191W        W91056  25.580  14.350  13.793
90192W        W91057  25.997  13.576  13.325
90193W        W91058  25.564  14.422  11.557
90194W        W91059  27.463  11.692  13.363
90195W        W91060  26.826  13.715  11.212
90196W        W91061  28.731  14.097  11.398
90197W        W91062  27.706  12.750  11.412
90198W        W91063  26.549  11.941  11.929
90199W        W91064  27.381  11.851  10.981
90200W        W91065  27.965  13.416  14.159
90201W        W91066  28.318  11.322  11.776
90202W        W91067  25.648  11.170  11.224
90203W        W91068  26.934  13.489  13.514
90204W        W91069  26.733  13.405  12.606
90205W        W91070  26.475  13.357  11.004
90206W        W91071  25.716  13.598  11.772
90207W        W91072  26.220  12.668  14.214
90208W        W91073  26.924  11.228  14.400
90209W        W91074  27.633  11.370  13.756
90210W        W91075  26.828  11.138  12.037
90211W        W91076  27.887  11.215  11.542
90212W        W91077  25.832  11.147  13.119
90213W        W91078  25.880  12.110  12.489
90214W        W91079  28.569  11.218  12.895
90215W        W91080  25.991  11.716  11.709
90216W        W91081  28.562  11.404  13.325
90217W        W91082  28.958  12.607  11.010
90218W        W91083  26.250  11.365  12.829
90219W        W91084  27.364  11.937  13.769
90220W        W91085  25.512  11.627  11.247
90221W        W91086  26.298  13.016  13.808
90222W        W91087  27.656  12.414  12.987
90223W        W91088  27.523  14.493  11.283
90224W        W91089  25.669  13.000  10.980
90225W        W91090  26.404  13.411  14.106
90226W        W91091  25.925  12.578  13.737
90227W        W91092  26.916  12.683  13.531
90228W        W91093  28.684  11.042  13.793
90229W        W91094  29.082  12.652  13.784
90230W        W91095  29.070  12.852  11.470
90231W        W91096  27.933  13.184  11.569
90232W        W91097  28.407  14.484  11.264
90233W        W91098  27.584  12.474  14.406
90234W        W91099  25.914  13.441  14.446
90235W        W91100  29.120  11.363  14.398
90236W        W91101  28.838  12.291  13.019
90237W        W91102  27.146  14.421  14.496
90238W        W91103  27.001  11.050  11.223
90239W        W91104  28.540  13.649  11.166
90240W        W91105  26.309  11.742  14.052
90241W        W91106  26.743  13.736  13.914
90242W        W91107  28.869  11.727  13.712
90243W        W91108  28.080  14.386  11.680
90244W        W91109  28.319  13.005  13.047
90245W        W91110  26.569  11.421  13.714
90246W        W91111  27.038  12.490  14.471
90247W        W91112  26.541  13.669  11.665
90248W        W91113  28.296  13.167  11.929
90249W        W91114  26.064  11.793  13.653
90250W        W91115  27.393  13.855  12.117
90251W        W91116  29.143  12.415  12.298
90252W        W91117  27.365  11.048  14.017
90253W        W91118  28.145  13.753  13.096
90254W        W91119  28.448  14.097  12.804
90255W        W91120  27.667  13.899  11.232
90256W        W91121  25.677  13.791  14.074
90257W        W91122  26.420  11.783  13.312
90258W        W91123  26.390  11.131  12.422
90259W        W91124  28.011  11.973  13.114
90260W        W91125  26.809  13.144  11.314
90261W        W91126  28.807  13.086  12.813
90262W        W91127  26.134  13.844  14.236
90263W        W91128  28.521  14.526  12.033
90264W        W91129  26.620  11.546  12.478
90265W        W91130  26.389  13.039  12.568
90266W        W91131  26.702  14.450  13.318
90267W        W91132  28.769  14.546  14.350
90268W        W91133  27.928  12.734  13.283
90269W        W91134  25.777  12.532  11.198
90270W        W91135  28.911  14.190  11.895
90271W        W91136  28.748  11.514  11.514
90272W        W91137  26.887  11.033  13.917
90273W        W91138  28.593  13.835  12.375
90274W        W91139  28.622  12.391  12.280
90275W        W91140  26.739  12.064  12.496
90276W        W91141  26.984  12.326  13.820
90277W        W91142  28.095  13.479  13.683
90278W        W91143  26.745  11.933  13.795
90279W        W91144  26.724  14.399  12.411
90280W        W91145  26.041  14.358  14.045
90281W        W91146  26.153  13.719  11.175
90282W        W91147  28.670  13.477  11.985
90283W        W91148  26.274  12.269  13.871
90284W        W91149  29.047  12.199  11.352
90285W        W91150  26.792  13.256  11.823
90286W        W91151  27.891  12.638  13.904
90287W        W91152  27.782  12.266  13.448
90288W        W91153  26.342  12.638  13.477
90289W        W91154  28.552  14.526  13.306
90290W        W91155  28.343  11.160  14.300
90291W        W91156  26.007  11.310  13.887
90292W        W91157  26.346  12.333  12.940
90293W        W91158  26.715  12.147  11.062
90294W        W91159  25.518  13.906  13.607
90295W        W91160  27.103  12.615  13.050
90296W        W91161  26.926  11.640  11.155
90297W        W91162  26.061  12.456  11.936
90298W        W91163  25.832  14.308  13.373
90299W        W91164  28.627  12.534  11.481
90300W        W91165  28.722  11.450  14.167
90301W        W91166  28.158  13.659  12.130
90302W        W91167  25.756  12.583  14.307
90303W        W91168  28.722  11.047  11.603
90304W        W91169  28.242  13.522  11.614
90305W        W91170  27.144  12.580  11.699
90306W        W91171  28.331  11.384  11.222
90307W        W91172  28.396  11.991  13.408
90308W        W91173  26.105  12.584  12.615
90309W        W91174  26.399  13.523  12.264
90310W        W91175  28.162  12.143  12.229
90311W        W91176  27.185  11.522  12.925
90312W        W91177  29.147  13.433  13.436
90313W        W91178  29.065  11.420  12.997
90314W        W91179  25.604  14.250  12.373
90315W        W91180  26.028  11.054  14.462
90316W        W91181  28.902  12.875  12.354
90317W        W91182  28.256  13.052  11.234
90318W        W91183  27.551  14.573  13.446
90319W        W91184  28.408  13.295  14.483
90320W        W91185  27.223  11.005  11.763
90321W        W91186  27.936  11.874  12.622
90322W        W91187  25.622  13.461  12.954
90323W        W91188  26.875  11.423  11.595
90324W        W91189  26.679  12.907  14.444
90325W        W91190  27.673  11.888  12.158
90326W        W91191  27.878  13.298  13.280
90327W        W91192  26.032  13.903  13.715
90328W        W91193  26.623  13.886  14.438
90329W        W91194  26.474  11.683  11.452
90330W        W91195  27.991  11.825  11.777
90331W        W91196  27.949  13.933  14.014
90332W        W91197  26.634  12.525  12.613
90333W        W91198  29.034  14.340  11.079
90334W        W91199  25.897  13.012  14.075
90335W        W91200  27.892  13.274  12.763
90336W        W91201  26.328  12.923  12.005
90337W        W91202  26.699  13.930  13.400
90338W        W91203  27.077  11.349  12.441
90339W        W91204  25.688  13.333  11.371
90340W        W91205  27.207  12.284  11.241
90341W        W91206  25.853  12.833  12.260
90342W        W91207  27.143  11.475  13.724
90343W        W91208  28.815  11.184  11.151
90344W        W91209  28.908  12.930  14.250
90345W        W91210  27.562  14.187  14.402
90346W        W91211  29.120  13.281  13.924
90347W        W91212  28.528  14.079  14.535
90348W        W91213  26.267  14.535  13.013
90349W        W91214  29.126  13.157  11.887
90350W        W91215  27.656  12.424  12.400
90351W        W91216  27.423  11.036  12.290
90352W        W91217  26.482  14.020  12.127
90353W        W91218  26.981  11.761  13.352
90354W        W91219  26.681  11.130  12.821
90355W        W91220  25.744  13.952  11.369
90356W        W91221  27.560  13.316  12.087
90357W        W91222  26.435  14.111  13.966
90358W        W91223  25.912  12.934  11.662
90359W        W91224  25.797  11.477  12.661
90360W        W91225  27.345  13.442  12.718
90361W        W91226  25.597  11.296  11.738
90362W        W91227  28.261  12.502  13.665
90363W        W91228  28.138  11.888  11.237
90364W        W91229  28.655  13.560  12.885
90365W        W91230  27.316  14.044  12.716
90366W        W91231  26.728  14.148  11.627
90367W        W91232  28.010  11.051  11.057
90368W        W91233  25.810  14.311  12.798
90369W        W91234  28.007  12.069  14.433
90370W        W91235  25.990  11.599  14.432
90371W        W91236  25.721  12.199  11.765
90372W        W91237  26.412  12.188  11.490
90373W        W91238  28.175  12.515  14.307
90374W        W91239  26.518  12.796  13.016
90375W        W91240  27.992  11.082  12.136
90376W        W91241  27.123  14.513  12.639
90377W        W91242  28.337  13.975  13.576
90378W        W91243  27.921  14.124  12.687
90379W        W91244  27.940  13.104  12.281
90380W        W91245  27.402  11.329  11.352
90381W        W91246  29.083  10.957  12.074
90382W        W91247  26.771  12.592  11.237
90383W        W91248  28.937  11.929  12.227
90384W        W91249  27.629  13.099  11.104
90385W        W91250  28.565  13.299  13.852
90386W        W91251  28.219  14.000  11.319
90387W        W91252  26.834  11.675  14.225
90388W        W91253  26.654  12.259  13.466
90389W        W91254  28.746  13.754  13.743
90390W        W91255  27.846  11.704  14.120
90391W        W91256  25.690  12.175  13.897
90392W        W91257  27.450  12.652  13.623
90393W        W91258  25.807  13.410  12.280
90394W        W91259  25.954  12.707  13.170
90395W        W91260  28.271  12.993  13.520
90396W        W91261  28.043  14.373  14.331
90397W        W91262  27.939  12.112  13.884
90398W        W91263  28.216  14.166  12.289
90399W        W91264  27.218  13.886  13.612
90400W        W91265  26.703  14.241  12.881
90401W        W91266  28.508  13.412  13.300
90402W        W91267  27.558  13.484  14.437
90403W        W91268  26.163  13.437  12.776
90404W        W91269  28.509  13.196  12.421
90405W        W91270  28.150  14.262  13.172
90406W        W91271  26.128  13.991  13.042
90407W        W91272  27.149  12.043  14.252
90408W        W91273  27.600  14.209  11.763
90409W        W91274  26.908  13.464  14.401
90410W        W91275  27.034  13.702  11.778
90411W        W91276  26.255  12.442  11.037
90412W        W91277  25.594  14.528  17.936
90413W        W91278  25.970  13.421  17.459
90414W        W91279  28.675  13.151  15.229
90415W        W91280  28.805  14.236  17.256
90416W        W91281  26.723  14.227  14.782
90417W        W91282  26.806  12.379  15.765
90418W        W91283  26.321  12.227  15.929
90419W        W91284  27.312  13.042  15.363
90420W        W91285  26.987  14.134  17.718
90421W        W91286  25.636  11.695  17.681
90422W        W91287  26.398  10.975  17.483
90423W        W91288  28.092  11.363  16.370
90424W        W91289  27.741  12.234  14.940
90425W        W91290  28.311  11.668  18.031
90426W        W91291  25.677  11.460  17.156
90427W        W91292  25.776  14.079  18.177
90428W        W91293  27.298  13.469  14.909
90429W        W91294  25.730  12.252  16.602
90430W        W91295  26.623  12.143  17.839
90431W        W91296  29.082  12.002  16.338
90432W        W91297  28.846  13.045  17.197
90433W        W91298  27.154  12.378  16.224
90434W        W91299  27.700  13.717  16.593
90435W        W91300  26.200  13.151  16.825
90436W        W91301  25.559  12.679  16.396
90437W        W91302  26.595  12.651  17.588
90438W        W91303  28.866  12.434  17.842
90439W        W91304  26.482  13.878  16.287
90440W        W91305  27.603  13.567  17.421
90441W        W91306  26.823  12.207  16.646
90442W        W91307  27.115  12.991  16.289
90443W        W91308  28.112  13.764  18.137
90444W        W91309  27.191  13.084  18.147
90445W        W91310  27.172  12.800  17.625
90446W        W91311  25.581  12.191  18.147
90447W        W91312  28.413  13.726  17.746
90448W        W91313  25.994  11.308  15.744
90449W        W91314  26.521  13.566  16.743
90450W        W91315  28.984  13.349  16.033
90451W        W91316  28.397  11.749  16.600
90452W        W91317  28.682  11.702  14.695
90453W        W91318  29.147  12.503  17.001
90454W        W91319  27.114  14.210  16.754
90455W        W91320  28.888  13.676  15.192
90456W        W91321  26.017  14.462  14.946
90457W        W91322  26.410  14.508  15.622
90458W        W91323  26.207  11.262  17.048
90459W        W91324  28.830  12.280  17.323
90460W        W91325  28.235  12.702  15.782
90461W        W91326  28.201  12.390  14.809
90462W        W91327  27.409  13.534  16.949
90463W        W91328  27.215  11.864  16.148
90464W        W91329  27.815  13.951  17.142
90465W        W91330  28.686  12.742  15.564
90466W        W91331  27.588  11.400  15.580
90467W        W91332  26.245  14.094  15.263
90468W        W91333  25.616  11.593  15.862
90469W        W91334  28.402  12.200  16.336
90470W        W91335  25.860  13.817  16.251
90471W        W91336  27.201  14.167  15.121
90472W        W91337  28.593  12.193  14.585
90473W        W91338  25.616  13.951  16.749
90474W        W91339  26.407  13.523  17.229
90475W        W91340  26.780  12.883  15.848
90476W        W91341  26.802  11.288  16.941
90477W        W91342  29.031  11.050  16.238
90478W        W91343  26.250  12.922  14.706
90479W        W91344  25.905  11.955  14.885
90480W        W91345  25.967  13.911  15.679
90481W        W91346  27.098  13.394  15.927
90482W        W91347  28.430  14.253  17.641
90483W        W91348  27.356  11.895  15.325
90484W        W91349  28.739  14.293  16.097
90485W        W91350  28.416  12.146  17.695
90486W        W91351  29.129  13.802  15.829
90487W        W91352  27.756  13.094  17.313
90488W        W91353  25.522  12.645  15.519
90489W        W91354  26.633  13.060  17.092
90490W        W91355  27.837  12.324  15.470
90491W        W91356  27.714  12.814  15.574
90492W        W91357  26.057  12.234  17.048
90493W        W91358  26.042  12.110  17.970
90494W        W91359  25.932  11.027  16.129
90495W        W91360  27.700  11.374  16.690
90496W        W91361  27.348  11.559  17.853
90497W        W91362  27.703  11.708  15.031
90498W        W91363  28.886  14.101  17.785
90499W        W91364  27.853  11.182  17.824
90500W        W91365  28.872  13.483  17.946
90501W        W91366  28.302  11.650  17.542
90502W        W91367  28.102  11.588  15.812
90503W        W91368  28.495  12.722  18.216
90504W        W91369  26.235  14.298  16.202
90505W        W91370  26.893  12.015  15.188
90506W        W91371  26.462  11.299  17.852
90507W        W91372  28.514  11.783  15.533
90508W        W91373  28.881  12.265  15.478
90509W        W91374  26.624  14.482  17.949
90510W        W91375  26.550  11.018  15.184
90511W        W91376  28.871  11.552  16.219
90512W        W91377  29.021  13.801  14.664
90513W        W91378  25.928  13.004  16.366
90514W        W91379  27.845  11.591  14.596
90515W        W91380  28.979  13.923  16.316
90516W        W91381  29.018  11.117  17.066
90517W        W91382  27.463  12.329  17.620
90518W        W91383  27.556  13.668  15.323
90519W        W91384  27.956  12.962  18.063
90520W        W91385  27.630  10.939  16.372
90521W        W91386  26.242  11.842  16.435
90522W        W91387  25.796  13.042  17.209
90523W        W91388  27.655  14.235  15.915
90524W        W91389  28.849  11.832  16.787
90525W        W91390  27.486  14.179  17.554
90526W        W91391  28.829  13.238  14.759
90527W        W91392  27.264  12.721  15.820
90528W        W91393  29.116  11.232  17.561
90529W        W91394  27.265  13.067  17.155
90530W        W91395  27.482  11.953  16.600
90531W        W91396  28.334  12.251  15.438
90532W        W91397  28.621  11.984  15.080
90533W        W91398  28.430  14.024  15.469
90534W        W91399  28.264  13.627  16.265
90535W        W91400  28.160  12.706  15.243
90536W        W91401  27.593  12.916  16.229
90537W        W91402  28.474  12.704  16.296
90538W        W91403  25.849  11.719  16.720
90539W        W91404  28.627  12.771  17.547
90540W        W91405  28.978  14.389  16.693
90541W        W91406  26.908  13.833  16.095
90542W        W91407  27.915  14.366  17.419
90543W        W91408  27.909  11.696  17.183
90544W        W91409  27.116  14.404  17.244
90545W        W91410  28.813  11.358  15.710
90546W        W91411  28.604  12.677  17.011
90547W        W91412  25.587  11.998  17.049
90548W        W91413  28.447  11.793  16.067
90549W        W91414  28.858  11.944  17.844
90550W        W91415  27.743  13.643  16.062
90551W        W91416  26.999  14.234  15.675
90552W        W91417  26.114  11.414  14.933
90553W        W91418  27.218  11.068  16.743
90554W        W91419  26.246  14.188  14.591
90555W        W91420  26.620  12.654  15.342
90556W        W91421  27.274  13.283  17.655
90557W        W91422  27.104  11.641  15.645
90558W        W91423  28.460  11.238  16.073
90559W        W91424  28.180  14.520  16.401
90560W        W91425  27.592  14.168  16.741
90561W        W91426  26.988  13.205  16.702
90562W        W91427  28.758  13.928  16.828
90563W        W91428  26.452  11.431  15.597
90564W        W91429  26.974  13.728  16.557
90565W        W91430  26.457  11.659  14.622
90566W        W91431  27.258  12.268  17.016
90567W        W91432  28.106  11.134  16.886
90568W        W91433  25.526  12.977  16.771
90569W        W91434  27.230  12.795  14.929
90570W        W91435  26.498  11.110  14.699
90571W        W91436  27.236  12.191  15.750
90572W        W91437  28.206  11.167  17.449
90573W        W91438  26.794  13.179  17.558
90574W        W91439  27.598  12.961  17.775
90575W        W91440  28.215  12.991  17.668
90576W        W91441  27.499  11.131  18.173
90577W        W91442  26.721  11.747  16.566
90578W        W91443  26.147  11.703  15.964
90579W        W91444  25.933  14.415  15.640
90580W        W91445  27.265  13.745  17.765
90581W        W91446  26.300  13.230  15.124
90582W        W91447  27.980  12.615  16.345
90583W        W91448  28.260  12.414  16.744
90584W        W91449  27.465  13.088  16.678
90585W        W91450  27.935  13.462  14.810
90586W        W91451  27.607  11.483  16.138
90587W        W91452  29.086  11.761  15.406
90588W        W91453  25.580  14.350  17.437
90589W        W91454  25.997  13.576  16.969
90590W        W91455  25.564  14.422  15.201
90591W        W91456  27.463  11.692  17.007
90592W        W91457  26.826  13.715  14.856
90593W        W91458  28.731  14.097  15.042
90594W        W91459  27.706  12.750  15.056
90595W        W91460  26.549  11.941  15.573
90596W        W91461  27.381  11.851  14.625
90597W        W91462  27.965  13.416  17.803
90598W        W91463  28.318  11.322  15.420
90599W        W91464  25.648  11.170  14.868
90600W        W91465  26.934  13.489  17.158
90601W        W91466  26.733  13.405  16.250
90602W        W91467  26.475  13.357  14.648
90603W        W91468  25.716  13.598  15.416
90604W        W91469  26.220  12.668  17.858
90605W        W91470  26.924  11.228  18.044
90606W        W91471  27.633  11.370  17.400
90607W        W91472  26.828  11.138  15.681
90608W        W91473  27.887  11.215  15.186
90609W        W91474  25.832  11.147  16.763
90610W        W91475  25.880  12.110  16.133
90611W        W91476  28.569  11.218  16.539
90612W        W91477  25.991  11.716  15.353
90613W        W91478  28.562  11.404  16.969
90614W        W91479  28.958  12.607  14.654
90615W        W91480  26.250  11.365  16.473
90616W        W91481  27.364  11.937  17.413
90617W        W91482  25.512  11.627  14.891
90618W        W91483  26.298  13.016  17.452
90619W        W91484  27.656  12.414  16.631
90620W        W91485  27.523  14.493  14.927
90621W        W91486  25.669  13.000  14.624
90622W        W91487  26.404  13.411  17.750
90623W        W91488  25.925  12.578  17.381
90624W        W91489  26.916  12.683  17.175
90625W        W91490  28.684  11.042  17.437
90626W        W91491  29.082  12.652  17.428
90627W        W91492  29.070  12.852  15.114
90628W        W91493  27.933  13.184  15.213
90629W        W91494  28.407  14.484  14.908
90630W        W91495  27.584  12.474  18.050
90631W        W91496  25.914  13.441  18.090
90632W        W91497  29.120  11.363  18.042
90633W        W91498  28.838  12.291  16.663
90634W        W91499  27.146  14.421  18.140
90635W        W91500  27.001  11.050  14.867
90636W        W91501  28.540  13.649  14.810
90637W        W91502  26.309  11.742  17.696
90638W        W91503  26.743  13.736  17.558
90639W        W91504  28.869  11.727  17.356
90640W        W91505  28.080  14.386  15.324
90641W        W91506  28.319  13.005  16.691
90642W        W91507  26.569  11.421  17.358
90643W        W91508  27.038  12.490  18.115
90644W        W91509  26.541  13.669  15.309
90645W        W91510  28.296  13.167  15.573
90646W        W91511  26.064  11.793  17.297
90647W        W91512  27.393  13.855  15.761
90648W        W91513  29.143  12.415  15.942
90649W        W91514  27.365  11.048  17.661
90650W        W91515  28.145  13.753  16.740
90651W        W91516  28.448  14.097  16.448
90652W        W91517  27.667  13.899  14.876
90653W        W91518  25.677  13.791  17.718
90654W        W91519  26.420  11.783  16.956
90655W        W91520  26.390  11.131  16.066
90656W        W91521  28.011  11.973  16.758
90657W        W91522  26.809  13.144  14.958
90658W        W91523  28.807  13.086  16.457
90659W        W91524  26.134  13.844  17.880
90660W        W91525  28.521  14.526  15.677
90661W        W91526  26.620  11.546  16.122
90662W        W91527  26.389  13.039  16.212
90663W        W91528  26.702  14.450  16.962
90664W        W91529  28.769  14.546  17.994
90665W        W91530  27.928  12.734  16.927
90666W        W91531  25.777  12.532  14.842
90667W        W91532  28.911  14.190  15.539
90668W        W91533  28.748  11.514  15.158
90669W        W91534  26.887  11.033  17.561
90670W        W91535  28.593  13.835  16.019
90671W        W91536  28.622  12.391  15.924
90672W        W91537  26.739  12.064  16.140
90673W        W91538  26.984  12.326  17.464
90674W        W91539  28.095  13.479  17.327
90675W        W91540  26.745  11.933  17.439
90676W        W91541  26.724  14.399  16.055
90677W        W91542  26.041  14.358  17.689
90678W        W91543  26.153  13.719  14.819
90679W        W91544  28.670  13.477  15.629
90680W        W91545  26.274  12.269  17.515
90681W        W91546  29.047  12.199  14.996
90682W        W91547  26.792  13.256  15.467
90683W        W91548  27.891  12.638  17.548
90684W        W91549  27.782  12.266  17.092
90685W        W91550  26.342  12.638  17.121
90686W        W91551  28.552  14.526  16.950
90687W        W91552  28.343  11.160  17.944
90688W        W91553  26.007  11.310  17.531
90689W        W91554  26.346  12.333  16.584
90690W        W91555  26.715  12.147  14.706
90691W        W91556  25.518  13.906  17.251
90692W        W91557  27.103  12.615  16.694
90693W        W91558  26.926  11.640  14.799
90694W        W91559  26.061  12.456  15.580
90695W        W91560  25.832  14.308  17.017
90696W        W91561  28.627  12.534  15.125
90697W        W91562  28.722  11.450  17.811
90698W        W91563  28.158  13.659  15.774
90699W        W91564  25.756  12.583  17.951
90700W        W91565  28.722  11.047  15.247
90701W        W91566  28.242  13.522  15.258
90702W        W91567  27.144  12.580  15.343
90703W        W91568  28.331  11.384  14.866
90704W        W91569  28.396  11.991  17.052
90705W        W91570  26.105  12.584  16.259
90706W        W91571  26.399  13.523  15.908
90707W        W91572  28.162  12.143  15.873
90708W        W91573  27.185  11.522  16.569
90709W        W91574  29.147  13.433  17.080
90710W        W91575  29.065  11.420  16.641
90711W        W91576  25.604  14.250  16.017
90712W        W91577  26.113  13.437  15.553
90713W        W91578  26.028  11.054  18.106
90714W        W91579  27.147  13.907  18.208
90715W        W91580  28.902  12.875  15.998
90716W        W91581  28.256  13.052  14.878
90717W        W91582  27.551  14.573  17.090
90718W        W91583  28.408  13.295  18.127
90719W        W91584  27.223  11.005  15.407
90720W        W91585  27.936  11.874  16.266
90721W        W91586  25.622  13.461  16.598
90722W        W91587  26.875  11.423  15.239
90723W        W91588  26.679  12.907  18.088
90724W        W91589  27.673  11.888  15.802
90725W        W91590  27.878  13.298  16.924
90726W        W91591  26.032  13.903  17.359
90727W        W91592  26.623  13.886  18.082
90728W        W91593  26.474  11.683  15.096
90729W        W91594  27.991  11.825  15.421
90730W        W91595  27.949  13.933  17.658
90731W        W91596  26.634  12.525  16.257
90732W        W91597  26.289  14.223  17.122
90733W        W91598  29.034  14.340  14.723
90734W        W91599  25.897  13.012  17.719
90735W        W91600  27.892  13.274  16.407
90736W        W91601  26.328  12.923  15.649
90737W        W91602  26.699  13.930  17.044
90738W        W91603  27.077  11.349  16.085
90739W        W91604  25.688  13.333  15.015
90740W        W91605  27.207  12.284  14.885
90741W        W91606  25.853  12.833  15.904
90742W        W91607  27.143  11.475  17.368
90743W        W91608  28.815  11.184  14.795
90744W        W91609  28.908  12.930  17.894
90745W        W91610  27.562  14.187  18.046
90746W        W91611  29.120  13.281  17.568
90747W        W91612  28.528  14.079  18.179
90748W        W91613  26.267  14.535  16.657
90749W        W91614  29.126  13.157  15.531
90750W        W91615  27.656  12.424  16.044
90751W        W91616  27.423  11.036  15.934
90752W        W91617  26.482  14.020  15.771
90753W        W91618  26.981  11.761  16.996
90754W        W91619  26.681  11.130  16.465
90755W        W91620  25.744  13.952  15.013
90756W        W91621  27.560  13.316  15.731
90757W        W91622  26.435  14.111  17.610
90758W        W91623  25.912  12.934  15.306
90759W        W91624  25.797  11.477  16.305
90760W        W91625  27.345  13.442  16.362
90761W        W91626  25.597  11.296  15.382
90762W        W91627  28.261  12.502  17.309
90763W        W91628  28.138  11.888  14.881
90764W        W91629  28.655  13.560  16.529
90765W        W91630  27.316  14.044  16.360
90766W        W91631  26.728  14.148  15.271
90767W        W91632  28.010  11.051  14.701
90768W        W91633  25.810  14.311  16.442
90769W        W91634  28.007  12.069  18.077
90770W        W91635  25.990  11.599  18.076
90771W        W91636  25.721  12.199  15.409
90772W        W91637  26.412  12.188  15.134
90773W        W91638  28.175  12.515  17.951
90774W        W91639  26.518  12.796  16.660
90775W        W91640  27.992  11.082  15.780
90776W        W91641  27.123  14.513  16.283
90777W        W91642  28.337  13.975  17.220
90778W        W91643  27.921  14.124  16.331
90779W        W91644  27.940  13.104  15.925
90780W        W91645  27.402  11.329  14.996
90781W        W91646  29.083  10.957  15.718
90782W        W91647  26.771  12.592  14.881
90783W        W91648  28.937  11.929  15.871
90784W        W91649  27.629  13.099  14.748
90785W        W91650  28.565  13.299  17.496
90786W        W91651  28.219  14.000  14.963
90787W        W91652  26.834  11.675  17.869
90788W        W91653  26.654  12.259  17.110
90789W        W91654  28.746  13.754  17.387
90790W        W91655  27.846  11.704  17.764
90791W        W91656  25.690  12.175  17.541
90792W        W91657  27.450  12.652  17.267
90793W        W91658  25.807  13.410  15.924
90794W        W91659  25.954  12.707  16.814
90795W        W91660  28.271  12.993  17.164
90796W        W91661  28.043  14.373  17.975
90797W        W91662  27.939  12.112  17.528
90798W        W91663  28.216  14.166  15.933
90799W        W91664  27.218  13.886  17.256
90800W        W91665  26.703  14.241  16.525
90801W        W91666  28.508  13.412  16.944
90802W        W91667  27.558  13.484  18.081
90803W        W91668  26.163  13.437  16.420
90804W        W91669  28.509  13.196  16.065
90805W        W91670  28.150  14.262  16.816
90806W        W91671  26.128  13.991  16.686
90807W        W91672  27.149  12.043  17.896
90808W        W91673  27.600  14.209  15.407
90809W        W91674  26.908  13.464  18.045
90810W        W91675  27.034  13.702  15.422
90811W        W91676  26.255  12.442  14.681
90812W        W91677  25.594  14.528  21.580
90813W        W91678  25.970  13.421  21.103
90814W        W91679  28.675  13.151  18.873
90815W        W91680  28.805  14.236  20.900
90816W        W91681  26.723  14.227  18.426
90817W        W91682  26.806  12.379  19.409
90818W        W91683  26.321  12.227  19.573
90819W        W91684  27.312  13.042  19.007
90820W        W91685  26.987  14.134  21.362
90821W        W91686  25.636  11.695  21.325
90822W        W91687  26.398  10.975  21.127
90823W        W91688  28.092  11.363  20.014
90824W        W91689  27.741  12.234  18.584
90825W        W91690  28.311  11.668  21.675
90826W        W91691  25.677  11.460  20.800
90827W        W91692  25.776  14.079  21.821
90828W        W91693  27.298  13.469  18.553
90829W        W91694  25.730  12.252  20.246
90830W        W91695  26.623  12.143  21.483
90831W        W91696  29.082  12.002  19.982
90832W        W91697  28.846  13.045  20.841
90833W        W91698  27.154  12.378  19.868
90834W        W91699  27.700  13.717  20.237
90835W        W91700  26.200  13.151  20.469
90836W        W91701  25.559  12.679  20.040
90837W        W91702  26.595  12.651  21.232
90838W        W91703  28.866  12.434  21.486
90839W        W91704  26.482  13.878  19.931
90840W        W91705  27.603  13.567  21.065
90841W        W91706  26.823  12.207  20.290
90842W        W91707  27.115  12.991  19.933
90843W        W91708  28.112  13.764  21.781
90844W        W91709  27.191  13.084  21.791
90845W        W91710  27.172  12.800  21.269
90846W        W91711  25.581  12.191  21.791
90847W        W91712  28.413  13.726  21.390
90848W        W91713  25.994  11.308  19.388
90849W        W91714  26.521  13.566  20.387
90850W        W91715  28.984  13.349  19.677
90851W        W91716  28.397  11.749  20.244
90852W        W91717  28.682  11.702  18.339
90853W        W91718  29.147  12.503  20.645
90854W        W91719  27.114  14.210  20.398
90855W        W91720  28.888  13.676  18.836
90856W        W91721  26.017  14.462  18.590
90857W        W91722  26.410  14.508  19.266
90858W        W91723  26.207  11.262  20.692
90859W        W91724  28.830  12.280  20.967
90860W        W91725  28.235  12.702  19.426
90861W        W91726  28.201  12.390  18.453
90862W        W91727  27.409  13.534  20.593
90863W        W91728  27.215  11.864  19.792
90864W        W91729  27.815  13.951  20.786
90865W        W91730  28.686  12.742  19.208
90866W        W91731  27.588  11.400  19.224
90867W        W91732  26.245  14.094  18.907
90868W        W91733  25.616  11.593  19.506
90869W        W91734  28.402  12.200  19.980
90870W        W91735  25.860  13.817  19.895
90871W        W91736  27.201  14.167  18.765
90872W        W91737  28.593  12.193  18.229
90873W        W91738  25.616  13.951  20.393
90874W        W91739  26.407  13.523  20.873
90875W        W91740  26.780  12.883  19.492
90876W        W91741  26.802  11.288  20.585
90877W        W91742  29.031  11.050  19.882
90878W        W91743  26.250  12.922  18.350
90879W        W91744  25.905  11.955  18.529
90880W        W91745  25.967  13.911  19.323
90881W        W91746  27.098  13.394  19.571
90882W        W91747  28.430  14.253  21.285
90883W        W91748  27.356  11.895  18.969
90884W        W91749  28.739  14.293  19.741
90885W        W91750  28.416  12.146  21.339
90886W        W91751  29.129  13.802  19.473
90887W        W91752  27.756  13.094  20.957
90888W        W91753  25.522  12.645  19.163
90889W        W91754  26.633  13.060  20.736
90890W        W91755  27.837  12.324  19.114
90891W        W91756  27.714  12.814  19.218
90892W        W91757  26.057  12.234  20.692
90893W        W91758  26.042  12.110  21.614
90894W        W91759  25.932  11.027  19.773
90895W        W91760  27.700  11.374  20.334
90896W        W91761  27.348  11.559  21.497
90897W        W91762  27.703  11.708  18.675
90898W        W91763  28.886  14.101  21.429
90899W        W91764  27.853  11.182  21.468
90900W        W91765  28.872  13.483  21.590
90901W        W91766  28.302  11.650  21.186
90902W        W91767  28.102  11.588  19.456
90903W        W91768  28.495  12.722  21.860
90904W        W91769  26.235  14.298  19.846
90905W        W91770  26.893  12.015  18.832
90906W        W91771  26.462  11.299  21.496
90907W        W91772  28.514  11.783  19.177
90908W        W91773  28.881  12.265  19.122
90909W        W91774  26.624  14.482  21.593
90910W        W91775  26.550  11.018  18.828
90911W        W91776  28.871  11.552  19.863
90912W        W91777  29.021  13.801  18.308
90913W        W91778  25.928  13.004  20.010
90914W        W91779  27.845  11.591  18.240
90915W        W91780  28.979  13.923  19.960
90916W        W91781  29.018  11.117  20.710
90917W        W91782  27.463  12.329  21.264
90918W        W91783  27.556  13.668  18.967
90919W        W91784  27.956  12.962  21.707
90920W        W91785  27.630  10.939  20.016
90921W        W91786  26.242  11.842  20.079
90922W        W91787  25.796  13.042  20.853
90923W        W91788  27.655  14.235  19.559
90924W        W91789  28.849  11.832  20.431
90925W        W91790  27.486  14.179  21.198
90926W        W91791  28.829  13.238  18.403
90927W        W91792  27.264  12.721  19.464
90928W        W91793  29.116  11.232  21.205
90929W        W91794  27.265  13.067  20.799
90930W        W91795  27.482  11.953  20.244
90931W        W91796  28.334  12.251  19.082
90932W        W91797  28.621  11.984  18.724
90933W        W91798  28.430  14.024  19.113
90934W        W91799  28.264  13.627  19.909
90935W        W91800  28.160  12.706  18.887
90936W        W91801  27.593  12.916  19.873
90937W        W91802  28.474  12.704  19.940
90938W        W91803  25.849  11.719  20.364
90939W        W91804  28.627  12.771  21.191
90940W        W91805  28.978  14.389  20.337
90941W        W91806  26.908  13.833  19.739
90942W        W91807  27.915  14.366  21.063
90943W        W91808  27.909  11.696  20.827
90944W        W91809  27.116  14.404  20.888
90945W        W91810  28.813  11.358  19.354
90946W        W91811  28.604  12.677  20.655
90947W        W91812  25.587  11.998  20.693
90948W        W91813  28.447  11.793  19.711
90949W        W91814  28.858  11.944  21.488
90950W        W91815  27.743  13.643  19.706
90951W        W91816  26.999  14.234  19.319
90952W        W91817  26.114  11.414  18.577
90953W        W91818  27.218  11.068  20.387
90954W        W91819  26.246  14.188  18.235
90955W        W91820  26.620  12.654  18.986
90956W        W91821  27.274  13.283  21.299
90957W        W91822  27.104  11.641  19.289
90958W        W91823  28.460  11.238  19.717
90959W        W91824  28.180  14.520  20.045
90960W        W91825  27.592  14.168  20.385
90961W        W91826  26.988  13.205  20.346
90962W        W91827  28.758  13.928  20.472
90963W        W91828  26.452  11.431  19.241
90964W        W91829  26.974  13.728  20.201
90965W        W91830  26.457  11.659  18.266
90966W        W91831  27.258  12.268  20.660
90967W        W91832  28.106  11.134  20.530
90968W        W91833  25.526  12.977  20.415
90969W        W91834  27.230  12.795  18.573
90970W        W91835  26.498  11.110  18.343
90971W        W91836  27.236  12.191  19.394
90972W        W91837  28.206  11.167  21.093
90973W        W91838  26.794  13.179  21.202
90974W        W91839  27.598  12.961  21.419
90975W        W91840  28.215  12.991  21.312
90976W        W91841  27.499  11.131  21.817
90977W        W91842  26.721  11.747  20.210
90978W        W91843  26.147  11.703  19.608
90979W        W91844  25.933  14.415  19.284
90980W        W91845  27.265  13.745  21.409
90981W        W91846  26.300  13.230  18.768
90982W        W91847  27.980  12.615  19.989
90983W        W91848  28.260  12.414  20.388
90984W        W91849  27.465  13.088  20.322
90985W        W91850  27.935  13.462  18.454
90986W        W91851  27.607  11.483  19.782
90987W        W91852  29.086  11.761  19.050
90988W        W91853  25.580  14.350  21.081
90989W        W91854  25.997  13.576  20.613
90990W        W91855  25.564  14.422  18.845
90991W        W91856  27.463  11.692  20.651
90992W        W91857  26.826  13.715  18.500
90993W        W91858  28.731  14.097  18.686
90994W        W91859  27.706  12.750  18.700
90995W        W91860  26.549  11.941  19.217
90996W        W91861  27.381  11.851  18.269
90997W        W91862  27.965  13.416  21.447
90998W        W91863  28.318  11.322  19.064
90999W        W91864  25.648  11.170  18.512
91000W        W91865  26.934  13.489  20.802
91001W        W91866  26.733  13.405  19.894
91002W        W91867  26.475  13.357  18.292
91003W        W91868  25.716  13.598  19.060
91004W        W91869  26.220  12.668  21.502
91005W        W91870  26.924  11.228  21.688
91006W        W91871  27.633  11.370  21.044
91007W        W91872  26.828  11.138  19.325
91008W        W91873  27.887  11.215  18.830
91009W        W91874  25.832  11.147  20.407
91010W        W91875  25.880  12.110  19.777
91011W        W91876  28.569  11.218  20.183
91012W        W91877  25.991  11.716  18.997
91013W        W91878  28.562  11.404  20.613
91014W        W91879  28.958  12.607  18.298
91015W        W91880  26.250  11.365  20.117
91016W        W91881  27.364  11.937  21.057
91017W        W91882  25.512  11.627  18.535
91018W        W91883  26.298  13.016  21.096
91019W        W91884  27.656  12.414  20.275
91020W        W91885  27.523  14.493  18.571
91021W        W91886  25.669  13.000  18.268
91022W        W91887  26.404  13.411  21.394
91023W        W91888  25.925  12.578  21.025
91024W        W91889  26.916  12.683  20.819
91025W        W91890  28.684  11.042  21.081
91026W        W91891  29.082  12.652  21.072
91027W        W91892  29.070  12.852  18.758
91028W        W91893  27.933  13.184  18.857
91029W        W91894  28.407  14.484  18.552
91030W        W91895  27.584  12.474  21.694
91031W        W91896  25.914  13.441  21.734
91032W        W91897  29.120  11.363  21.686
91033W        W91898  28.838  12.291  20.307
91034W        W91899  27.146  14.421  21.784
91035W        W91900  27.001  11.050  18.511
91036W        W91901  28.540  13.649  18.454
91037W        W91902  26.309  11.742  21.340
91038W        W91903  26.743  13.736  21.202
91039W        W91904  28.869  11.727  21.000
91040W        W91905  28.080  14.386  18.968
91041W        W91906  28.319  13.005  20.335
91042W        W91907  26.569  11.421  21.002
91043W        W91908  27.038  12.490  21.759
91044W        W91909  26.541  13.669  18.953
91045W        W91910  28.296  13.167  19.217
91046W        W91911  26.064  11.793  20.941
91047W        W91912  27.393  13.855  19.405
91048W        W91913  29.143  12.415  19.586
91049W        W91914  27.365  11.048  21.305
91050W        W91915  28.145  13.753  20.384
91051W        W91916  28.448  14.097  20.092
91052W        W91917  27.667  13.899  18.520
91053W        W91918  25.677  13.791  21.362
91054W        W91919  26.420  11.783  20.600
91055W        W91920  26.390  11.131  19.710
91056W        W91921  28.011  11.973  20.402
91057W        W91922  26.809  13.144  18.602
91058W        W91923  28.807  13.086  20.101
91059W        W91924  26.134  13.844  21.524
91060W        W91925  28.521  14.526  19.321
91061W        W91926  26.620  11.546  19.766
91062W        W91927  26.389  13.039  19.856
91063W        W91928  26.702  14.450  20.606
91064W        W91929  28.769  14.546  21.638
91065W        W91930  27.928  12.734  20.571
91066W        W91931  25.777  12.532  18.486
91067W        W91932  28.911  14.190  19.183
91068W        W91933  28.748  11.514  18.802
91069W        W91934  26.887  11.033  21.205
91070W        W91935  28.593  13.835  19.663
91071W        W91936  28.622  12.391  19.568
91072W        W91937  26.739  12.064  19.784
91073W        W91938  26.984  12.326  21.108
91074W        W91939  28.095  13.479  20.971
91075W        W91940  26.745  11.933  21.083
91076W        W91941  26.724  14.399  19.699
91077W        W91942  26.041  14.358  21.333
91078W        W91943  26.153  13.719  18.463
91079W        W91944  28.670  13.477  19.273
91080W        W91945  26.274  12.269  21.159
91081W        W91946  29.047  12.199  18.640
91082W        W91947  26.792  13.256  19.111
91083W        W91948  27.891  12.638  21.192
91084W        W91949  27.782  12.266  20.736
91085W        W91950  26.342  12.638  20.765
91086W        W91951  28.552  14.526  20.594
91087W        W91952  28.343  11.160  21.588
91088W        W91953  26.007  11.310  21.175
91089W        W91954  26.346  12.333  20.228
91090W        W91955  26.715  12.147  18.350
91091W        W91956  25.518  13.906  20.895
91092W        W91957  27.103  12.615  20.338
91093W        W91958  26.926  11.640  18.443
91094W        W91959  26.061  12.456  19.224
91095W        W91960  25.832  14.308  20.661
91096W        W91961  28.627  12.534  18.769
91097W        W91962  28.722  11.450  21.455
91098W        W91963  28.158  13.659  19.418
91099W        W91964  25.756  12.583  21.595
91100W        W91965  28.722  11.047  18.891
91101W        W91966  28.242  13.522  18.902
91102W        W91967  27.144  12.580  18.987
91103W        W91968  28.331  11.384  18.510
91104W        W91969  28.396  11.991  20.696
91105W        W91970  26.105  12.584  19.903
91106W        W91971  26.399  13.523  19.552
91107W        W91972  28.162  12.143  19.517
91108W        W91973  27.185  11.522  20.213
91109W        W91974  29.147  13.433  20.724
91110W        W91975  29.065  11.420  20.285
91111W        W91976  25.604  14.250  19.661
91112W        W91977  26.113  13.437  19.197
91113W        W91978  26.028  11.054  21.750
91114W        W91979  27.147  13.907  21.852
91115W        W91980  28.902  12.875  19.642
91116W        W91981  28.256  13.052  18.522
91117W        W91982  27.551  14.573  20.734
91118W        W91983  28.408  13.295  21.771
91119W        W91984  27.223  11.005  19.051
91120W        W91985  27.936  11.874  19.910
91121W        W91986  25.622  13.461  20.242
91122W        W91987  26.875  11.423  18.883
91123W        W91988  26.679  12.907  21.732
91124W        W91989  27.673  11.888  19.446
91125W        W91990  27.878  13.298  20.568
91126W        W91991  26.032  13.903  21.003
91127W        W91992  26.623  13.886  21.726
91128W        W91993  26.474  11.683  18.740
91129W        W91994  27.991  11.825  19.065
91130W        W91995  27.949  13.933  21.302
91131W        W91996  26.634  12.525  19.901
91132W        W91997  26.289  14.223  20.766
91133W        W91998  29.034  14.340  18.367
91134W        W91999  25.897  13.012  21.363
91135W        W92000  27.892  13.274  20.051
91136W        W92001  26.328  12.923  19.293
91137W        W92002  26.699  13.930  20.688
91138W        W92003  27.077  11.349  19.729
91139W        W92004  25.688  13.333  18.659
91140W        W92005  27.207  12.284  18.529
91141W        W92006  25.853  12.833  19.548
91142W        W92007  27.143  11.475  21.012
91143W        W92008  28.815  11.184  18.439
91144W        W92009  28.908  12.930  21.538
91145W        W92010  27.562  14.187  21.690
91146W        W92011  29.120  13.281  21.212
91147W        W92012  28.528  14.079  21.823
91148W        W92013  26.267  14.535  20.301
91149W        W92014  29.126  13.157  19.175
91150W        W92015  27.656  12.424  19.688
91151W        W92016  27.423  11.036  19.578
91152W        W92017  26.482  14.020  19.415
91153W        W92018  26.981  11.761  20.640
91154W        W92019  26.681  11.130  20.109
91155W        W92020  25.744  13.952  18.657
91156W        W92021  27.560  13.316  19.375
91157W        W92022  26.435  14.111  21.254
91158W        W92023  25.912  12.934  18.950
91159W        W92024  25.797  11.477  19.949
91160W        W92025  27.345  13.442  20.006
91161W        W92026  25.597  11.296  19.026
91162W        W92027  28.261  12.502  20.953
91163W        W92028  28.138  11.888  18.525
91164W        W92029  28.655  13.560  20.173
91165W        W92030  27.316  14.044  20.004
91166W        W92031  26.728  14.148  18.915
91167W        W92032  28.010  11.051  18.345
91168W        W92033  25.810  14.311  20.086
91169W        W92034  28.007  12.069  21.721
91170W        W92035  25.990  11.599  21.720
91171W        W92036  25.721  12.199  19.053
91172W        W92037  26.412  12.188  18.778
91173W        W92038  28.175  12.515  21.595
91174W        W92039  26.518  12.796  20.304
91175W        W92040  27.992  11.082  19.424
91176W        W92041  27.123  14.513  19.927
91177W        W92042  28.337  13.975  20.864
91178W        W92043  27.921  14.124  19.975
91179W        W92044  27.940  13.104  19.569
91180W        W92045  27.402  11.329  18.640
91181W        W92046  29.083  10.957  19.362
91182W        W92047  26.771  12.592  18.525
91183W        W92048  28.937  11.929  19.515
91184W        W92049  27.629  13.099  18.392
91185W        W92050  28.565  13.299  21.140
91186W        W92051  28.219  14.000  18.607
91187W        W92052  26.834  11.675  21.513
91188W        W92053  26.654  12.259  20.754
91189W        W92054  28.746  13.754  21.031
91190W        W92055  27.846  11.704  21.408
91191W        W92056  25.690  12.175  21.185
91192W        W92057  27.450  12.652  20.911
91193W        W92058  25.807  13.410  19.568
91194W        W92059  25.954  12.707  20.458
91195W        W92060  28.271  12.993  20.808
91196W        W92061  28.043  14.373  21.619
91197W        W92062  27.939  12.112  21.172
91198W        W92063  28.216  14.166  19.577
91199W        W92064  27.218  13.886  20.900
91200W        W92065  26.703  14.241  20.169
91201W        W92066  28.508  13.412  20.588
91202W        W92067  27.558  13.484  21.725
91203W        W92068  26.163  13.437  20.064
91204W        W92069  28.509  13.196  19.709
91205W        W92070  28.150  14.262  20.460
91206W        W92071  26.128  13.991  20.330
91207W        W92072  27.149  12.043  21.540
91208W        W92073  27.600  14.209  19.051
91209W        W92074  26.908  13.464  21.689
91210W        W92075  27.034  13.702  19.066
91211W        W92076  26.255  12.442  18.325
91212W        W92077  25.594  14.528  25.225
91213W        W92078  25.970  13.421  24.748
91214W        W92079  28.675  13.151  22.518
91215W        W92080  28.805  14.236  24.545
91216W        W92081  26.723  14.227  22.071
91217W        W92082  26.806  12.379  23.054
91218W        W92083  26.321  12.227  23.218
91219W        W92084  27.312  13.042  22.652
91220W        W92085  26.987  14.134  25.007
91221W        W92086  25.636  11.695  24.970
91222W        W92087  26.398  10.975  24.772
91223W        W92088  28.092  11.363  23.659
91224W        W92089  27.741  12.234  22.229
91225W        W92090  28.311  11.668  25.320
91226W        W92091  25.677  11.460  24.445
91227W        W92092  25.776  14.079  25.466
91228W        W92093  27.298  13.469  22.198
91229W        W92094  25.730  12.252  23.891
91230W        W92095  26.623  12.143  25.128
91231W        W92096  29.082  12.002  23.627
91232W        W92097  28.846  13.045  24.486
91233W        W92098  27.154  12.378  23.513
91234W        W92099  27.700  13.717  23.882
91235W        W92100  26.200  13.151  24.114
91236W        W92101  25.559  12.679  23.685
91237W        W92102  26.595  12.651  24.877
91238W        W92103  28.866  12.434  25.131
91239W        W92104  26.482  13.878  23.576
91240W        W92105  27.603  13.567  24.710
91241W        W92106  26.823  12.207  23.935
91242W        W92107  27.115  12.991  23.578
91243W        W92108  28.112  13.764  25.426
91244W        W92109  27.191  13.084  25.436
91245W        W92110  27.172  12.800  24.914
91246W        W92111  25.581  12.191  25.436
91247W        W92112  28.413  13.726  25.035
91248W        W92113  25.994  11.308  23.033
91249W        W92114  26.521  13.566  24.032
91250W        W92115  28.984  13.349  23.322
91251W        W92116  28.397  11.749  23.889
91252W        W92117  28.682  11.702  21.984
91253W        W92118  29.147  12.503  24.290
91254W        W92119  27.114  14.210  24.043
91255W        W92120  28.888  13.676  22.481
91256W        W92121  26.017  14.462  22.235
91257W        W92122  26.410  14.508  22.911
91258W        W92123  26.207  11.262  24.337
91259W        W92124  28.830  12.280  24.612
91260W        W92125  28.235  12.702  23.071
91261W        W92126  28.201  12.390  22.098
91262W        W92127  27.409  13.534  24.238
91263W        W92128  27.215  11.864  23.437
91264W        W92129  27.815  13.951  24.431
91265W        W92130  28.686  12.742  22.853
91266W        W92131  27.588  11.400  22.869
91267W        W92132  26.245  14.094  22.552
91268W        W92133  25.616  11.593  23.151
91269W        W92134  28.402  12.200  23.625
91270W        W92135  25.860  13.817  23.540
91271W        W92136  27.201  14.167  22.410
91272W        W92137  28.593  12.193  21.874
91273W        W92138  25.616  13.951  24.038
91274W        W92139  26.407  13.523  24.518
91275W        W92140  26.780  12.883  23.137
91276W        W92141  26.802  11.288  24.230
91277W        W92142  29.031  11.050  23.527
91278W        W92143  26.250  12.922  21.995
91279W        W92144  25.905  11.955  22.174
91280W        W92145  25.967  13.911  22.968
91281W        W92146  27.098  13.394  23.216
91282W        W92147  28.430  14.253  24.930
91283W        W92148  27.356  11.895  22.614
91284W        W92149  28.739  14.293  23.386
91285W        W92150  28.416  12.146  24.984
91286W        W92151  29.129  13.802  23.118
91287W        W92152  27.756  13.094  24.602
91288W        W92153  25.522  12.645  22.808
91289W        W92154  26.633  13.060  24.381
91290W        W92155  27.837  12.324  22.759
91291W        W92156  27.714  12.814  22.863
91292W        W92157  26.057  12.234  24.337
91293W        W92158  26.042  12.110  25.259
91294W        W92159  25.932  11.027  23.418
91295W        W92160  27.700  11.374  23.979
91296W        W92161  27.348  11.559  25.142
91297W        W92162  27.703  11.708  22.320
91298W        W92163  28.886  14.101  25.074
91299W        W92164  27.853  11.182  25.113
91300W        W92165  28.872  13.483  25.235
91301W        W92166  28.302  11.650  24.831
91302W        W92167  28.102  11.588  23.101
91303W        W92168  28.495  12.722  25.505
91304W        W92169  26.235  14.298  23.491
91305W        W92170  26.893  12.015  22.477
91306W        W92171  26.462  11.299  25.141
91307W        W92172  28.514  11.783  22.822
91308W        W92173  28.881  12.265  22.767
91309W        W92174  26.624  14.482  25.238
91310W        W92175  26.550  11.018  22.473
91311W        W92176  28.871  11.552  23.508
91312W        W92177  29.021  13.801  21.953
91313W        W92178  25.928  13.004  23.655
91314W        W92179  27.845  11.591  21.885
91315W        W92180  28.979  13.923  23.605
91316W        W92181  29.018  11.117  24.355
91317W        W92182  27.463  12.329  24.909
91318W        W92183  27.556  13.668  22.612
91319W        W92184  27.956  12.962  25.352
91320W        W92185  27.630  10.939  23.661
91321W        W92186  26.242  11.842  23.724
91322W        W92187  25.796  13.042  24.498
91323W        W92188  27.655  14.235  23.204
91324W        W92189  28.849  11.832  24.076
91325W        W92190  27.486  14.179  24.843
91326W        W92191  28.829  13.238  22.048
91327W        W92192  27.264  12.721  23.109
91328W        W92193  29.116  11.232  24.850
91329W        W92194  27.265  13.067  24.444
91330W        W92195  27.482  11.953  23.889
91331W        W92196  28.334  12.251  22.727
91332W        W92197  28.621  11.984  22.369
91333W        W92198  28.430  14.024  22.758
91334W        W92199  28.264  13.627  23.554
91335W        W92200  28.160  12.706  22.532
91336W        W92201  27.593  12.916  23.518
91337W        W92202  28.474  12.704  23.585
91338W        W92203  25.849  11.719  24.009
91339W        W92204  28.627  12.771  24.836
91340W        W92205  28.978  14.389  23.982
91341W        W92206  26.908  13.833  23.384
91342W        W92207  27.915  14.366  24.708
91343W        W92208  27.909  11.696  24.472
91344W        W92209  27.116  14.404  24.533
91345W        W92210  28.813  11.358  22.999
91346W        W92211  28.604  12.677  24.300
91347W        W92212  25.587  11.998  24.338
91348W        W92213  28.447  11.793  23.356
91349W        W92214  28.858  11.944  25.133
91350W        W92215  27.743  13.643  23.351
91351W        W92216  26.999  14.234  22.964
91352W        W92217  26.114  11.414  22.222
91353W        W92218  27.218  11.068  24.032
91354W        W92219  26.246  14.188  21.880
91355W        W92220  26.620  12.654  22.631
91356W        W92221  27.274  13.283  24.944
91357W        W92222  27.104  11.641  22.934
91358W        W92223  28.460  11.238  23.362
91359W        W92224  28.180  14.520  23.690
91360W        W92225  27.592  14.168  24.030
91361W        W92226  26.988  13.205  23.991
91362W        W92227  28.758  13.928  24.117
91363W        W92228  26.452  11.431  22.886
91364W        W92229  26.974  13.728  23.846
91365W        W92230  26.457  11.659  21.911
91366W        W92231  27.258  12.268  24.305
91367W        W92232  28.106  11.134  24.175
91368W        W92233  25.526  12.977  24.060
91369W        W92234  27.230  12.795  22.218
91370W        W92235  26.498  11.110  21.988
91371W        W92236  27.236  12.191  23.039
91372W        W92237  28.206  11.167  24.738
91373W        W92238  26.794  13.179  24.847
91374W        W92239  27.598  12.961  25.064
91375W        W92240  28.215  12.991  24.957
91376W        W92241  27.499  11.131  25.462
91377W        W92242  26.721  11.747  23.855
91378W        W92243  26.147  11.703  23.253
91379W        W92244  25.933  14.415  22.929
91380W        W92245  27.265  13.745  25.054
91381W        W92246  26.300  13.230  22.413
91382W        W92247  27.980  12.615  23.634
91383W        W92248  28.260  12.414  24.033
91384W        W92249  27.465  13.088  23.967
91385W        W92250  27.935  13.462  22.099
91386W        W92251  27.607  11.483  23.427
91387W        W92252  29.086  11.761  22.695
91388W        W92253  25.580  14.350  24.726
91389W        W92254  25.997  13.576  24.258
91390W        W92255  25.564  14.422  22.490
91391W        W92256  27.463  11.692  24.296
91392W        W92257  26.826  13.715  22.145
91393W        W92258  28.731  14.097  22.331
91394W        W92259  27.706  12.750  22.345
91395W        W92260  26.549  11.941  22.862
91396W        W92261  27.381  11.851  21.914
91397W        W92262  27.965  13.416  25.092
91398W        W92263  28.318  11.322  22.709
91399W        W92264  25.648  11.170  22.157
91400W        W92265  26.934  13.489  24.447
91401W        W92266  26.733  13.405  23.539
91402W        W92267  26.475  13.357  21.937
91403W        W92268  25.716  13.598  22.705
91404W        W92269  26.220  12.668  25.147
91405W        W92270  26.924  11.228  25.333
91406W        W92271  27.633  11.370  24.689
91407W        W92272  26.828  11.138  22.970
91408W        W92273  27.887  11.215  22.475
91409W        W92274  25.832  11.147  24.052
91410W        W92275  25.880  12.110  23.422
91411W        W92276  28.569  11.218  23.828
91412W        W92277  25.991  11.716  22.642
91413W        W92278  28.562  11.404  24.258
91414W        W92279  28.958  12.607  21.943
91415W        W92280  26.250  11.365  23.762
91416W        W92281  27.364  11.937  24.702
91417W        W92282  25.512  11.627  22.180
91418W        W92283  26.298  13.016  24.741
91419W        W92284  27.656  12.414  23.920
91420W        W92285  27.523  14.493  22.216
91421W        W92286  25.669  13.000  21.913
91422W        W92287  26.404  13.411  25.039
91423W        W92288  25.925  12.578  24.670
91424W        W92289  26.916  12.683  24.464
91425W        W92290  28.684  11.042  24.726
91426W        W92291  29.082  12.652  24.717
91427W        W92292  29.070  12.852  22.403
91428W        W92293  27.933  13.184  22.502
91429W        W92294  28.407  14.484  22.197
91430W        W92295  27.584  12.474  25.339
91431W        W92296  25.914  13.441  25.379
91432W        W92297  29.120  11.363  25.331
91433W        W92298  28.838  12.291  23.952
91434W        W92299  27.146  14.421  25.429
91435W        W92300  27.001  11.050  22.156
91436W        W92301  28.540  13.649  22.099
91437W        W92302  26.309  11.742  24.985
91438W        W92303  26.743  13.736  24.847
91439W        W92304  28.869  11.727  24.645
91440W        W92305  28.080  14.386  22.613
91441W        W92306  28.319  13.005  23.980
91442W        W92307  26.569  11.421  24.647
91443W        W92308  27.038  12.490  25.404
91444W        W92309  26.541  13.669  22.598
91445W        W92310  28.296  13.167  22.862
91446W        W92311  26.064  11.793  24.586
91447W        W92312  29.143  12.415  23.231
91448W        W92313  27.365  11.048  24.950
91449W        W92314  28.145  13.753  24.029
91450W        W92315  28.448  14.097  23.737
91451W        W92316  27.667  13.899  22.165
91452W        W92317  25.677  13.791  25.007
91453W        W92318  26.420  11.783  24.245
91454W        W92319  26.390  11.131  23.355
91455W        W92320  28.011  11.973  24.047
91456W        W92321  26.809  13.144  22.247
91457W        W92322  28.807  13.086  23.746
91458W        W92323  26.134  13.844  25.169
91459W        W92324  28.521  14.526  22.966
91460W        W92325  26.620  11.546  23.411
91461W        W92326  26.389  13.039  23.501
91462W        W92327  26.702  14.450  24.251
91463W        W92328  28.769  14.546  25.283
91464W        W92329  25.777  12.532  22.131
91465W        W92330  28.911  14.190  22.828
91466W        W92331  28.748  11.514  22.447
91467W        W92332  26.887  11.033  24.850
91468W        W92333  28.593  13.835  23.308
91469W        W92334  28.622  12.391  23.213
91470W        W92335  26.739  12.064  23.429
91471W        W92336  26.984  12.326  24.753
91472W        W92337  28.095  13.479  24.616
91473W        W92338  26.745  11.933  24.728
91474W        W92339  26.724  14.399  23.344
91475W        W92340  26.041  14.358  24.978
91476W        W92341  26.153  13.719  22.108
91477W        W92342  28.670  13.477  22.918
91478W        W92343  26.274  12.269  24.804
91479W        W92344  29.047  12.199  22.285
91480W        W92345  26.792  13.256  22.756
91481W        W92346  27.891  12.638  24.837
91482W        W92347  27.782  12.266  24.381
91483W        W92348  26.342  12.638  24.410
91484W        W92349  28.552  14.526  24.239
91485W        W92350  28.343  11.160  25.233
91486W        W92351  26.007  11.310  24.820
91487W        W92352  26.346  12.333  23.873
91488W        W92353  26.715  12.147  21.995
91489W        W92354  25.518  13.906  24.540
91490W        W92355  27.103  12.615  23.983
91491W        W92356  26.926  11.640  22.088
91492W        W92357  26.061  12.456  22.869
91493W        W92358  25.832  14.308  24.306
91494W        W92359  28.627  12.534  22.414
91495W        W92360  28.722  11.450  25.100
91496W        W92361  28.158  13.659  23.063
91497W        W92362  25.756  12.583  25.240
91498W        W92363  28.722  11.047  22.536
91499W        W92364  28.242  13.522  22.547
91500W        W92365  27.144  12.580  22.632
91501W        W92366  28.331  11.384  22.155
91502W        W92367  28.396  11.991  24.341
91503W        W92368  26.105  12.584  23.548
91504W        W92369  26.399  13.523  23.197
91505W        W92370  28.162  12.143  23.162
91506W        W92371  27.185  11.522  23.858
91507W        W92372  29.147  13.433  24.369
91508W        W92373  29.065  11.420  23.930
91509W        W92374  25.604  14.250  23.306
91510W        W92375  26.113  13.437  22.842
91511W        W92376  26.028  11.054  25.395
91512W        W92377  27.147  13.907  25.497
91513W        W92378  28.902  12.875  23.287
91514W        W92379  28.256  13.052  22.167
91515W        W92380  27.551  14.573  24.379
91516W        W92381  28.408  13.295  25.416
91517W        W92382  27.223  11.005  22.696
91518W        W92383  27.936  11.874  23.555
91519W        W92384  25.622  13.461  23.887
91520W        W92385  26.875  11.423  22.528
91521W        W92386  26.679  12.907  25.377
91522W        W92387  27.673  11.888  23.091
91523W        W92388  27.878  13.298  24.213
91524W        W92389  26.032  13.903  24.648
91525W        W92390  26.623  13.886  25.371
91526W        W92391  26.474  11.683  22.385
91527W        W92392  27.991  11.825  22.710
91528W        W92393  27.949  13.933  24.947
91529W        W92394  26.634  12.525  23.546
91530W        W92395  26.289  14.223  24.411
91531W        W92396  29.034  14.340  22.012
91532W        W92397  25.897  13.012  25.008
91533W        W92398  27.892  13.274  23.696
91534W        W92399  26.328  12.923  22.938
91535W        W92400  26.699  13.930  24.333
91536W        W92401  27.077  11.349  23.374
91537W        W92402  25.688  13.333  22.304
91538W        W92403  27.207  12.284  22.174
91539W        W92404  25.853  12.833  23.193
91540W        W92405  27.143  11.475  24.657
91541W        W92406  28.815  11.184  22.084
91542W        W92407  28.908  12.930  25.183
91543W        W92408  27.562  14.187  25.335
91544W        W92409  29.120  13.281  24.857
91545W        W92410  28.528  14.079  25.468
91546W        W92411  26.267  14.535  23.946
91547W        W92412  29.126  13.157  22.820
91548W        W92413  27.656  12.424  23.333
91549W        W92414  27.423  11.036  23.223
91550W        W92415  26.482  14.020  23.060
91551W        W92416  26.981  11.761  24.285
91552W        W92417  26.681  11.130  23.754
91553W        W92418  25.744  13.952  22.302
91554W        W92419  27.560  13.316  23.020
91555W        W92420  26.435  14.111  24.899
91556W        W92421  25.912  12.934  22.595
91557W        W92422  25.797  11.477  23.594
91558W        W92423  27.345  13.442  23.651
91559W        W92424  25.597  11.296  22.671
91560W        W92425  28.261  12.502  24.598
91561W        W92426  28.138  11.888  22.170
91562W        W92427  28.655  13.560  23.818
91563W        W92428  27.316  14.044  23.649
91564W        W92429  26.728  14.148  22.560
91565W        W92430  28.010  11.051  21.990
91566W        W92431  25.810  14.311  23.731
91567W        W92432  28.007  12.069  25.366
91568W        W92433  25.990  11.599  25.365
91569W        W92434  25.721  12.199  22.698
91570W        W92435  26.412  12.188  22.423
91571W        W92436  28.175  12.515  25.240
91572W        W92437  26.518  12.796  23.949
91573W        W92438  27.992  11.082  23.069
91574W        W92439  27.123  14.513  23.572
91575W        W92440  28.337  13.975  24.509
91576W        W92441  27.921  14.124  23.620
91577W        W92442  27.940  13.104  23.214
91578W        W92443  27.402  11.329  22.285
91579W        W92444  29.083  10.957  23.007
91580W        W92445  26.771  12.592  22.170
91581W        W92446  28.937  11.929  23.160
91582W        W92447  27.629  13.099  22.037
91583W        W92448  28.565  13.299  24.785
91584W        W92449  28.219  14.000  22.252
91585W        W92450  26.834  11.675  25.158
91586W        W92451  26.654  12.259  24.399
91587W        W92452  28.746  13.754  24.676
91588W        W92453  27.846  11.704  25.053
91589W        W92454  25.690  12.175  24.830
91590W        W92455  27.450  12.652  24.556
91591W        W92456  25.807  13.410  23.213
91592W        W92457  25.954  12.707  24.103
91593W        W92458  28.271  12.993  24.453
91594W        W92459  28.043  14.373  25.264
91595W        W92460  27.939  12.112  24.817
91596W        W92461  28.216  14.166  23.222
91597W        W92462  27.218  13.886  24.545
91598W        W92463  26.703  14.241  23.814
91599W        W92464  28.508  13.412  24.233
91600W        W92465  27.558  13.484  25.370
91601W        W92466  26.163  13.437  23.709
91602W        W92467  28.509  13.196  23.354
91603W        W92468  28.150  14.262  24.105
91604W        W92469  26.128  13.991  23.975
91605W        W92470  27.149  12.043  25.185
91606W        W92471  27.600  14.209  22.696
91607W        W92472  26.908  13.464  25.334
91608W        W92473  27.034  13.702  22.711
91609W        W92474  26.255  12.442  21.970
91610W        W92475  25.594  14.528  28.869
91611W        W92476  25.970  13.421  28.392
91612W        W92477  28.675  13.151  26.162
91613W        W92478  28.805  14.236  28.189
91614W        W92479  26.723  14.227  25.715
91615W        W92480  26.806  12.379  26.698
91616W        W92481  26.321  12.227  26.862
91617W        W92482  27.312  13.042  26.296
91618W        W92483  26.987  14.134  28.651
91619W        W92484  25.636  11.695  28.614
91620W        W92485  26.398  10.975  28.416
91621W        W92486  28.092  11.363  27.303
91622W        W92487  27.741  12.234  25.873
91623W        W92488  28.311  11.668  28.964
91624W        W92489  25.677  11.460  28.089
91625W        W92490  25.776  14.079  29.110
91626W        W92491  27.298  13.469  25.842
91627W        W92492  25.730  12.252  27.535
91628W        W92493  26.623  12.143  28.772
91629W        W92494  29.082  12.002  27.271
91630W        W92495  28.846  13.045  28.130
91631W        W92496  27.154  12.378  27.157
91632W        W92497  27.700  13.717  27.526
91633W        W92498  26.200  13.151  27.758
91634W        W92499  25.559  12.679  27.329
91635W        W92500  26.595  12.651  28.521
91636W        W92501  28.866  12.434  28.775
91637W        W92502  26.482  13.878  27.220
91638W        W92503  27.603  13.567  28.354
91639W        W92504  26.823  12.207  27.579
91640W        W92505  27.115  12.991  27.222
91641W        W92506  28.112  13.764  29.070
91642W        W92507  27.191  13.084  29.080
91643W        W92508  27.172  12.800  28.558
91644W        W92509  25.581  12.191  29.080
91645W        W92510  28.413  13.726  28.679
91646W        W92511  25.994  11.308  26.677
91647W        W92512  26.521  13.566  27.676
91648W        W92513  28.984  13.349  26.966
91649W        W92514  28.397  11.749  27.533
91650W        W92515  28.682  11.702  25.628
91651W        W92516  29.147  12.503  27.934
91652W        W92517  27.114  14.210  27.687
91653W        W92518  28.888  13.676  26.125
91654W        W92519  26.017  14.462  25.879
91655W        W92520  26.410  14.508  26.555
91656W        W92521  26.207  11.262  27.981
91657W        W92522  28.830  12.280  28.256
91658W        W92523  28.235  12.702  26.715
91659W        W92524  28.201  12.390  25.742
91660W        W92525  27.409  13.534  27.882
91661W        W92526  27.215  11.864  27.081
91662W        W92527  27.815  13.951  28.075
91663W        W92528  28.686  12.742  26.497
91664W        W92529  27.588  11.400  26.513
91665W        W92530  26.245  14.094  26.196
91666W        W92531  25.616  11.593  26.795
91667W        W92532  28.402  12.200  27.269
91668W        W92533  25.860  13.817  27.184
91669W        W92534  27.201  14.167  26.054
91670W        W92535  28.593  12.193  25.518
91671W        W92536  25.616  13.951  27.682
91672W        W92537  26.407  13.523  28.162
91673W        W92538  26.780  12.883  26.781
91674W        W92539  26.802  11.288  27.874
91675W        W92540  29.031  11.050  27.171
91676W        W92541  26.250  12.922  25.639
91677W        W92542  25.905  11.955  25.818
91678W        W92543  25.967  13.911  26.612
91679W        W92544  27.098  13.394  26.860
91680W        W92545  28.430  14.253  28.574
91681W        W92546  27.356  11.895  26.258
91682W        W92547  28.739  14.293  27.030
91683W        W92548  28.416  12.146  28.628
91684W        W92549  29.129  13.802  26.762
91685W        W92550  27.756  13.094  28.246
91686W        W92551  25.522  12.645  26.452
91687W        W92552  26.633  13.060  28.025
91688W        W92553  27.837  12.324  26.403
91689W        W92554  27.714  12.814  26.507
91690W        W92555  26.057  12.234  27.981
91691W        W92556  26.042  12.110  28.903
91692W        W92557  25.932  11.027  27.062
91693W        W92558  27.700  11.374  27.623
91694W        W92559  27.348  11.559  28.786
91695W        W92560  27.703  11.708  25.964
91696W        W92561  28.886  14.101  28.718
91697W        W92562  27.853  11.182  28.757
91698W        W92563  28.872  13.483  28.879
91699W        W92564  28.302  11.650  28.475
91700W        W92565  28.102  11.588  26.745
91701W        W92566  28.495  12.722  29.149
91702W        W92567  26.235  14.298  27.135
91703W        W92568  26.893  12.015  26.121
91704W        W92569  26.462  11.299  28.785
91705W        W92570  28.514  11.783  26.466
91706W        W92571  28.881  12.265  26.411
91707W        W92572  26.624  14.482  28.882
91708W        W92573  26.550  11.018  26.117
91709W        W92574  28.871  11.552  27.152
91710W        W92575  29.021  13.801  25.597
91711W        W92576  25.928  13.004  27.299
91712W        W92577  27.845  11.591  25.529
91713W        W92578  28.979  13.923  27.249
91714W        W92579  29.018  11.117  27.999
91715W        W92580  27.463  12.329  28.553
91716W        W92581  27.556  13.668  26.256
91717W        W92582  27.956  12.962  28.996
91718W        W92583  27.630  10.939  27.305
91719W        W92584  26.242  11.842  27.368
91720W        W92585  25.796  13.042  28.142
91721W        W92586  27.655  14.235  26.848
91722W        W92587  28.849  11.832  27.720
91723W        W92588  27.486  14.179  28.487
91724W        W92589  28.829  13.238  25.692
91725W        W92590  27.264  12.721  26.753
91726W        W92591  29.116  11.232  28.494
91727W        W92592  27.265  13.067  28.088
91728W        W92593  27.482  11.953  27.533
91729W        W92594  28.334  12.251  26.371
91730W        W92595  28.621  11.984  26.013
91731W        W92596  28.430  14.024  26.402
91732W        W92597  28.264  13.627  27.198
91733W        W92598  28.160  12.706  26.176
91734W        W92599  27.593  12.916  27.162
91735W        W92600  28.474  12.704  27.229
91736W        W92601  25.849  11.719  27.653
91737W        W92602  28.627  12.771  28.480
91738W        W92603  28.978  14.389  27.626
91739W        W92604  26.908  13.833  27.028
91740W        W92605  27.915  14.366  28.352
91741W        W92606  27.909  11.696  28.116
91742W        W92607  27.116  14.404  28.177
91743W        W92608  28.813  11.358  26.643
91744W        W92609  28.604  12.677  27.944
91745W        W92610  25.587  11.998  27.982
91746W        W92611  28.447  11.793  27.000
91747W        W92612  28.858  11.944  28.777
91748W        W92613  27.743  13.643  26.995
91749W        W92614  26.999  14.234  26.608
91750W        W92615  26.114  11.414  25.866
91751W        W92616  27.218  11.068  27.676
91752W        W92617  26.246  14.188  25.524
91753W        W92618  26.620  12.654  26.275
91754W        W92619  27.274  13.283  28.588
91755W        W92620  27.104  11.641  26.578
91756W        W92621  28.460  11.238  27.006
91757W        W92622  28.180  14.520  27.334
91758W        W92623  27.592  14.168  27.674
91759W        W92624  26.988  13.205  27.635
91760W        W92625  28.758  13.928  27.761
91761W        W92626  26.452  11.431  26.530
91762W        W92627  26.974  13.728  27.490
91763W        W92628  26.457  11.659  25.555
91764W        W92629  27.258  12.268  27.949
91765W        W92630  28.106  11.134  27.819
91766W        W92631  25.526  12.977  27.704
91767W        W92632  27.230  12.795  25.862
91768W        W92633  26.498  11.110  25.632
91769W        W92634  27.236  12.191  26.683
91770W        W92635  28.206  11.167  28.382
91771W        W92636  26.794  13.179  28.491
91772W        W92637  27.598  12.961  28.708
91773W        W92638  28.215  12.991  28.601
91774W        W92639  27.499  11.131  29.106
91775W        W92640  26.721  11.747  27.499
91776W        W92641  26.147  11.703  26.897
91777W        W92642  25.933  14.415  26.573
91778W        W92643  27.265  13.745  28.698
91779W        W92644  26.300  13.230  26.057
91780W        W92645  27.980  12.615  27.278
91781W        W92646  28.260  12.414  27.677
91782W        W92647  27.465  13.088  27.611
91783W        W92648  27.935  13.462  25.743
91784W        W92649  27.607  11.483  27.071
91785W        W92650  29.086  11.761  26.339
91786W        W92651  25.580  14.350  28.370
91787W        W92652  25.997  13.576  27.902
91788W        W92653  25.564  14.422  26.134
91789W        W92654  27.463  11.692  27.940
91790W        W92655  26.826  13.715  25.789
91791W        W92656  28.731  14.097  25.975
91792W        W92657  27.706  12.750  25.989
91793W        W92658  26.549  11.941  26.506
91794W        W92659  27.381  11.851  25.558
91795W        W92660  27.965  13.416  28.736
91796W        W92661  28.318  11.322  26.353
91797W        W92662  25.648  11.170  25.801
91798W        W92663  26.934  13.489  28.091
91799W        W92664  26.733  13.405  27.183
91800W        W92665  26.475  13.357  25.581
91801W        W92666  25.716  13.598  26.349
91802W        W92667  26.220  12.668  28.791
91803W        W92668  26.924  11.228  28.977
91804W        W92669  27.633  11.370  28.333
91805W        W92670  26.828  11.138  26.614
91806W        W92671  27.887  11.215  26.119
91807W        W92672  25.832  11.147  27.696
91808W        W92673  25.880  12.110  27.066
91809W        W92674  28.569  11.218  27.472
91810W        W92675  25.991  11.716  26.286
91811W        W92676  28.562  11.404  27.902
91812W        W92677  28.958  12.607  25.587
91813W        W92678  26.250  11.365  27.406
91814W        W92679  27.364  11.937  28.346
91815W        W92680  25.512  11.627  25.824
91816W        W92681  26.298  13.016  28.385
91817W        W92682  27.656  12.414  27.564
91818W        W92683  27.523  14.493  25.860
91819W        W92684  25.669  13.000  25.557
91820W        W92685  26.404  13.411  28.683
91821W        W92686  25.925  12.578  28.314
91822W        W92687  26.916  12.683  28.108
91823W        W92688  28.684  11.042  28.370
91824W        W92689  29.082  12.652  28.361
91825W        W92690  29.070  12.852  26.047
91826W        W92691  27.933  13.184  26.146
91827W        W92692  28.407  14.484  25.841
91828W        W92693  27.584  12.474  28.983
91829W        W92694  25.914  13.441  29.023
91830W        W92695  29.120  11.363  28.975
91831W        W92696  28.838  12.291  27.596
91832W        W92697  27.146  14.421  29.073
91833W        W92698  27.001  11.050  25.800
91834W        W92699  28.540  13.649  25.743
91835W        W92700  26.309  11.742  28.629
91836W        W92701  26.743  13.736  28.491
91837W        W92702  28.869  11.727  28.289
91838W        W92703  28.080  14.386  26.257
91839W        W92704  28.319  13.005  27.624
91840W        W92705  26.569  11.421  28.291
91841W        W92706  27.038  12.490  29.048
91842W        W92707  26.541  13.669  26.242
91843W        W92708  28.296  13.167  26.506
91844W        W92709  26.064  11.793  28.230
91845W        W92710  27.393  13.855  26.694
91846W        W92711  29.143  12.415  26.875
91847W        W92712  27.365  11.048  28.594
91848W        W92713  28.145  13.753  27.673
91849W        W92714  28.448  14.097  27.381
91850W        W92715  27.667  13.899  25.809
91851W        W92716  25.677  13.791  28.651
91852W        W92717  26.420  11.783  27.889
91853W        W92718  26.390  11.131  26.999
91854W        W92719  28.011  11.973  27.691
91855W        W92720  26.809  13.144  25.891
91856W        W92721  28.807  13.086  27.390
91857W        W92722  26.134  13.844  28.813
91858W        W92723  28.521  14.526  26.610
91859W        W92724  26.620  11.546  27.055
91860W        W92725  26.389  13.039  27.145
91861W        W92726  26.702  14.450  27.895
91862W        W92727  28.769  14.546  28.927
91863W        W92728  27.928  12.734  27.860
91864W        W92729  25.777  12.532  25.775
91865W        W92730  28.911  14.190  26.472
91866W        W92731  28.748  11.514  26.091
91867W        W92732  26.887  11.033  28.494
91868W        W92733  28.593  13.835  26.952
91869W        W92734  28.622  12.391  26.857
91870W        W92735  26.739  12.064  27.073
91871W        W92736  26.984  12.326  28.397
91872W        W92737  28.095  13.479  28.260
91873W        W92738  26.745  11.933  28.372
91874W        W92739  26.724  14.399  26.988
91875W        W92740  26.041  14.358  28.622
91876W        W92741  26.153  13.719  25.752
91877W        W92742  28.670  13.477  26.562
91878W        W92743  26.274  12.269  28.448
91879W        W92744  29.047  12.199  25.929
91880W        W92745  26.792  13.256  26.400
91881W        W92746  27.891  12.638  28.481
91882W        W92747  27.782  12.266  28.025
91883W        W92748  26.342  12.638  28.054
91884W        W92749  28.552  14.526  27.883
91885W        W92750  28.343  11.160  28.877
91886W        W92751  26.007  11.310  28.464
91887W        W92752  26.346  12.333  27.517
91888W        W92753  26.715  12.147  25.639
91889W        W92754  25.518  13.906  28.184
91890W        W92755  27.103  12.615  27.627
91891W        W92756  26.926  11.640  25.732
91892W        W92757  26.061  12.456  26.513
91893W        W92758  25.832  14.308  27.950
91894W        W92759  28.627  12.534  26.058
91895W        W92760  28.722  11.450  28.744
91896W        W92761  28.158  13.659  26.707
91897W        W92762  25.756  12.583  28.884
91898W        W92763  28.722  11.047  26.180
91899W        W92764  28.242  13.522  26.191
91900W        W92765  27.144  12.580  26.276
91901W        W92766  28.331  11.384  25.799
91902W        W92767  28.396  11.991  27.985
91903W        W92768  26.105  12.584  27.192
91904W        W92769  26.399  13.523  26.841
91905W        W92770  28.162  12.143  26.806
91906W        W92771  27.185  11.522  27.502
91907W        W92772  29.147  13.433  28.013
91908W        W92773  29.065  11.420  27.574
91909W        W92774  25.604  14.250  26.950
91910W        W92775  26.113  13.437  26.486
91911W        W92776  26.028  11.054  29.039
91912W        W92777  27.147  13.907  29.141
91913W        W92778  28.902  12.875  26.931
91914W        W92779  28.256  13.052  25.811
91915W        W92780  27.551  14.573  28.023
91916W        W92781  28.408  13.295  29.060
91917W        W92782  27.223  11.005  26.340
91918W        W92783  27.936  11.874  27.199
91919W        W92784  25.622  13.461  27.531
91920W        W92785  26.875  11.423  26.172
91921W        W92786  26.679  12.907  29.021
91922W        W92787  27.673  11.888  26.735
91923W        W92788  27.878  13.298  27.857
91924W        W92789  26.032  13.903  28.292
91925W        W92790  26.623  13.886  29.015
91926W        W92791  26.474  11.683  26.029
91927W        W92792  27.991  11.825  26.354
91928W        W92793  27.949  13.933  28.591
91929W        W92794  26.634  12.525  27.190
91930W        W92795  26.289  14.223  28.055
91931W        W92796  29.034  14.340  25.656
91932W        W92797  25.897  13.012  28.652
91933W        W92798  27.892  13.274  27.340
91934W        W92799  26.328  12.923  26.582
91935W        W92800  26.699  13.930  27.977
91936W        W92801  27.077  11.349  27.018
91937W        W92802  25.688  13.333  25.948
91938W        W92803  27.207  12.284  25.818
91939W        W92804  25.853  12.833  26.837
91940W        W92805  27.143  11.475  28.301
91941W        W92806  28.815  11.184  25.728
91942W        W92807  28.908  12.930  28.827
91943W        W92808  27.562  14.187  28.979
91944W        W92809  29.120  13.281  28.501
91945W        W92810  28.528  14.079  29.112
91946W        W92811  26.267  14.535  27.590
91947W        W92812  29.126  13.157  26.464
91948W        W92813  27.656  12.424  26.977
91949W        W92814  27.423  11.036  26.867
91950W        W92815  26.482  14.020  26.704
91951W        W92816  26.981  11.761  27.929
91952W        W92817  26.681  11.130  27.398
91953W        W92818  25.744  13.952  25.946
91954W        W92819  27.560  13.316  26.664
91955W        W92820  26.435  14.111  28.543
91956W        W92821  25.912  12.934  26.239
91957W        W92822  25.797  11.477  27.238
91958W        W92823  27.345  13.442  27.295
91959W        W92824  25.597  11.296  26.315
91960W        W92825  28.261  12.502  28.242
91961W        W92826  28.138  11.888  25.814
91962W        W92827  28.655  13.560  27.462
91963W        W92828  27.316  14.044  27.293
91964W        W92829  26.728  14.148  26.204
91965W        W92830  28.010  11.051  25.634
91966W        W92831  25.810  14.311  27.375
91967W        W92832  28.007  12.069  29.010
91968W        W92833  25.990  11.599  29.009
91969W        W92834  25.721  12.199  26.342
91970W        W92835  26.412  12.188  26.067
91971W        W92836  28.175  12.515  28.884
91972W        W92837  26.518  12.796  27.593
91973W        W92838  27.992  11.082  26.713
91974W        W92839  27.123  14.513  27.216
91975W        W92840  28.337  13.975  28.153
91976W        W92841  27.921  14.124  27.264
91977W        W92842  27.940  13.104  26.858
91978W        W92843  27.402  11.329  25.929
91979W        W92844  29.083  10.957  26.651
91980W        W92845  26.771  12.592  25.814
91981W        W92846  28.937  11.929  26.804
91982W        W92847  27.629  13.099  25.681
91983W        W92848  28.565  13.299  28.429
91984W        W92849  28.219  14.000  25.896
91985W        W92850  26.834  11.675  28.802
91986W        W92851  26.654  12.259  28.043
91987W        W92852  28.746  13.754  28.320
91988W        W92853  27.846  11.704  28.697
91989W        W92854  25.690  12.175  28.474
91990W        W92855  27.450  12.652  28.200
91991W        W92856  25.807  13.410  26.857
91992W        W92857  25.954  12.707  27.747
91993W        W92858  28.271  12.993  28.097
91994W        W92859  28.043  14.373  28.908
91995W        W92860  27.939  12.112  28.461
91996W        W92861  28.216  14.166  26.866
91997W        W92862  27.218  13.886  28.189
91998W        W92863  26.703  14.241  27.458
91999W        W92864  28.508  13.412  27.877
92000W        W92865  27.558  13.484  29.014
92001W        W92866  26.163  13.437  27.353
92002W        W92867  28.509  13.196  26.998
92003W        W92868  28.150  14.262  27.749
92004W        W92869  26.128  13.991  27.619
92005W        W92870  27.149  12.043  28.829
92006W        W92871  27.600  14.209  26.340
92007W        W92872  26.908  13.464  28.978
92008W        W92873  27.034  13.702  26.355
92009W        W92874  26.255  12.442  25.614
92010W        W92875  25.594  18.172   3.359
92011W        W92876  25.970  17.065   2.882
92012W        W92877  28.675  16.795   0.652
92013W        W92878  28.805  17.880   2.679
92014W        W92879  26.723  17.871   0.205
92015W        W92880  26.806  16.023   1.188
92016W        W92881  26.321  15.871   1.352
92017W        W92882  27.312  16.686   0.786
92018W        W92883  26.987  17.778   3.141
92019W        W92884  25.636  15.339   3.104
92020W        W92885  26.398  14.619   2.906
92021W        W92886  28.092  15.007   1.793
92022W        W92887  27.741  15.878   0.363
92023W        W92888  28.311  15.312   3.454
92024W        W92889  25.677  15.104   2.579
92025W        W92890  25.776  17.723   3.600
92026W        W92891  27.298  17.113   0.332
92027W        W92892  25.730  15.896   2.025
92028W        W92893  26.623  15.787   3.262
92029W        W92894  29.082  15.646   1.761
92030W        W92895  28.846  16.689   2.620
92031W        W92896  27.154  16.022   1.647
92032W        W92897  27.700  17.361   2.016
92033W        W92898  26.200  16.795   2.248
92034W        W92899  25.559  16.323   1.819
92035W        W92900  26.595  16.295   3.011
92036W        W92901  28.866  16.078   3.265
92037W        W92902  26.482  17.522   1.710
92038W        W92903  27.603  17.211   2.844
92039W        W92904  26.823  15.851   2.069
92040W        W92905  27.115  16.635   1.712
92041W        W92906  28.112  17.408   3.560
92042W        W92907  27.191  16.728   3.570
92043W        W92908  27.172  16.444   3.048
92044W        W92909  25.581  15.835   3.570
92045W        W92910  28.413  17.370   3.169
92046W        W92911  25.994  14.952   1.167
92047W        W92912  26.521  17.210   2.166
92048W        W92913  28.984  16.993   1.456
92049W        W92914  28.397  15.393   2.023
92050W        W92915  28.682  15.346   0.118
92051W        W92916  29.147  16.147   2.424
92052W        W92917  27.114  17.854   2.177
92053W        W92918  28.888  17.320   0.615
92054W        W92919  26.017  18.106   0.369
92055W        W92920  26.410  18.152   1.045
92056W        W92921  26.207  14.906   2.471
92057W        W92922  28.830  15.924   2.746
92058W        W92923  28.235  16.346   1.205
92059W        W92924  28.201  16.034   0.232
92060W        W92925  27.409  17.178   2.372
92061W        W92926  27.215  15.508   1.571
92062W        W92927  27.815  17.595   2.565
92063W        W92928  28.686  16.386   0.987
92064W        W92929  27.588  15.044   1.003
92065W        W92930  26.245  17.738   0.686
92066W        W92931  25.616  15.237   1.285
92067W        W92932  28.402  15.844   1.759
92068W        W92933  25.860  17.461   1.674
92069W        W92934  27.201  17.811   0.544
92070W        W92935  28.593  15.837   0.008
92071W        W92936  25.616  17.595   2.172
92072W        W92937  26.407  17.167   2.652
92073W        W92938  26.780  16.527   1.271
92074W        W92939  26.802  14.932   2.364
92075W        W92940  29.031  14.694   1.661
92076W        W92941  26.250  16.566   0.129
92077W        W92942  25.905  15.599   0.308
92078W        W92943  25.967  17.555   1.102
92079W        W92944  27.098  17.038   1.350
92080W        W92945  28.430  17.897   3.064
92081W        W92946  27.356  15.539   0.748
92082W        W92947  28.739  17.937   1.520
92083W        W92948  28.416  15.790   3.118
92084W        W92949  29.129  17.446   1.252
92085W        W92950  27.756  16.738   2.736
92086W        W92951  25.522  16.289   0.942
92087W        W92952  26.633  16.704   2.515
92088W        W92953  27.837  15.968   0.893
92089W        W92954  27.714  16.458   0.997
92090W        W92955  26.057  15.878   2.471
92091W        W92956  26.042  15.754   3.393
92092W        W92957  25.932  14.671   1.552
92093W        W92958  27.700  15.018   2.113
92094W        W92959  27.348  15.203   3.276
92095W        W92960  27.703  15.352   0.454
92096W        W92961  28.886  17.745   3.208
92097W        W92962  27.853  14.826   3.247
92098W        W92963  28.872  17.127   3.369
92099W        W92964  28.302  15.294   2.965
92100W        W92965  28.102  15.232   1.235
92101W        W92966  28.495  16.366   3.639
92102W        W92967  26.235  17.942   1.625
92103W        W92968  26.893  15.659   0.611
92104W        W92969  26.462  14.943   3.275
92105W        W92970  28.514  15.427   0.956
92106W        W92971  28.881  15.909   0.901
92107W        W92972  26.624  18.126   3.372
92108W        W92973  26.550  14.662   0.607
92109W        W92974  28.871  15.196   1.642
92110W        W92975  29.021  17.445   0.087
92111W        W92976  25.928  16.648   1.789
92112W        W92977  27.845  15.235   0.019
92113W        W92978  28.979  17.567   1.739
92114W        W92979  29.018  14.761   2.489
92115W        W92980  27.463  15.973   3.043
92116W        W92981  27.556  17.312   0.746
92117W        W92982  27.956  16.606   3.486
92118W        W92983  27.630  14.583   1.795
92119W        W92984  26.242  15.486   1.858
92120W        W92985  25.796  16.686   2.632
92121W        W92986  27.655  17.879   1.338
92122W        W92987  28.849  15.476   2.210
92123W        W92988  27.486  17.823   2.977
92124W        W92989  28.829  16.882   0.182
92125W        W92990  27.264  16.365   1.243
92126W        W92991  29.116  14.876   2.984
92127W        W92992  27.265  16.711   2.578
92128W        W92993  27.482  15.597   2.023
92129W        W92994  28.334  15.895   0.861
92130W        W92995  28.621  15.628   0.503
92131W        W92996  28.430  17.668   0.892
92132W        W92997  28.264  17.271   1.688
92133W        W92998  28.160  16.350   0.666
92134W        W92999  27.593  16.560   1.652
92135W        W93000  28.474  16.348   1.719
92136W        W93001  25.849  15.363   2.143
92137W        W93002  28.627  16.415   2.970
92138W        W93003  28.978  18.033   2.116
92139W        W93004  26.908  17.477   1.518
92140W        W93005  27.915  18.010   2.842
92141W        W93006  27.909  15.340   2.606
92142W        W93007  27.116  18.048   2.667
92143W        W93008  28.813  15.002   1.133
92144W        W93009  28.604  16.321   2.434
92145W        W93010  25.587  15.642   2.472
92146W        W93011  28.447  15.437   1.490
92147W        W93012  28.858  15.588   3.267
92148W        W93013  27.743  17.287   1.485
92149W        W93014  26.999  17.878   1.098
92150W        W93015  26.114  15.058   0.356
92151W        W93016  27.218  14.712   2.166
92152W        W93017  26.246  17.832   0.014
92153W        W93018  26.620  16.298   0.765
92154W        W93019  27.274  16.927   3.078
92155W        W93020  27.104  15.285   1.068
92156W        W93021  28.460  14.882   1.496
92157W        W93022  28.180  18.164   1.824
92158W        W93023  27.592  17.812   2.164
92159W        W93024  26.988  16.849   2.125
92160W        W93025  28.758  17.572   2.251
92161W        W93026  26.452  15.075   1.020
92162W        W93027  26.974  17.372   1.980
92163W        W93028  26.457  15.303   0.045
92164W        W93029  27.258  15.912   2.439
92165W        W93030  28.106  14.778   2.309
92166W        W93031  25.526  16.621   2.194
92167W        W93032  27.230  16.439   0.352
92168W        W93033  26.498  14.754   0.122
92169W        W93034  27.236  15.835   1.173
92170W        W93035  28.206  14.811   2.872
92171W        W93036  26.794  16.823   2.981
92172W        W93037  27.598  16.605   3.198
92173W        W93038  28.215  16.635   3.091
92174W        W93039  27.499  14.775   3.596
92175W        W93040  26.721  15.391   1.989
92176W        W93041  26.147  15.347   1.387
92177W        W93042  25.933  18.059   1.063
92178W        W93043  27.265  17.389   3.188
92179W        W93044  26.300  16.874   0.547
92180W        W93045  27.980  16.259   1.768
92181W        W93046  28.260  16.058   2.167
92182W        W93047  27.465  16.732   2.101
92183W        W93048  27.935  17.106   0.233
92184W        W93049  27.607  15.127   1.561
92185W        W93050  29.086  15.405   0.829
92186W        W93051  25.580  17.994   2.860
92187W        W93052  25.997  17.220   2.392
92188W        W93053  25.564  18.066   0.624
92189W        W93054  27.463  15.336   2.430
92190W        W93055  26.826  17.359   0.279
92191W        W93056  28.731  17.741   0.465
92192W        W93057  27.706  16.394   0.479
92193W        W93058  26.549  15.585   0.996
92194W        W93059  27.381  15.495   0.048
92195W        W93060  27.965  17.060   3.226
92196W        W93061  28.318  14.966   0.843
92197W        W93062  25.648  14.814   0.291
92198W        W93063  26.934  17.133   2.581
92199W        W93064  26.733  17.049   1.673
92200W        W93065  26.475  17.001   0.071
92201W        W93066  25.716  17.242   0.839
92202W        W93067  26.220  16.312   3.281
92203W        W93068  26.924  14.872   3.467
92204W        W93069  27.633  15.014   2.823
92205W        W93070  26.828  14.782   1.104
92206W        W93071  27.887  14.859   0.609
92207W        W93072  25.832  14.791   2.186
92208W        W93073  25.880  15.754   1.556
92209W        W93074  28.569  14.862   1.962
92210W        W93075  25.991  15.360   0.776
92211W        W93076  28.562  15.048   2.392
92212W        W93077  28.958  16.251   0.077
92213W        W93078  26.250  15.009   1.896
92214W        W93079  27.364  15.581   2.836
92215W        W93080  25.512  15.271   0.314
92216W        W93081  26.298  16.660   2.875
92217W        W93082  27.656  16.058   2.054
92218W        W93083  27.523  18.137   0.350
92219W        W93084  25.669  16.644   0.047
92220W        W93085  26.404  17.055   3.173
92221W        W93086  25.925  16.222   2.804
92222W        W93087  26.916  16.327   2.598
92223W        W93088  28.684  14.686   2.860
92224W        W93089  29.082  16.296   2.851
92225W        W93090  29.070  16.496   0.537
92226W        W93091  27.933  16.828   0.636
92227W        W93092  28.407  18.128   0.331
92228W        W93093  27.584  16.118   3.473
92229W        W93094  25.914  17.085   3.513
92230W        W93095  29.120  15.007   3.465
92231W        W93096  28.838  15.935   2.086
92232W        W93097  27.146  18.065   3.563
92233W        W93098  27.001  14.694   0.290
92234W        W93099  28.540  17.293   0.233
92235W        W93100  26.309  15.386   3.119
92236W        W93101  26.743  17.380   2.981
92237W        W93102  28.869  15.371   2.779
92238W        W93103  28.080  18.030   0.747
92239W        W93104  28.319  16.649   2.114
92240W        W93105  26.569  15.065   2.781
92241W        W93106  27.038  16.134   3.538
92242W        W93107  26.541  17.313   0.732
92243W        W93108  28.296  16.811   0.996
92244W        W93109  26.064  15.437   2.720
92245W        W93110  27.393  17.499   1.184
92246W        W93111  29.143  16.059   1.365
92247W        W93112  27.365  14.692   3.084
92248W        W93113  28.145  17.397   2.163
92249W        W93114  28.448  17.741   1.871
92250W        W93115  27.667  17.543   0.299
92251W        W93116  25.677  17.435   3.141
92252W        W93117  26.420  15.427   2.379
92253W        W93118  26.390  14.775   1.489
92254W        W93119  28.011  15.617   2.181
92255W        W93120  26.809  16.788   0.381
92256W        W93121  28.807  16.730   1.880
92257W        W93122  26.134  17.488   3.303
92258W        W93123  28.521  18.170   1.100
92259W        W93124  26.620  15.190   1.545
92260W        W93125  26.389  16.683   1.635
92261W        W93126  26.702  18.094   2.385
92262W        W93127  28.769  18.190   3.417
92263W        W93128  27.928  16.378   2.350
92264W        W93129  25.777  16.176   0.265
92265W        W93130  28.911  17.834   0.962
92266W        W93131  28.748  15.158   0.581
92267W        W93132  26.887  14.677   2.984
92268W        W93133  28.593  17.479   1.442
92269W        W93134  28.622  16.035   1.347
92270W        W93135  26.739  15.708   1.563
92271W        W93136  26.984  15.970   2.887
92272W        W93137  28.095  17.123   2.750
92273W        W93138  26.745  15.577   2.862
92274W        W93139  26.724  18.043   1.478
92275W        W93140  26.041  18.002   3.112
92276W        W93141  26.153  17.363   0.242
92277W        W93142  28.670  17.121   1.052
92278W        W93143  26.274  15.913   2.938
92279W        W93144  29.047  15.843   0.419
92280W        W93145  26.792  16.900   0.890
92281W        W93146  27.891  16.282   2.971
92282W        W93147  27.782  15.910   2.515
92283W        W93148  26.342  16.282   2.544
92284W        W93149  28.552  18.170   2.373
92285W        W93150  28.343  14.804   3.367
92286W        W93151  26.007  14.954   2.954
92287W        W93152  26.346  15.977   2.007
92288W        W93153  26.715  15.791   0.129
92289W        W93154  25.518  17.550   2.674
92290W        W93155  27.103  16.259   2.117
92291W        W93156  26.926  15.284   0.222
92292W        W93157  26.061  16.100   1.003
92293W        W93158  25.832  17.952   2.440
92294W        W93159  28.627  16.178   0.548
92295W        W93160  28.722  15.094   3.234
92296W        W93161  28.158  17.303   1.197
92297W        W93162  25.756  16.227   3.374
92298W        W93163  28.722  14.691   0.670
92299W        W93164  28.242  17.166   0.681
92300W        W93165  27.144  16.224   0.766
92301W        W93166  28.331  15.028   0.289
92302W        W93167  28.396  15.635   2.475
92303W        W93168  26.105  16.228   1.682
92304W        W93169  26.399  17.167   1.331
92305W        W93170  28.162  15.787   1.296
92306W        W93171  27.185  15.166   1.992
92307W        W93172  29.147  17.077   2.503
92308W        W93173  29.065  15.064   2.064
92309W        W93174  25.604  17.894   1.440
92310W        W93175  26.113  17.081   0.976
92311W        W93176  26.028  14.698   3.529
92312W        W93177  27.147  17.551   3.631
92313W        W93178  28.902  16.519   1.421
92314W        W93179  28.256  16.696   0.301
92315W        W93180  27.551  18.217   2.513
92316W        W93181  28.408  16.939   3.550
92317W        W93182  27.223  14.649   0.830
92318W        W93183  27.936  15.518   1.689
92319W        W93184  25.622  17.105   2.021
92320W        W93185  26.875  15.067   0.662
92321W        W93186  26.679  16.551   3.511
92322W        W93187  27.673  15.532   1.225
92323W        W93188  27.878  16.942   2.347
92324W        W93189  26.032  17.547   2.782
92325W        W93190  26.623  17.530   3.505
92326W        W93191  26.474  15.327   0.519
92327W        W93192  27.991  15.469   0.844
92328W        W93193  27.949  17.577   3.081
92329W        W93194  26.634  16.169   1.680
92330W        W93195  26.289  17.867   2.545
92331W        W93196  29.034  17.984   0.146
92332W        W93197  25.897  16.656   3.142
92333W        W93198  27.892  16.918   1.830
92334W        W93199  26.328  16.567   1.072
92335W        W93200  26.699  17.574   2.467
92336W        W93201  27.077  14.993   1.508
92337W        W93202  25.688  16.977   0.438
92338W        W93203  27.207  15.928   0.308
92339W        W93204  25.853  16.477   1.327
92340W        W93205  27.143  15.119   2.791
92341W        W93206  28.815  14.828   0.218
92342W        W93207  28.908  16.574   3.317
92343W        W93208  27.562  17.831   3.469
92344W        W93209  29.120  16.925   2.991
92345W        W93210  28.528  17.723   3.602
92346W        W93211  26.267  18.179   2.080
92347W        W93212  29.126  16.801   0.954
92348W        W93213  27.656  16.068   1.467
92349W        W93214  27.423  14.680   1.357
92350W        W93215  26.482  17.664   1.194
92351W        W93216  26.981  15.405   2.419
92352W        W93217  26.681  14.774   1.888
92353W        W93218  25.744  17.596   0.436
92354W        W93219  27.560  16.960   1.154
92355W        W93220  26.435  17.755   3.033
92356W        W93221  25.912  16.578   0.729
92357W        W93222  25.797  15.121   1.728
92358W        W93223  27.345  17.086   1.785
92359W        W93224  25.597  14.940   0.805
92360W        W93225  28.261  16.146   2.732
92361W        W93226  28.138  15.532   0.304
92362W        W93227  28.655  17.204   1.952
92363W        W93228  27.316  17.688   1.783
92364W        W93229  26.728  17.792   0.694
92365W        W93230  28.010  14.695   0.124
92366W        W93231  25.810  17.955   1.865
92367W        W93232  28.007  15.713   3.500
92368W        W93233  25.990  15.243   3.499
92369W        W93234  25.721  15.843   0.832
92370W        W93235  26.412  15.832   0.557
92371W        W93236  28.175  16.159   3.374
92372W        W93237  26.518  16.440   2.083
92373W        W93238  27.992  14.726   1.203
92374W        W93239  27.123  18.157   1.706
92375W        W93240  28.337  17.619   2.643
92376W        W93241  27.921  17.768   1.754
92377W        W93242  27.940  16.748   1.348
92378W        W93243  27.402  14.973   0.419
92379W        W93244  29.083  14.601   1.141
92380W        W93245  26.771  16.236   0.304
92381W        W93246  28.937  15.573   1.294
92382W        W93247  27.629  16.743   0.171
92383W        W93248  28.565  16.943   2.919
92384W        W93249  28.219  17.644   0.386
92385W        W93250  26.834  15.319   3.292
92386W        W93251  26.654  15.903   2.533
92387W        W93252  28.746  17.398   2.810
92388W        W93253  27.846  15.348   3.187
92389W        W93254  25.690  15.819   2.964
92390W        W93255  27.450  16.296   2.690
92391W        W93256  25.807  17.054   1.347
92392W        W93257  25.954  16.351   2.237
92393W        W93258  28.271  16.637   2.587
92394W        W93259  28.043  18.017   3.398
92395W        W93260  27.939  15.756   2.951
92396W        W93261  28.216  17.810   1.356
92397W        W93262  27.218  17.530   2.679
92398W        W93263  26.703  17.885   1.948
92399W        W93264  28.508  17.056   2.367
92400W        W93265  27.558  17.128   3.504
92401W        W93266  26.163  17.081   1.843
92402W        W93267  28.509  16.840   1.488
92403W        W93268  28.150  17.906   2.239
92404W        W93269  26.128  17.635   2.109
92405W        W93270  27.149  15.687   3.319
92406W        W93271  27.600  17.853   0.830
92407W        W93272  26.908  17.108   3.468
92408W        W93273  27.034  17.346   0.845
92409W        W93274  26.255  16.086   0.104
92410W        W93275  25.594  18.172   7.003
92411W        W93276  25.970  17.065   6.526
92412W        W93277  28.675  16.795   4.296
92413W        W93278  28.805  17.880   6.323
92414W        W93279  26.723  17.871   3.849
92415W        W93280  26.806  16.023   4.832
92416W        W93281  26.321  15.871   4.996
92417W        W93282  27.312  16.686   4.430
92418W        W93283  26.987  17.778   6.785
92419W        W93284  25.636  15.339   6.748
92420W        W93285  26.398  14.619   6.550
92421W        W93286  28.092  15.007   5.437
92422W        W93287  27.741  15.878   4.007
92423W        W93288  28.311  15.312   7.098
92424W        W93289  25.677  15.104   6.223
92425W        W93290  25.776  17.723   7.244
92426W        W93291  27.298  17.113   3.976
92427W        W93292  25.730  15.896   5.669
92428W        W93293  26.623  15.787   6.906
92429W        W93294  29.082  15.646   5.405
92430W        W93295  28.846  16.689   6.264
92431W        W93296  27.154  16.022   5.291
92432W        W93297  27.700  17.361   5.660
92433W        W93298  26.200  16.795   5.892
92434W        W93299  25.559  16.323   5.463
92435W        W93300  26.595  16.295   6.655
92436W        W93301  28.866  16.078   6.909
92437W        W93302  26.482  17.522   5.354
92438W        W93303  27.603  17.211   6.488
92439W        W93304  26.823  15.851   5.713
92440W        W93305  27.115  16.635   5.356
92441W        W93306  28.112  17.408   7.204
92442W        W93307  27.191  16.728   7.214
92443W        W93308  27.172  16.444   6.692
92444W        W93309  25.581  15.835   7.214
92445W        W93310  28.413  17.370   6.813
92446W        W93311  25.994  14.952   4.811
92447W        W93312  26.521  17.210   5.810
92448W        W93313  28.984  16.993   5.100
92449W        W93314  28.397  15.393   5.667
92450W        W93315  28.682  15.346   3.762
92451W        W93316  29.147  16.147   6.068
92452W        W93317  27.114  17.854   5.821
92453W        W93318  28.888  17.320   4.259
92454W        W93319  26.017  18.106   4.013
92455W        W93320  26.410  18.152   4.689
92456W        W93321  26.207  14.906   6.115
92457W        W93322  28.830  15.924   6.390
92458W        W93323  28.235  16.346   4.849
92459W        W93324  28.201  16.034   3.876
92460W        W93325  27.409  17.178   6.016
92461W        W93326  27.215  15.508   5.215
92462W        W93327  27.815  17.595   6.209
92463W        W93328  28.686  16.386   4.631
92464W        W93329  27.588  15.044   4.647
92465W        W93330  26.245  17.738   4.330
92466W        W93331  25.616  15.237   4.929
92467W        W93332  28.402  15.844   5.403
92468W        W93333  25.860  17.461   5.318
92469W        W93334  27.201  17.811   4.188
92470W        W93335  28.593  15.837   3.652
92471W        W93336  25.616  17.595   5.816
92472W        W93337  26.407  17.167   6.296
92473W        W93338  26.780  16.527   4.915
92474W        W93339  26.802  14.932   6.008
92475W        W93340  29.031  14.694   5.305
92476W        W93341  26.250  16.566   3.773
92477W        W93342  25.905  15.599   3.952
92478W        W93343  25.967  17.555   4.746
92479W        W93344  27.098  17.038   4.994
92480W        W93345  28.430  17.897   6.708
92481W        W93346  27.356  15.539   4.392
92482W        W93347  28.739  17.937   5.164
92483W        W93348  28.416  15.790   6.762
92484W        W93349  29.129  17.446   4.896
92485W        W93350  27.756  16.738   6.380
92486W        W93351  25.522  16.289   4.586
92487W        W93352  26.633  16.704   6.159
92488W        W93353  27.837  15.968   4.537
92489W        W93354  27.714  16.458   4.641
92490W        W93355  26.057  15.878   6.115
92491W        W93356  26.042  15.754   7.037
92492W        W93357  25.932  14.671   5.196
92493W        W93358  27.700  15.018   5.757
92494W        W93359  27.348  15.203   6.920
92495W        W93360  27.703  15.352   4.098
92496W        W93361  28.886  17.745   6.852
92497W        W93362  27.853  14.826   6.891
92498W        W93363  28.872  17.127   7.013
92499W        W93364  28.302  15.294   6.609
92500W        W93365  28.102  15.232   4.879
92501W        W93366  28.495  16.366   7.283
92502W        W93367  26.235  17.942   5.269
92503W        W93368  26.893  15.659   4.255
92504W        W93369  26.462  14.943   6.919
92505W        W93370  28.514  15.427   4.600
92506W        W93371  28.881  15.909   4.545
92507W        W93372  26.624  18.126   7.016
92508W        W93373  26.550  14.662   4.251
92509W        W93374  28.871  15.196   5.286
92510W        W93375  29.021  17.445   3.731
92511W        W93376  25.928  16.648   5.433
92512W        W93377  27.845  15.235   3.663
92513W        W93378  28.979  17.567   5.383
92514W        W93379  29.018  14.761   6.133
92515W        W93380  27.463  15.973   6.687
92516W        W93381  27.556  17.312   4.390
92517W        W93382  27.956  16.606   7.130
92518W        W93383  27.630  14.583   5.439
92519W        W93384  26.242  15.486   5.502
92520W        W93385  25.796  16.686   6.276
92521W        W93386  27.655  17.879   4.982
92522W        W93387  28.849  15.476   5.854
92523W        W93388  27.486  17.823   6.621
92524W        W93389  28.829  16.882   3.826
92525W        W93390  27.264  16.365   4.887
92526W        W93391  29.116  14.876   6.628
92527W        W93392  27.265  16.711   6.222
92528W        W93393  27.482  15.597   5.667
92529W        W93394  28.334  15.895   4.505
92530W        W93395  28.621  15.628   4.147
92531W        W93396  28.430  17.668   4.536
92532W        W93397  28.264  17.271   5.332
92533W        W93398  28.160  16.350   4.310
92534W        W93399  27.593  16.560   5.296
92535W        W93400  28.474  16.348   5.363
92536W        W93401  25.849  15.363   5.787
92537W        W93402  28.627  16.415   6.614
92538W        W93403  28.978  18.033   5.760
92539W        W93404  26.908  17.477   5.162
92540W        W93405  27.915  18.010   6.486
92541W        W93406  27.909  15.340   6.250
92542W        W93407  27.116  18.048   6.311
92543W        W93408  28.813  15.002   4.777
92544W        W93409  28.604  16.321   6.078
92545W        W93410  25.587  15.642   6.116
92546W        W93411  28.447  15.437   5.134
92547W        W93412  28.858  15.588   6.911
92548W        W93413  27.743  17.287   5.129
92549W        W93414  26.999  17.878   4.742
92550W        W93415  26.114  15.058   4.000
92551W        W93416  27.218  14.712   5.810
92552W        W93417  26.246  17.832   3.658
92553W        W93418  26.620  16.298   4.409
92554W        W93419  27.274  16.927   6.722
92555W        W93420  27.104  15.285   4.712
92556W        W93421  28.460  14.882   5.140
92557W        W93422  28.180  18.164   5.468
92558W        W93423  27.592  17.812   5.808
92559W        W93424  26.988  16.849   5.769
92560W        W93425  28.758  17.572   5.895
92561W        W93426  26.452  15.075   4.664
92562W        W93427  26.974  17.372   5.624
92563W        W93428  26.457  15.303   3.689
92564W        W93429  27.258  15.912   6.083
92565W        W93430  28.106  14.778   5.953
92566W        W93431  25.526  16.621   5.838
92567W        W93432  27.230  16.439   3.996
92568W        W93433  26.498  14.754   3.766
92569W        W93434  27.236  15.835   4.817
92570W        W93435  28.206  14.811   6.516
92571W        W93436  26.794  16.823   6.625
92572W        W93437  27.598  16.605   6.842
92573W        W93438  28.215  16.635   6.735
92574W        W93439  27.499  14.775   7.240
92575W        W93440  26.721  15.391   5.633
92576W        W93441  26.147  15.347   5.031
92577W        W93442  25.933  18.059   4.707
92578W        W93443  27.265  17.389   6.832
92579W        W93444  26.300  16.874   4.191
92580W        W93445  27.980  16.259   5.412
92581W        W93446  28.260  16.058   5.811
92582W        W93447  27.465  16.732   5.745
92583W        W93448  27.935  17.106   3.877
92584W        W93449  27.607  15.127   5.205
92585W        W93450  29.086  15.405   4.473
92586W        W93451  25.580  17.994   6.504
92587W        W93452  25.997  17.220   6.036
92588W        W93453  25.564  18.066   4.268
92589W        W93454  27.463  15.336   6.074
92590W        W93455  26.826  17.359   3.923
92591W        W93456  28.731  17.741   4.109
92592W        W93457  27.706  16.394   4.123
92593W        W93458  26.549  15.585   4.640
92594W        W93459  27.381  15.495   3.692
92595W        W93460  27.965  17.060   6.870
92596W        W93461  28.318  14.966   4.487
92597W        W93462  25.648  14.814   3.935
92598W        W93463  26.934  17.133   6.225
92599W        W93464  26.733  17.049   5.317
92600W        W93465  26.475  17.001   3.715
92601W        W93466  25.716  17.242   4.483
92602W        W93467  26.220  16.312   6.925
92603W        W93468  26.924  14.872   7.111
92604W        W93469  27.633  15.014   6.467
92605W        W93470  26.828  14.782   4.748
92606W        W93471  27.887  14.859   4.253
92607W        W93472  25.832  14.791   5.830
92608W        W93473  25.880  15.754   5.200
92609W        W93474  28.569  14.862   5.606
92610W        W93475  25.991  15.360   4.420
92611W        W93476  28.562  15.048   6.036
92612W        W93477  28.958  16.251   3.721
92613W        W93478  26.250  15.009   5.540
92614W        W93479  27.364  15.581   6.480
92615W        W93480  25.512  15.271   3.958
92616W        W93481  26.298  16.660   6.519
92617W        W93482  27.656  16.058   5.698
92618W        W93483  27.523  18.137   3.994
92619W        W93484  25.669  16.644   3.691
92620W        W93485  26.404  17.055   6.817
92621W        W93486  25.925  16.222   6.448
92622W        W93487  26.916  16.327   6.242
92623W        W93488  28.684  14.686   6.504
92624W        W93489  29.082  16.296   6.495
92625W        W93490  29.070  16.496   4.181
92626W        W93491  27.933  16.828   4.280
92627W        W93492  28.407  18.128   3.975
92628W        W93493  27.584  16.118   7.117
92629W        W93494  25.914  17.085   7.157
92630W        W93495  29.120  15.007   7.109
92631W        W93496  28.838  15.935   5.730
92632W        W93497  27.146  18.065   7.207
92633W        W93498  27.001  14.694   3.934
92634W        W93499  28.540  17.293   3.877
92635W        W93500  26.309  15.386   6.763
92636W        W93501  26.743  17.380   6.625
92637W        W93502  28.869  15.371   6.423
92638W        W93503  28.080  18.030   4.391
92639W        W93504  28.319  16.649   5.758
92640W        W93505  26.569  15.065   6.425
92641W        W93506  27.038  16.134   7.182
92642W        W93507  26.541  17.313   4.376
92643W        W93508  28.296  16.811   4.640
92644W        W93509  26.064  15.437   6.364
92645W        W93510  27.393  17.499   4.828
92646W        W93511  29.143  16.059   5.009
92647W        W93512  27.365  14.692   6.728
92648W        W93513  28.145  17.397   5.807
92649W        W93514  28.448  17.741   5.515
92650W        W93515  27.667  17.543   3.943
92651W        W93516  25.677  17.435   6.785
92652W        W93517  26.420  15.427   6.023
92653W        W93518  26.390  14.775   5.133
92654W        W93519  28.011  15.617   5.825
92655W        W93520  26.809  16.788   4.025
92656W        W93521  28.807  16.730   5.524
92657W        W93522  26.134  17.488   6.947
92658W        W93523  28.521  18.170   4.744
92659W        W93524  26.620  15.190   5.189
92660W        W93525  26.389  16.683   5.279
92661W        W93526  26.702  18.094   6.029
92662W        W93527  28.769  18.190   7.061
92663W        W93528  27.928  16.378   5.994
92664W        W93529  25.777  16.176   3.909
92665W        W93530  28.911  17.834   4.606
92666W        W93531  28.748  15.158   4.225
92667W        W93532  26.887  14.677   6.628
92668W        W93533  28.593  17.479   5.086
92669W        W93534  28.622  16.035   4.991
92670W        W93535  26.739  15.708   5.207
92671W        W93536  26.984  15.970   6.531
92672W        W93537  28.095  17.123   6.394
92673W        W93538  26.745  15.577   6.506
92674W        W93539  26.724  18.043   5.122
92675W        W93540  26.041  18.002   6.756
92676W        W93541  26.153  17.363   3.886
92677W        W93542  28.670  17.121   4.696
92678W        W93543  26.274  15.913   6.582
92679W        W93544  29.047  15.843   4.063
92680W        W93545  26.792  16.900   4.534
92681W        W93546  27.891  16.282   6.615
92682W        W93547  27.782  15.910   6.159
92683W        W93548  26.342  16.282   6.188
92684W        W93549  28.552  18.170   6.017
92685W        W93550  28.343  14.804   7.011
92686W        W93551  26.007  14.954   6.598
92687W        W93552  26.346  15.977   5.651
92688W        W93553  26.715  15.791   3.773
92689W        W93554  25.518  17.550   6.318
92690W        W93555  27.103  16.259   5.761
92691W        W93556  26.926  15.284   3.866
92692W        W93557  26.061  16.100   4.647
92693W        W93558  25.832  17.952   6.084
92694W        W93559  28.627  16.178   4.192
92695W        W93560  28.722  15.094   6.878
92696W        W93561  28.158  17.303   4.841
92697W        W93562  25.756  16.227   7.018
92698W        W93563  28.722  14.691   4.314
92699W        W93564  28.242  17.166   4.325
92700W        W93565  27.144  16.224   4.410
92701W        W93566  28.331  15.028   3.933
92702W        W93567  28.396  15.635   6.119
92703W        W93568  26.105  16.228   5.326
92704W        W93569  26.399  17.167   4.975
92705W        W93570  28.162  15.787   4.940
92706W        W93571  27.185  15.166   5.636
92707W        W93572  29.147  17.077   6.147
92708W        W93573  29.065  15.064   5.708
92709W        W93574  25.604  17.894   5.084
92710W        W93575  26.113  17.081   4.620
92711W        W93576  26.028  14.698   7.173
92712W        W93577  27.147  17.551   7.275
92713W        W93578  28.902  16.519   5.065
92714W        W93579  28.256  16.696   3.945
92715W        W93580  27.551  18.217   6.157
92716W        W93581  28.408  16.939   7.194
92717W        W93582  27.223  14.649   4.474
92718W        W93583  27.936  15.518   5.333
92719W        W93584  25.622  17.105   5.665
92720W        W93585  26.875  15.067   4.306
92721W        W93586  26.679  16.551   7.155
92722W        W93587  27.673  15.532   4.869
92723W        W93588  27.878  16.942   5.991
92724W        W93589  26.032  17.547   6.426
92725W        W93590  26.623  17.530   7.149
92726W        W93591  26.474  15.327   4.163
92727W        W93592  27.991  15.469   4.488
92728W        W93593  27.949  17.577   6.725
92729W        W93594  26.634  16.169   5.324
92730W        W93595  26.289  17.867   6.189
92731W        W93596  29.034  17.984   3.790
92732W        W93597  25.897  16.656   6.786
92733W        W93598  27.892  16.918   5.474
92734W        W93599  26.328  16.567   4.716
92735W        W93600  26.699  17.574   6.111
92736W        W93601  27.077  14.993   5.152
92737W        W93602  25.688  16.977   4.082
92738W        W93603  27.207  15.928   3.952
92739W        W93604  25.853  16.477   4.971
92740W        W93605  27.143  15.119   6.435
92741W        W93606  28.815  14.828   3.862
92742W        W93607  28.908  16.574   6.961
92743W        W93608  27.562  17.831   7.113
92744W        W93609  29.120  16.925   6.635
92745W        W93610  28.528  17.723   7.246
92746W        W93611  26.267  18.179   5.724
92747W        W93612  29.126  16.801   4.598
92748W        W93613  27.656  16.068   5.111
92749W        W93614  27.423  14.680   5.001
92750W        W93615  26.482  17.664   4.838
92751W        W93616  26.981  15.405   6.063
92752W        W93617  26.681  14.774   5.532
92753W        W93618  25.744  17.596   4.080
92754W        W93619  27.560  16.960   4.798
92755W        W93620  26.435  17.755   6.677
92756W        W93621  25.912  16.578   4.373
92757W        W93622  25.797  15.121   5.372
92758W        W93623  27.345  17.086   5.429
92759W        W93624  25.597  14.940   4.449
92760W        W93625  28.261  16.146   6.376
92761W        W93626  28.138  15.532   3.948
92762W        W93627  28.655  17.204   5.596
92763W        W93628  27.316  17.688   5.427
92764W        W93629  26.728  17.792   4.338
92765W        W93630  28.010  14.695   3.768
92766W        W93631  25.810  17.955   5.509
92767W        W93632  28.007  15.713   7.144
92768W        W93633  25.990  15.243   7.143
92769W        W93634  25.721  15.843   4.476
92770W        W93635  26.412  15.832   4.201
92771W        W93636  28.175  16.159   7.018
92772W        W93637  26.518  16.440   5.727
92773W        W93638  27.992  14.726   4.847
92774W        W93639  27.123  18.157   5.350
92775W        W93640  28.337  17.619   6.287
92776W        W93641  27.921  17.768   5.398
92777W        W93642  27.940  16.748   4.992
92778W        W93643  27.402  14.973   4.063
92779W        W93644  29.083  14.601   4.785
92780W        W93645  26.771  16.236   3.948
92781W        W93646  28.937  15.573   4.938
92782W        W93647  27.629  16.743   3.815
92783W        W93648  28.565  16.943   6.563
92784W        W93649  28.219  17.644   4.030
92785W        W93650  26.834  15.319   6.936
92786W        W93651  26.654  15.903   6.177
92787W        W93652  28.746  17.398   6.454
92788W        W93653  27.846  15.348   6.831
92789W        W93654  25.690  15.819   6.608
92790W        W93655  27.450  16.296   6.334
92791W        W93656  25.807  17.054   4.991
92792W        W93657  25.954  16.351   5.881
92793W        W93658  28.271  16.637   6.231
92794W        W93659  28.043  18.017   7.042
92795W        W93660  27.939  15.756   6.595
92796W        W93661  28.216  17.810   5.000
92797W        W93662  27.218  17.530   6.323
92798W        W93663  26.703  17.885   5.592
92799W        W93664  28.508  17.056   6.011
92800W        W93665  27.558  17.128   7.148
92801W        W93666  26.163  17.081   5.487
92802W        W93667  28.509  16.840   5.132
92803W        W93668  28.150  17.906   5.883
92804W        W93669  26.128  17.635   5.753
92805W        W93670  27.149  15.687   6.963
92806W        W93671  27.600  17.853   4.474
92807W        W93672  26.908  17.108   7.112
92808W        W93673  27.034  17.346   4.489
92809W        W93674  26.255  16.086   3.748
92810W        W93675  25.594  18.172  10.648
92811W        W93676  25.970  17.065  10.171
92812W        W93677  28.675  16.795   7.941
92813W        W93678  28.805  17.880   9.968
92814W        W93679  26.723  17.871   7.494
92815W        W93680  26.806  16.023   8.477
92816W        W93681  26.321  15.871   8.641
92817W        W93682  27.312  16.686   8.075
92818W        W93683  26.987  17.778  10.430
92819W        W93684  25.636  15.339  10.393
92820W        W93685  26.398  14.619  10.195
92821W        W93686  28.092  15.007   9.082
92822W        W93687  27.741  15.878   7.652
92823W        W93688  28.311  15.312  10.743
92824W        W93689  25.677  15.104   9.868
92825W        W93690  25.776  17.723  10.889
92826W        W93691  27.298  17.113   7.621
92827W        W93692  25.730  15.896   9.314
92828W        W93693  26.623  15.787  10.551
92829W        W93694  29.082  15.646   9.050
92830W        W93695  28.846  16.689   9.909
92831W        W93696  27.154  16.022   8.936
92832W        W93697  27.700  17.361   9.305
92833W        W93698  26.200  16.795   9.537
92834W        W93699  25.559  16.323   9.108
92835W        W93700  26.595  16.295  10.300
92836W        W93701  28.866  16.078  10.554
92837W        W93702  26.482  17.522   8.999
92838W        W93703  27.603  17.211  10.133
92839W        W93704  26.823  15.851   9.358
92840W        W93705  27.115  16.635   9.001
92841W        W93706  28.112  17.408  10.849
92842W        W93707  27.191  16.728  10.859
92843W        W93708  27.172  16.444  10.337
92844W        W93709  25.581  15.835  10.859
92845W        W93710  28.413  17.370  10.458
92846W        W93711  25.994  14.952   8.456
92847W        W93712  26.521  17.210   9.455
92848W        W93713  28.984  16.993   8.745
92849W        W93714  28.397  15.393   9.312
92850W        W93715  28.682  15.346   7.407
92851W        W93716  29.147  16.147   9.713
92852W        W93717  27.114  17.854   9.466
92853W        W93718  28.888  17.320   7.904
92854W        W93719  26.017  18.106   7.658
92855W        W93720  26.410  18.152   8.334
92856W        W93721  26.207  14.906   9.760
92857W        W93722  28.830  15.924  10.035
92858W        W93723  28.235  16.346   8.494
92859W        W93724  28.201  16.034   7.521
92860W        W93725  27.409  17.178   9.661
92861W        W93726  27.215  15.508   8.860
92862W        W93727  27.815  17.595   9.854
92863W        W93728  28.686  16.386   8.276
92864W        W93729  27.588  15.044   8.292
92865W        W93730  26.245  17.738   7.975
92866W        W93731  25.616  15.237   8.574
92867W        W93732  28.402  15.844   9.048
92868W        W93733  25.860  17.461   8.963
92869W        W93734  27.201  17.811   7.833
92870W        W93735  28.593  15.837   7.297
92871W        W93736  25.616  17.595   9.461
92872W        W93737  26.407  17.167   9.941
92873W        W93738  26.780  16.527   8.560
92874W        W93739  26.802  14.932   9.653
92875W        W93740  29.031  14.694   8.950
92876W        W93741  26.250  16.566   7.418
92877W        W93742  25.905  15.599   7.597
92878W        W93743  25.967  17.555   8.391
92879W        W93744  27.098  17.038   8.639
92880W        W93745  28.430  17.897  10.353
92881W        W93746  27.356  15.539   8.037
92882W        W93747  28.739  17.937   8.809
92883W        W93748  28.416  15.790  10.407
92884W        W93749  29.129  17.446   8.541
92885W        W93750  27.756  16.738  10.025
92886W        W93751  25.522  16.289   8.231
92887W        W93752  26.633  16.704   9.804
92888W        W93753  27.837  15.968   8.182
92889W        W93754  27.714  16.458   8.286
92890W        W93755  26.057  15.878   9.760
92891W        W93756  26.042  15.754  10.682
92892W        W93757  25.932  14.671   8.841
92893W        W93758  27.700  15.018   9.402
92894W        W93759  27.348  15.203  10.565
92895W        W93760  27.703  15.352   7.743
92896W        W93761  28.886  17.745  10.497
92897W        W93762  27.853  14.826  10.536
92898W        W93763  28.872  17.127  10.658
92899W        W93764  28.302  15.294  10.254
92900W        W93765  28.102  15.232   8.524
92901W        W93766  28.495  16.366  10.928
92902W        W93767  26.235  17.942   8.914
92903W        W93768  26.893  15.659   7.900
92904W        W93769  26.462  14.943  10.564
92905W        W93770  28.514  15.427   8.245
92906W        W93771  28.881  15.909   8.190
92907W        W93772  26.624  18.126  10.661
92908W        W93773  26.550  14.662   7.896
92909W        W93774  28.871  15.196   8.931
92910W        W93775  29.021  17.445   7.376
92911W        W93776  25.928  16.648   9.078
92912W        W93777  27.845  15.235   7.308
92913W        W93778  28.979  17.567   9.028
92914W        W93779  29.018  14.761   9.778
92915W        W93780  27.463  15.973  10.332
92916W        W93781  27.556  17.312   8.035
92917W        W93782  27.956  16.606  10.775
92918W        W93783  27.630  14.583   9.084
92919W        W93784  26.242  15.486   9.147
92920W        W93785  25.796  16.686   9.921
92921W        W93786  27.655  17.879   8.627
92922W        W93787  28.849  15.476   9.499
92923W        W93788  27.486  17.823  10.266
92924W        W93789  28.829  16.882   7.471
92925W        W93790  27.264  16.365   8.532
92926W        W93791  29.116  14.876  10.273
92927W        W93792  27.265  16.711   9.867
92928W        W93793  27.482  15.597   9.312
92929W        W93794  28.334  15.895   8.150
92930W        W93795  28.621  15.628   7.792
92931W        W93796  28.430  17.668   8.181
92932W        W93797  28.264  17.271   8.977
92933W        W93798  28.160  16.350   7.955
92934W        W93799  27.593  16.560   8.941
92935W        W93800  28.474  16.348   9.008
92936W        W93801  25.849  15.363   9.432
92937W        W93802  28.627  16.415  10.259
92938W        W93803  28.978  18.033   9.405
92939W        W93804  26.908  17.477   8.807
92940W        W93805  27.915  18.010  10.131
92941W        W93806  27.909  15.340   9.895
92942W        W93807  27.116  18.048   9.956
92943W        W93808  28.813  15.002   8.422
92944W        W93809  28.604  16.321   9.723
92945W        W93810  25.587  15.642   9.761
92946W        W93811  28.447  15.437   8.779
92947W        W93812  28.858  15.588  10.556
92948W        W93813  27.743  17.287   8.774
92949W        W93814  26.999  17.878   8.387
92950W        W93815  26.114  15.058   7.645
92951W        W93816  27.218  14.712   9.455
92952W        W93817  26.246  17.832   7.303
92953W        W93818  26.620  16.298   8.054
92954W        W93819  27.274  16.927  10.367
92955W        W93820  27.104  15.285   8.357
92956W        W93821  28.460  14.882   8.785
92957W        W93822  28.180  18.164   9.113
92958W        W93823  27.592  17.812   9.453
92959W        W93824  26.988  16.849   9.414
92960W        W93825  28.758  17.572   9.540
92961W        W93826  26.452  15.075   8.309
92962W        W93827  26.974  17.372   9.269
92963W        W93828  26.457  15.303   7.334
92964W        W93829  27.258  15.912   9.728
92965W        W93830  28.106  14.778   9.598
92966W        W93831  25.526  16.621   9.483
92967W        W93832  27.230  16.439   7.641
92968W        W93833  26.498  14.754   7.411
92969W        W93834  27.236  15.835   8.462
92970W        W93835  28.206  14.811  10.161
92971W        W93836  26.794  16.823  10.270
92972W        W93837  27.598  16.605  10.487
92973W        W93838  28.215  16.635  10.380
92974W        W93839  27.499  14.775  10.885
92975W        W93840  26.721  15.391   9.278
92976W        W93841  26.147  15.347   8.676
92977W        W93842  25.933  18.059   8.352
92978W        W93843  27.265  17.389  10.477
92979W        W93844  26.300  16.874   7.836
92980W        W93845  27.980  16.259   9.057
92981W        W93846  28.260  16.058   9.456
92982W        W93847  27.465  16.732   9.390
92983W        W93848  27.935  17.106   7.522
92984W        W93849  27.607  15.127   8.850
92985W        W93850  29.086  15.405   8.118
92986W        W93851  25.580  17.994  10.149
92987W        W93852  25.997  17.220   9.681
92988W        W93853  25.564  18.066   7.913
92989W        W93854  27.463  15.336   9.719
92990W        W93855  26.826  17.359   7.568
92991W        W93856  28.731  17.741   7.754
92992W        W93857  27.706  16.394   7.768
92993W        W93858  26.549  15.585   8.285
92994W        W93859  27.381  15.495   7.337
92995W        W93860  27.965  17.060  10.515
92996W        W93861  28.318  14.966   8.132
92997W        W93862  25.648  14.814   7.580
92998W        W93863  26.934  17.133   9.870
92999W        W93864  26.733  17.049   8.962
93000W        W93865  26.475  17.001   7.360
93001W        W93866  25.716  17.242   8.128
93002W        W93867  26.220  16.312  10.570
93003W        W93868  26.924  14.872  10.756
93004W        W93869  27.633  15.014  10.112
93005W        W93870  26.828  14.782   8.393
93006W        W93871  27.887  14.859   7.898
93007W        W93872  25.832  14.791   9.475
93008W        W93873  25.880  15.754   8.845
93009W        W93874  28.569  14.862   9.251
93010W        W93875  25.991  15.360   8.065
93011W        W93876  28.562  15.048   9.681
93012W        W93877  28.958  16.251   7.366
93013W        W93878  26.250  15.009   9.185
93014W        W93879  27.364  15.581  10.125
93015W        W93880  25.512  15.271   7.603
93016W        W93881  26.298  16.660  10.164
93017W        W93882  27.656  16.058   9.343
93018W        W93883  27.523  18.137   7.639
93019W        W93884  25.669  16.644   7.336
93020W        W93885  26.404  17.055  10.462
93021W        W93886  25.925  16.222  10.093
93022W        W93887  26.916  16.327   9.887
93023W        W93888  28.684  14.686  10.149
93024W        W93889  29.082  16.296  10.140
93025W        W93890  29.070  16.496   7.826
93026W        W93891  27.933  16.828   7.925
93027W        W93892  28.407  18.128   7.620
93028W        W93893  27.584  16.118  10.762
93029W        W93894  25.914  17.085  10.802
93030W        W93895  29.120  15.007  10.754
93031W        W93896  28.838  15.935   9.375
93032W        W93897  27.146  18.065  10.852
93033W        W93898  28.540  17.293   7.522
93034W        W93899  26.309  15.386  10.408
93035W        W93900  26.743  17.380  10.270
93036W        W93901  28.869  15.371  10.068
93037W        W93902  28.080  18.030   8.036
93038W        W93903  28.319  16.649   9.403
93039W        W93904  26.569  15.065  10.070
93040W        W93905  27.038  16.134  10.827
93041W        W93906  26.541  17.313   8.021
93042W        W93907  28.296  16.811   8.285
93043W        W93908  26.064  15.437  10.009
93044W        W93909  27.393  17.499   8.473
93045W        W93910  29.143  16.059   8.654
93046W        W93911  27.365  14.692  10.373
93047W        W93912  28.145  17.397   9.452
93048W        W93913  28.448  17.741   9.160
93049W        W93914  27.667  17.543   7.588
93050W        W93915  25.677  17.435  10.430
93051W        W93916  26.420  15.427   9.668
93052W        W93917  26.390  14.775   8.778
93053W        W93918  28.011  15.617   9.470
93054W        W93919  26.809  16.788   7.670
93055W        W93920  28.807  16.730   9.169
93056W        W93921  26.134  17.488  10.592
93057W        W93922  28.521  18.170   8.389
93058W        W93923  26.620  15.190   8.834
93059W        W93924  26.389  16.683   8.924
93060W        W93925  26.702  18.094   9.674
93061W        W93926  28.769  18.190  10.706
93062W        W93927  27.928  16.378   9.639
93063W        W93928  25.777  16.176   7.554
93064W        W93929  28.911  17.834   8.251
93065W        W93930  28.748  15.158   7.870
93066W        W93931  26.887  14.677  10.273
93067W        W93932  28.593  17.479   8.731
93068W        W93933  28.622  16.035   8.636
93069W        W93934  26.739  15.708   8.852
93070W        W93935  26.984  15.970  10.176
93071W        W93936  28.095  17.123  10.039
93072W        W93937  26.745  15.577  10.151
93073W        W93938  26.724  18.043   8.767
93074W        W93939  26.041  18.002  10.401
93075W        W93940  26.153  17.363   7.531
93076W        W93941  28.670  17.121   8.341
93077W        W93942  26.274  15.913  10.227
93078W        W93943  29.047  15.843   7.708
93079W        W93944  26.792  16.900   8.179
93080W        W93945  27.891  16.282  10.260
93081W        W93946  27.782  15.910   9.804
93082W        W93947  26.342  16.282   9.833
93083W        W93948  28.552  18.170   9.662
93084W        W93949  28.343  14.804  10.656
93085W        W93950  26.007  14.954  10.243
93086W        W93951  26.346  15.977   9.296
93087W        W93952  26.715  15.791   7.418
93088W        W93953  25.518  17.550   9.963
93089W        W93954  27.103  16.259   9.406
93090W        W93955  26.926  15.284   7.511
93091W        W93956  26.061  16.100   8.292
93092W        W93957  25.832  17.952   9.729
93093W        W93958  28.627  16.178   7.837
93094W        W93959  28.722  15.094  10.523
93095W        W93960  28.158  17.303   8.486
93096W        W93961  25.756  16.227  10.663
93097W        W93962  28.722  14.691   7.959
93098W        W93963  28.242  17.166   7.970
93099W        W93964  27.144  16.224   8.055
93100W        W93965  28.331  15.028   7.578
93101W        W93966  28.396  15.635   9.764
93102W        W93967  26.105  16.228   8.971
93103W        W93968  26.399  17.167   8.620
93104W        W93969  28.162  15.787   8.585
93105W        W93970  27.185  15.166   9.281
93106W        W93971  29.147  17.077   9.792
93107W        W93972  29.065  15.064   9.353
93108W        W93973  25.604  17.894   8.729
93109W        W93974  26.113  17.081   8.265
93110W        W93975  26.028  14.698  10.818
93111W        W93976  27.147  17.551  10.920
93112W        W93977  28.902  16.519   8.710
93113W        W93978  28.256  16.696   7.590
93114W        W93979  27.551  18.217   9.802
93115W        W93980  28.408  16.939  10.839
93116W        W93981  27.223  14.649   8.119
93117W        W93982  27.936  15.518   8.978
93118W        W93983  25.622  17.105   9.310
93119W        W93984  26.875  15.067   7.951
93120W        W93985  26.679  16.551  10.800
93121W        W93986  27.673  15.532   8.514
93122W        W93987  27.878  16.942   9.636
93123W        W93988  26.032  17.547  10.071
93124W        W93989  26.623  17.530  10.794
93125W        W93990  26.474  15.327   7.808
93126W        W93991  27.991  15.469   8.133
93127W        W93992  27.949  17.577  10.370
93128W        W93993  26.634  16.169   8.969
93129W        W93994  26.289  17.867   9.834
93130W        W93995  29.034  17.984   7.435
93131W        W93996  25.897  16.656  10.431
93132W        W93997  27.892  16.918   9.119
93133W        W93998  26.328  16.567   8.361
93134W        W93999  26.699  17.574   9.756
93135W        W94000  27.077  14.993   8.797
93136W        W94001  25.688  16.977   7.727
93137W        W94002  27.207  15.928   7.597
93138W        W94003  25.853  16.477   8.616
93139W        W94004  27.143  15.119  10.080
93140W        W94005  28.815  14.828   7.507
93141W        W94006  28.908  16.574  10.606
93142W        W94007  27.562  17.831  10.758
93143W        W94008  29.120  16.925  10.280
93144W        W94009  28.528  17.723  10.891
93145W        W94010  26.267  18.179   9.369
93146W        W94011  29.126  16.801   8.243
93147W        W94012  27.656  16.068   8.756
93148W        W94013  27.423  14.680   8.646
93149W        W94014  26.482  17.664   8.483
93150W        W94015  26.981  15.405   9.708
93151W        W94016  26.681  14.774   9.177
93152W        W94017  25.744  17.596   7.725
93153W        W94018  27.560  16.960   8.443
93154W        W94019  26.435  17.755  10.322
93155W        W94020  25.912  16.578   8.018
93156W        W94021  25.797  15.121   9.017
93157W        W94022  27.345  17.086   9.074
93158W        W94023  25.597  14.940   8.094
93159W        W94024  28.261  16.146  10.021
93160W        W94025  28.138  15.532   7.593
93161W        W94026  28.655  17.204   9.241
93162W        W94027  27.316  17.688   9.072
93163W        W94028  26.728  17.792   7.983
93164W        W94029  28.010  14.695   7.413
93165W        W94030  25.810  17.955   9.154
93166W        W94031  28.007  15.713  10.789
93167W        W94032  25.990  15.243  10.788
93168W        W94033  25.721  15.843   8.121
93169W        W94034  26.412  15.832   7.846
93170W        W94035  28.175  16.159  10.663
93171W        W94036  26.518  16.440   9.372
93172W        W94037  27.992  14.726   8.492
93173W        W94038  27.123  18.157   8.995
93174W        W94039  28.337  17.619   9.932
93175W        W94040  27.921  17.768   9.043
93176W        W94041  27.940  16.748   8.637
93177W        W94042  27.402  14.973   7.708
93178W        W94043  29.083  14.601   8.430
93179W        W94044  26.771  16.236   7.593
93180W        W94045  28.937  15.573   8.583
93181W        W94046  27.629  16.743   7.460
93182W        W94047  28.565  16.943  10.208
93183W        W94048  28.219  17.644   7.675
93184W        W94049  26.834  15.319  10.581
93185W        W94050  26.654  15.903   9.822
93186W        W94051  28.746  17.398  10.099
93187W        W94052  27.846  15.348  10.476
93188W        W94053  25.690  15.819  10.253
93189W        W94054  27.450  16.296   9.979
93190W        W94055  25.807  17.054   8.636
93191W        W94056  25.954  16.351   9.526
93192W        W94057  28.271  16.637   9.876
93193W        W94058  28.043  18.017  10.687
93194W        W94059  27.939  15.756  10.240
93195W        W94060  28.216  17.810   8.645
93196W        W94061  27.218  17.530   9.968
93197W        W94062  26.703  17.885   9.237
93198W        W94063  28.508  17.056   9.656
93199W        W94064  27.558  17.128  10.793
93200W        W94065  26.163  17.081   9.132
93201W        W94066  28.509  16.840   8.777
93202W        W94067  28.150  17.906   9.528
93203W        W94068  26.128  17.635   9.398
93204W        W94069  27.149  15.687  10.608
93205W        W94070  27.600  17.853   8.119
93206W        W94071  26.908  17.108  10.757
93207W        W94072  27.034  17.346   8.134
93208W        W94073  26.255  16.086   7.393
93209W        W94074  25.594  18.172  14.292
93210W        W94075  25.970  17.065  13.815
93211W        W94076  28.675  16.795  11.585
93212W        W94077  28.805  17.880  13.612
93213W        W94078  26.723  17.871  11.138
93214W        W94079  26.806  16.023  12.121
93215W        W94080  26.321  15.871  12.285
93216W        W94081  27.312  16.686  11.719
93217W        W94082  26.987  17.778  14.074
93218W        W94083  25.636  15.339  14.037
93219W        W94084  26.398  14.619  13.839
93220W        W94085  28.092  15.007  12.726
93221W        W94086  27.741  15.878  11.296
93222W        W94087  28.311  15.312  14.387
93223W        W94088  25.677  15.104  13.512
93224W        W94089  25.776  17.723  14.533
93225W        W94090  27.298  17.113  11.265
93226W        W94091  25.730  15.896  12.958
93227W        W94092  26.623  15.787  14.195
93228W        W94093  29.082  15.646  12.694
93229W        W94094  28.846  16.689  13.553
93230W        W94095  27.154  16.022  12.580
93231W        W94096  27.700  17.361  12.949
93232W        W94097  26.200  16.795  13.181
93233W        W94098  25.559  16.323  12.752
93234W        W94099  26.595  16.295  13.944
93235W        W94100  28.866  16.078  14.198
93236W        W94101  26.482  17.522  12.643
93237W        W94102  27.603  17.211  13.777
93238W        W94103  26.823  15.851  13.002
93239W        W94104  27.115  16.635  12.645
93240W        W94105  28.112  17.408  14.493
93241W        W94106  27.191  16.728  14.503
93242W        W94107  27.172  16.444  13.981
93243W        W94108  25.581  15.835  14.503
93244W        W94109  28.413  17.370  14.102
93245W        W94110  25.994  14.952  12.100
93246W        W94111  26.521  17.210  13.099
93247W        W94112  28.984  16.993  12.389
93248W        W94113  28.397  15.393  12.956
93249W        W94114  28.682  15.346  11.051
93250W        W94115  29.147  16.147  13.357
93251W        W94116  27.114  17.854  13.110
93252W        W94117  28.888  17.320  11.548
93253W        W94118  26.017  18.106  11.302
93254W        W94119  26.410  18.152  11.978
93255W        W94120  26.207  14.906  13.404
93256W        W94121  28.830  15.924  13.679
93257W        W94122  28.235  16.346  12.138
93258W        W94123  28.201  16.034  11.165
93259W        W94124  27.409  17.178  13.305
93260W        W94125  27.215  15.508  12.504
93261W        W94126  27.815  17.595  13.498
93262W        W94127  28.686  16.386  11.920
93263W        W94128  27.588  15.044  11.936
93264W        W94129  26.245  17.738  11.619
93265W        W94130  25.616  15.237  12.218
93266W        W94131  28.402  15.844  12.692
93267W        W94132  25.860  17.461  12.607
93268W        W94133  27.201  17.811  11.477
93269W        W94134  28.593  15.837  10.941
93270W        W94135  25.616  17.595  13.105
93271W        W94136  26.407  17.167  13.585
93272W        W94137  26.780  16.527  12.204
93273W        W94138  26.802  14.932  13.297
93274W        W94139  29.031  14.694  12.594
93275W        W94140  26.250  16.566  11.062
93276W        W94141  25.905  15.599  11.241
93277W        W94142  25.967  17.555  12.035
93278W        W94143  27.098  17.038  12.283
93279W        W94144  28.430  17.897  13.997
93280W        W94145  27.356  15.539  11.681
93281W        W94146  28.739  17.937  12.453
93282W        W94147  28.416  15.790  14.051
93283W        W94148  29.129  17.446  12.185
93284W        W94149  27.756  16.738  13.669
93285W        W94150  25.522  16.289  11.875
93286W        W94151  26.633  16.704  13.448
93287W        W94152  27.837  15.968  11.826
93288W        W94153  27.714  16.458  11.930
93289W        W94154  26.057  15.878  13.404
93290W        W94155  26.042  15.754  14.326
93291W        W94156  25.932  14.671  12.485
93292W        W94157  27.700  15.018  13.046
93293W        W94158  27.348  15.203  14.209
93294W        W94159  27.703  15.352  11.387
93295W        W94160  28.886  17.745  14.141
93296W        W94161  27.853  14.826  14.180
93297W        W94162  28.872  17.127  14.302
93298W        W94163  28.302  15.294  13.898
93299W        W94164  28.102  15.232  12.168
93300W        W94165  28.495  16.366  14.572
93301W        W94166  26.235  17.942  12.558
93302W        W94167  26.893  15.659  11.544
93303W        W94168  26.462  14.943  14.208
93304W        W94169  28.514  15.427  11.889
93305W        W94170  28.881  15.909  11.834
93306W        W94171  26.624  18.126  14.305
93307W        W94172  26.550  14.662  11.540
93308W        W94173  28.871  15.196  12.575
93309W        W94174  29.021  17.445  11.020
93310W        W94175  25.928  16.648  12.722
93311W        W94176  27.845  15.235  10.952
93312W        W94177  28.979  17.567  12.672
93313W        W94178  29.018  14.761  13.422
93314W        W94179  27.463  15.973  13.976
93315W        W94180  27.556  17.312  11.679
93316W        W94181  27.956  16.606  14.419
93317W        W94182  27.630  14.583  12.728
93318W        W94183  26.242  15.486  12.791
93319W        W94184  25.796  16.686  13.565
93320W        W94185  27.655  17.879  12.271
93321W        W94186  28.849  15.476  13.143
93322W        W94187  27.486  17.823  13.910
93323W        W94188  28.829  16.882  11.115
93324W        W94189  27.264  16.365  12.176
93325W        W94190  29.116  14.876  13.917
93326W        W94191  27.265  16.711  13.511
93327W        W94192  27.482  15.597  12.956
93328W        W94193  28.334  15.895  11.794
93329W        W94194  28.621  15.628  11.436
93330W        W94195  28.430  17.668  11.825
93331W        W94196  28.264  17.271  12.621
93332W        W94197  28.160  16.350  11.599
93333W        W94198  27.593  16.560  12.585
93334W        W94199  28.474  16.348  12.652
93335W        W94200  25.849  15.363  13.076
93336W        W94201  28.627  16.415  13.903
93337W        W94202  28.978  18.033  13.049
93338W        W94203  26.908  17.477  12.451
93339W        W94204  27.915  18.010  13.775
93340W        W94205  27.909  15.340  13.539
93341W        W94206  27.116  18.048  13.600
93342W        W94207  28.813  15.002  12.066
93343W        W94208  28.604  16.321  13.367
93344W        W94209  25.587  15.642  13.405
93345W        W94210  28.858  15.588  14.200
93346W        W94211  27.743  17.287  12.418
93347W        W94212  26.999  17.878  12.031
93348W        W94213  26.114  15.058  11.289
93349W        W94214  27.218  14.712  13.099
93350W        W94215  26.246  17.832  10.947
93351W        W94216  26.620  16.298  11.698
93352W        W94217  27.274  16.927  14.011
93353W        W94218  27.104  15.285  12.001
93354W        W94219  28.460  14.882  12.429
93355W        W94220  28.180  18.164  12.757
93356W        W94221  27.592  17.812  13.097
93357W        W94222  26.988  16.849  13.058
93358W        W94223  28.758  17.572  13.184
93359W        W94224  26.452  15.075  11.953
93360W        W94225  26.974  17.372  12.913
93361W        W94226  26.457  15.303  10.978
93362W        W94227  27.258  15.912  13.372
93363W        W94228  28.106  14.778  13.242
93364W        W94229  25.526  16.621  13.127
93365W        W94230  27.230  16.439  11.285
93366W        W94231  26.498  14.754  11.055
93367W        W94232  27.236  15.835  12.106
93368W        W94233  28.206  14.811  13.805
93369W        W94234  26.794  16.823  13.914
93370W        W94235  27.598  16.605  14.131
93371W        W94236  28.215  16.635  14.024
93372W        W94237  27.499  14.775  14.529
93373W        W94238  26.721  15.391  12.922
93374W        W94239  26.147  15.347  12.320
93375W        W94240  25.933  18.059  11.996
93376W        W94241  27.265  17.389  14.121
93377W        W94242  26.300  16.874  11.480
93378W        W94243  27.980  16.259  12.701
93379W        W94244  28.260  16.058  13.100
93380W        W94245  27.465  16.732  13.034
93381W        W94246  27.935  17.106  11.166
93382W        W94247  27.607  15.127  12.494
93383W        W94248  29.086  15.405  11.762
93384W        W94249  25.580  17.994  13.793
93385W        W94250  25.997  17.220  13.325
93386W        W94251  25.564  18.066  11.557
93387W        W94252  27.463  15.336  13.363
93388W        W94253  26.826  17.359  11.212
93389W        W94254  28.731  17.741  11.398
93390W        W94255  27.706  16.394  11.412
93391W        W94256  26.549  15.585  11.929
93392W        W94257  27.381  15.495  10.981
93393W        W94258  27.965  17.060  14.159
93394W        W94259  28.318  14.966  11.776
93395W        W94260  25.648  14.814  11.224
93396W        W94261  26.934  17.133  13.514
93397W        W94262  26.733  17.049  12.606
93398W        W94263  26.475  17.001  11.004
93399W        W94264  25.716  17.242  11.772
93400W        W94265  26.220  16.312  14.214
93401W        W94266  26.924  14.872  14.400
93402W        W94267  27.633  15.014  13.756
93403W        W94268  26.828  14.782  12.037
93404W        W94269  27.887  14.859  11.542
93405W        W94270  25.832  14.791  13.119
93406W        W94271  25.880  15.754  12.489
93407W        W94272  28.569  14.862  12.895
93408W        W94273  25.991  15.360  11.709
93409W        W94274  28.562  15.048  13.325
93410W        W94275  28.958  16.251  11.010
93411W        W94276  26.250  15.009  12.829
93412W        W94277  27.364  15.581  13.769
93413W        W94278  25.512  15.271  11.247
93414W        W94279  26.298  16.660  13.808
93415W        W94280  27.656  16.058  12.987
93416W        W94281  27.523  18.137  11.283
93417W        W94282  25.669  16.644  10.980
93418W        W94283  26.404  17.055  14.106
93419W        W94284  25.925  16.222  13.737
93420W        W94285  26.916  16.327  13.531
93421W        W94286  28.684  14.686  13.793
93422W        W94287  29.082  16.296  13.784
93423W        W94288  29.070  16.496  11.470
93424W        W94289  27.933  16.828  11.569
93425W        W94290  28.407  18.128  11.264
93426W        W94291  27.584  16.118  14.406
93427W        W94292  25.914  17.085  14.446
93428W        W94293  29.120  15.007  14.398
93429W        W94294  28.838  15.935  13.019
93430W        W94295  27.146  18.065  14.496
93431W        W94296  27.001  14.694  11.223
93432W        W94297  28.540  17.293  11.166
93433W        W94298  26.309  15.386  14.052
93434W        W94299  26.743  17.380  13.914
93435W        W94300  28.869  15.371  13.712
93436W        W94301  28.080  18.030  11.680
93437W        W94302  28.319  16.649  13.047
93438W        W94303  26.569  15.065  13.714
93439W        W94304  27.038  16.134  14.471
93440W        W94305  26.541  17.313  11.665
93441W        W94306  28.296  16.811  11.929
93442W        W94307  26.064  15.437  13.653
93443W        W94308  27.393  17.499  12.117
93444W        W94309  29.143  16.059  12.298
93445W        W94310  27.365  14.692  14.017
93446W        W94311  28.145  17.397  13.096
93447W        W94312  28.448  17.741  12.804
93448W        W94313  27.667  17.543  11.232
93449W        W94314  25.677  17.435  14.074
93450W        W94315  26.420  15.427  13.312
93451W        W94316  26.390  14.775  12.422
93452W        W94317  28.011  15.617  13.114
93453W        W94318  26.809  16.788  11.314
93454W        W94319  28.807  16.730  12.813
93455W        W94320  26.134  17.488  14.236
93456W        W94321  28.521  18.170  12.033
93457W        W94322  26.620  15.190  12.478
93458W        W94323  26.389  16.683  12.568
93459W        W94324  26.702  18.094  13.318
93460W        W94325  28.769  18.190  14.350
93461W        W94326  27.928  16.378  13.283
93462W        W94327  25.777  16.176  11.198
93463W        W94328  28.911  17.834  11.895
93464W        W94329  28.748  15.158  11.514
93465W        W94330  26.887  14.677  13.917
93466W        W94331  28.593  17.479  12.375
93467W        W94332  28.622  16.035  12.280
93468W        W94333  26.739  15.708  12.496
93469W        W94334  26.984  15.970  13.820
93470W        W94335  28.095  17.123  13.683
93471W        W94336  26.745  15.577  13.795
93472W        W94337  26.724  18.043  12.411
93473W        W94338  26.041  18.002  14.045
93474W        W94339  26.153  17.363  11.175
93475W        W94340  28.670  17.121  11.985
93476W        W94341  26.274  15.913  13.871
93477W        W94342  29.047  15.843  11.352
93478W        W94343  26.792  16.900  11.823
93479W        W94344  27.891  16.282  13.904
93480W        W94345  27.782  15.910  13.448
93481W        W94346  26.342  16.282  13.477
93482W        W94347  28.552  18.170  13.306
93483W        W94348  28.343  14.804  14.300
93484W        W94349  26.007  14.954  13.887
93485W        W94350  26.346  15.977  12.940
93486W        W94351  26.715  15.791  11.062
93487W        W94352  25.518  17.550  13.607
93488W        W94353  27.103  16.259  13.050
93489W        W94354  26.926  15.284  11.155
93490W        W94355  26.061  16.100  11.936
93491W        W94356  25.832  17.952  13.373
93492W        W94357  28.627  16.178  11.481
93493W        W94358  28.722  15.094  14.167
93494W        W94359  28.158  17.303  12.130
93495W        W94360  25.756  16.227  14.307
93496W        W94361  28.722  14.691  11.603
93497W        W94362  28.242  17.166  11.614
93498W        W94363  27.144  16.224  11.699
93499W        W94364  28.331  15.028  11.222
93500W        W94365  28.396  15.635  13.408
93501W        W94366  26.105  16.228  12.615
93502W        W94367  26.399  17.167  12.264
93503W        W94368  28.162  15.787  12.229
93504W        W94369  27.185  15.166  12.925
93505W        W94370  29.147  17.077  13.436
93506W        W94371  29.065  15.064  12.997
93507W        W94372  25.604  17.894  12.373
93508W        W94373  26.113  17.081  11.909
93509W        W94374  26.028  14.698  14.462
93510W        W94375  27.147  17.551  14.564
93511W        W94376  28.902  16.519  12.354
93512W        W94377  28.256  16.696  11.234
93513W        W94378  27.551  18.217  13.446
93514W        W94379  28.408  16.939  14.483
93515W        W94380  27.223  14.649  11.763
93516W        W94381  27.936  15.518  12.622
93517W        W94382  25.622  17.105  12.954
93518W        W94383  26.875  15.067  11.595
93519W        W94384  26.679  16.551  14.444
93520W        W94385  27.673  15.532  12.158
93521W        W94386  27.878  16.942  13.280
93522W        W94387  26.032  17.547  13.715
93523W        W94388  26.623  17.530  14.438
93524W        W94389  26.474  15.327  11.452
93525W        W94390  27.991  15.469  11.777
93526W        W94391  27.949  17.577  14.014
93527W        W94392  26.634  16.169  12.613
93528W        W94393  26.289  17.867  13.478
93529W        W94394  29.034  17.984  11.079
93530W        W94395  25.897  16.656  14.075
93531W        W94396  27.892  16.918  12.763
93532W        W94397  26.328  16.567  12.005
93533W        W94398  26.699  17.574  13.400
93534W        W94399  27.077  14.993  12.441
93535W        W94400  25.688  16.977  11.371
93536W        W94401  27.207  15.928  11.241
93537W        W94402  25.853  16.477  12.260
93538W        W94403  27.143  15.119  13.724
93539W        W94404  28.815  14.828  11.151
93540W        W94405  28.908  16.574  14.250
93541W        W94406  27.562  17.831  14.402
93542W        W94407  29.120  16.925  13.924
93543W        W94408  28.528  17.723  14.535
93544W        W94409  26.267  18.179  13.013
93545W        W94410  29.126  16.801  11.887
93546W        W94411  27.656  16.068  12.400
93547W        W94412  27.423  14.680  12.290
93548W        W94413  26.482  17.664  12.127
93549W        W94414  26.981  15.405  13.352
93550W        W94415  26.681  14.774  12.821
93551W        W94416  25.744  17.596  11.369
93552W        W94417  27.560  16.960  12.087
93553W        W94418  26.435  17.755  13.966
93554W        W94419  25.912  16.578  11.662
93555W        W94420  25.797  15.121  12.661
93556W        W94421  27.345  17.086  12.718
93557W        W94422  25.597  14.940  11.738
93558W        W94423  28.261  16.146  13.665
93559W        W94424  28.138  15.532  11.237
93560W        W94425  28.655  17.204  12.885
93561W        W94426  27.316  17.688  12.716
93562W        W94427  26.728  17.792  11.627
93563W        W94428  28.010  14.695  11.057
93564W        W94429  25.810  17.955  12.798
93565W        W94430  28.007  15.713  14.433
93566W        W94431  25.990  15.243  14.432
93567W        W94432  25.721  15.843  11.765
93568W        W94433  26.412  15.832  11.490
93569W        W94434  28.175  16.159  14.307
93570W        W94435  26.518  16.440  13.016
93571W        W94436  27.992  14.726  12.136
93572W        W94437  27.123  18.157  12.639
93573W        W94438  28.337  17.619  13.576
93574W        W94439  27.921  17.768  12.687
93575W        W94440  27.940  16.748  12.281
93576W        W94441  27.402  14.973  11.352
93577W        W94442  29.083  14.601  12.074
93578W        W94443  26.771  16.236  11.237
93579W        W94444  28.937  15.573  12.227
93580W        W94445  27.629  16.743  11.104
93581W        W94446  28.565  16.943  13.852
93582W        W94447  28.219  17.644  11.319
93583W        W94448  26.834  15.319  14.225
93584W        W94449  26.654  15.903  13.466
93585W        W94450  28.746  17.398  13.743
93586W        W94451  27.846  15.348  14.120
93587W        W94452  25.690  15.819  13.897
93588W        W94453  27.450  16.296  13.623
93589W        W94454  25.807  17.054  12.280
93590W        W94455  25.954  16.351  13.170
93591W        W94456  28.271  16.637  13.520
93592W        W94457  28.043  18.017  14.331
93593W        W94458  27.939  15.756  13.884
93594W        W94459  28.216  17.810  12.289
93595W        W94460  27.218  17.530  13.612
93596W        W94461  26.703  17.885  12.881
93597W        W94462  28.508  17.056  13.300
93598W        W94463  27.558  17.128  14.437
93599W        W94464  26.163  17.081  12.776
93600W        W94465  28.509  16.840  12.421
93601W        W94466  28.150  17.906  13.172
93602W        W94467  26.128  17.635  13.042
93603W        W94468  27.149  15.687  14.252
93604W        W94469  27.600  17.853  11.763
93605W        W94470  26.908  17.108  14.401
93606W        W94471  27.034  17.346  11.778
93607W        W94472  26.255  16.086  11.037
93608W        W94473  25.594  18.172  17.936
93609W        W94474  25.970  17.065  17.459
93610W        W94475  28.675  16.795  15.229
93611W        W94476  28.805  17.880  17.256
93612W        W94477  26.723  17.871  14.782
93613W        W94478  26.806  16.023  15.765
93614W        W94479  26.321  15.871  15.929
93615W        W94480  27.312  16.686  15.363
93616W        W94481  26.987  17.778  17.718
93617W        W94482  25.636  15.339  17.681
93618W        W94483  26.398  14.619  17.483
93619W        W94484  28.092  15.007  16.370
93620W        W94485  27.741  15.878  14.940
93621W        W94486  28.311  15.312  18.031
93622W        W94487  25.677  15.104  17.156
93623W        W94488  25.776  17.723  18.177
93624W        W94489  27.298  17.113  14.909
93625W        W94490  25.730  15.896  16.602
93626W        W94491  26.623  15.787  17.839
93627W        W94492  29.082  15.646  16.338
93628W        W94493  28.846  16.689  17.197
93629W        W94494  27.154  16.022  16.224
93630W        W94495  27.700  17.361  16.593
93631W        W94496  26.200  16.795  16.825
93632W        W94497  25.559  16.323  16.396
93633W        W94498  26.595  16.295  17.588
93634W        W94499  28.866  16.078  17.842
93635W        W94500  26.482  17.522  16.287
93636W        W94501  27.603  17.211  17.421
93637W        W94502  26.823  15.851  16.646
93638W        W94503  27.115  16.635  16.289
93639W        W94504  28.112  17.408  18.137
93640W        W94505  27.191  16.728  18.147
93641W        W94506  27.172  16.444  17.625
93642W        W94507  25.581  15.835  18.147
93643W        W94508  28.413  17.370  17.746
93644W        W94509  25.994  14.952  15.744
93645W        W94510  26.521  17.210  16.743
93646W        W94511  28.984  16.993  16.033
93647W        W94512  28.397  15.393  16.600
93648W        W94513  28.682  15.346  14.695
93649W        W94514  29.147  16.147  17.001
93650W        W94515  27.114  17.854  16.754
93651W        W94516  28.888  17.320  15.192
93652W        W94517  26.017  18.106  14.946
93653W        W94518  26.410  18.152  15.622
93654W        W94519  26.207  14.906  17.048
93655W        W94520  28.830  15.924  17.323
93656W        W94521  28.235  16.346  15.782
93657W        W94522  28.201  16.034  14.809
93658W        W94523  27.409  17.178  16.949
93659W        W94524  27.215  15.508  16.148
93660W        W94525  27.815  17.595  17.142
93661W        W94526  28.686  16.386  15.564
93662W        W94527  27.588  15.044  15.580
93663W        W94528  26.245  17.738  15.263
93664W        W94529  25.616  15.237  15.862
93665W        W94530  28.402  15.844  16.336
93666W        W94531  25.860  17.461  16.251
93667W        W94532  27.201  17.811  15.121
93668W        W94533  28.593  15.837  14.585
93669W        W94534  25.616  17.595  16.749
93670W        W94535  26.407  17.167  17.229
93671W        W94536  26.780  16.527  15.848
93672W        W94537  26.802  14.932  16.941
93673W        W94538  29.031  14.694  16.238
93674W        W94539  26.250  16.566  14.706
93675W        W94540  25.905  15.599  14.885
93676W        W94541  25.967  17.555  15.679
93677W        W94542  27.098  17.038  15.927
93678W        W94543  28.430  17.897  17.641
93679W        W94544  27.356  15.539  15.325
93680W        W94545  28.739  17.937  16.097
93681W        W94546  28.416  15.790  17.695
93682W        W94547  29.129  17.446  15.829
93683W        W94548  27.756  16.738  17.313
93684W        W94549  25.522  16.289  15.519
93685W        W94550  26.633  16.704  17.092
93686W        W94551  27.837  15.968  15.470
93687W        W94552  27.714  16.458  15.574
93688W        W94553  26.057  15.878  17.048
93689W        W94554  26.042  15.754  17.970
93690W        W94555  25.932  14.671  16.129
93691W        W94556  27.700  15.018  16.690
93692W        W94557  27.348  15.203  17.853
93693W        W94558  27.703  15.352  15.031
93694W        W94559  28.886  17.745  17.785
93695W        W94560  27.853  14.826  17.824
93696W        W94561  28.872  17.127  17.946
93697W        W94562  28.302  15.294  17.542
93698W        W94563  28.102  15.232  15.812
93699W        W94564  28.495  16.366  18.216
93700W        W94565  26.235  17.942  16.202
93701W        W94566  26.893  15.659  15.188
93702W        W94567  26.462  14.943  17.852
93703W        W94568  28.514  15.427  15.533
93704W        W94569  28.881  15.909  15.478
93705W        W94570  26.624  18.126  17.949
93706W        W94571  26.550  14.662  15.184
93707W        W94572  28.871  15.196  16.219
93708W        W94573  29.021  17.445  14.664
93709W        W94574  25.928  16.648  16.366
93710W        W94575  27.845  15.235  14.596
93711W        W94576  28.979  17.567  16.316
93712W        W94577  29.018  14.761  17.066
93713W        W94578  27.463  15.973  17.620
93714W        W94579  27.556  17.312  15.323
93715W        W94580  27.956  16.606  18.063
93716W        W94581  27.630  14.583  16.372
93717W        W94582  26.242  15.486  16.435
93718W        W94583  25.796  16.686  17.209
93719W        W94584  27.655  17.879  15.915
93720W        W94585  28.849  15.476  16.787
93721W        W94586  27.486  17.823  17.554
93722W        W94587  28.829  16.882  14.759
93723W        W94588  27.264  16.365  15.820
93724W        W94589  29.116  14.876  17.561
93725W        W94590  27.265  16.711  17.155
93726W        W94591  27.482  15.597  16.600
93727W        W94592  28.334  15.895  15.438
93728W        W94593  28.621  15.628  15.080
93729W        W94594  28.430  17.668  15.469
93730W        W94595  28.264  17.271  16.265
93731W        W94596  28.160  16.350  15.243
93732W        W94597  27.593  16.560  16.229
93733W        W94598  28.474  16.348  16.296
93734W        W94599  25.849  15.363  16.720
93735W        W94600  28.627  16.415  17.547
93736W        W94601  28.978  18.033  16.693
93737W        W94602  26.908  17.477  16.095
93738W        W94603  27.915  18.010  17.419
93739W        W94604  27.909  15.340  17.183
93740W        W94605  27.116  18.048  17.244
93741W        W94606  28.813  15.002  15.710
93742W        W94607  28.604  16.321  17.011
93743W        W94608  25.587  15.642  17.049
93744W        W94609  28.447  15.437  16.067
93745W        W94610  28.858  15.588  17.844
93746W        W94611  27.743  17.287  16.062
93747W        W94612  26.999  17.878  15.675
93748W        W94613  26.114  15.058  14.933
93749W        W94614  27.218  14.712  16.743
93750W        W94615  26.246  17.832  14.591
93751W        W94616  26.620  16.298  15.342
93752W        W94617  27.274  16.927  17.655
93753W        W94618  27.104  15.285  15.645
93754W        W94619  28.460  14.882  16.073
93755W        W94620  28.180  18.164  16.401
93756W        W94621  27.592  17.812  16.741
93757W        W94622  26.988  16.849  16.702
93758W        W94623  28.758  17.572  16.828
93759W        W94624  26.452  15.075  15.597
93760W        W94625  26.974  17.372  16.557
93761W        W94626  26.457  15.303  14.622
93762W        W94627  27.258  15.912  17.016
93763W        W94628  28.106  14.778  16.886
93764W        W94629  25.526  16.621  16.771
93765W        W94630  27.230  16.439  14.929
93766W        W94631  26.498  14.754  14.699
93767W        W94632  27.236  15.835  15.750
93768W        W94633  28.206  14.811  17.449
93769W        W94634  26.794  16.823  17.558
93770W        W94635  27.598  16.605  17.775
93771W        W94636  28.215  16.635  17.668
93772W        W94637  27.499  14.775  18.173
93773W        W94638  26.721  15.391  16.566
93774W        W94639  26.147  15.347  15.964
93775W        W94640  25.933  18.059  15.640
93776W        W94641  27.265  17.389  17.765
93777W        W94642  26.300  16.874  15.124
93778W        W94643  27.980  16.259  16.345
93779W        W94644  28.260  16.058  16.744
93780W        W94645  27.465  16.732  16.678
93781W        W94646  27.935  17.106  14.810
93782W        W94647  27.607  15.127  16.138
93783W        W94648  29.086  15.405  15.406
93784W        W94649  25.580  17.994  17.437
93785W        W94650  25.997  17.220  16.969
93786W        W94651  25.564  18.066  15.201
93787W        W94652  27.463  15.336  17.007
93788W        W94653  26.826  17.359  14.856
93789W        W94654  28.731  17.741  15.042
93790W        W94655  27.706  16.394  15.056
93791W        W94656  26.549  15.585  15.573
93792W        W94657  27.381  15.495  14.625
93793W        W94658  27.965  17.060  17.803
93794W        W94659  28.318  14.966  15.420
93795W        W94660  25.648  14.814  14.868
93796W        W94661  26.934  17.133  17.158
93797W        W94662  26.733  17.049  16.250
93798W        W94663  26.475  17.001  14.648
93799W        W94664  25.716  17.242  15.416
93800W        W94665  26.220  16.312  17.858
93801W        W94666  26.924  14.872  18.044
93802W        W94667  27.633  15.014  17.400
93803W        W94668  26.828  14.782  15.681
93804W        W94669  27.887  14.859  15.186
93805W        W94670  25.832  14.791  16.763
93806W        W94671  25.880  15.754  16.133
93807W        W94672  28.569  14.862  16.539
93808W        W94673  25.991  15.360  15.353
93809W        W94674  28.562  15.048  16.969
93810W        W94675  28.958  16.251  14.654
93811W        W94676  26.250  15.009  16.473
93812W        W94677  27.364  15.581  17.413
93813W        W94678  25.512  15.271  14.891
93814W        W94679  26.298  16.660  17.452
93815W        W94680  27.656  16.058  16.631
93816W        W94681  27.523  18.137  14.927
93817W        W94682  25.669  16.644  14.624
93818W        W94683  26.404  17.055  17.750
93819W        W94684  25.925  16.222  17.381
93820W        W94685  26.916  16.327  17.175
93821W        W94686  28.684  14.686  17.437
93822W        W94687  29.082  16.296  17.428
93823W        W94688  29.070  16.496  15.114
93824W        W94689  27.933  16.828  15.213
93825W        W94690  28.407  18.128  14.908
93826W        W94691  27.584  16.118  18.050
93827W        W94692  25.914  17.085  18.090
93828W        W94693  29.120  15.007  18.042
93829W        W94694  28.838  15.935  16.663
93830W        W94695  27.146  18.065  18.140
93831W        W94696  27.001  14.694  14.867
93832W        W94697  28.540  17.293  14.810
93833W        W94698  26.309  15.386  17.696
93834W        W94699  26.743  17.380  17.558
93835W        W94700  28.869  15.371  17.356
93836W        W94701  28.080  18.030  15.324
93837W        W94702  28.319  16.649  16.691
93838W        W94703  26.569  15.065  17.358
93839W        W94704  27.038  16.134  18.115
93840W        W94705  26.541  17.313  15.309
93841W        W94706  28.296  16.811  15.573
93842W        W94707  26.064  15.437  17.297
93843W        W94708  27.393  17.499  15.761
93844W        W94709  29.143  16.059  15.942
93845W        W94710  27.365  14.692  17.661
93846W        W94711  28.145  17.397  16.740
93847W        W94712  28.448  17.741  16.448
93848W        W94713  27.667  17.543  14.876
93849W        W94714  25.677  17.435  17.718
93850W        W94715  26.420  15.427  16.956
93851W        W94716  26.390  14.775  16.066
93852W        W94717  28.011  15.617  16.758
93853W        W94718  26.809  16.788  14.958
93854W        W94719  28.807  16.730  16.457
93855W        W94720  26.134  17.488  17.880
93856W        W94721  28.521  18.170  15.677
93857W        W94722  26.620  15.190  16.122
93858W        W94723  26.389  16.683  16.212
93859W        W94724  26.702  18.094  16.962
93860W        W94725  28.769  18.190  17.994
93861W        W94726  27.928  16.378  16.927
93862W        W94727  25.777  16.176  14.842
93863W        W94728  28.911  17.834  15.539
93864W        W94729  28.748  15.158  15.158
93865W        W94730  26.887  14.677  17.561
93866W        W94731  28.593  17.479  16.019
93867W        W94732  28.622  16.035  15.924
93868W        W94733  26.739  15.708  16.140
93869W        W94734  26.984  15.970  17.464
93870W        W94735  28.095  17.123  17.327
93871W        W94736  26.745  15.577  17.439
93872W        W94737  26.724  18.043  16.055
93873W        W94738  26.041  18.002  17.689
93874W        W94739  26.153  17.363  14.819
93875W        W94740  28.670  17.121  15.629
93876W        W94741  26.274  15.913  17.515
93877W        W94742  29.047  15.843  14.996
93878W        W94743  26.792  16.900  15.467
93879W        W94744  27.891  16.282  17.548
93880W        W94745  27.782  15.910  17.092
93881W        W94746  26.342  16.282  17.121
93882W        W94747  28.552  18.170  16.950
93883W        W94748  28.343  14.804  17.944
93884W        W94749  26.007  14.954  17.531
93885W        W94750  26.346  15.977  16.584
93886W        W94751  26.715  15.791  14.706
93887W        W94752  25.518  17.550  17.251
93888W        W94753  27.103  16.259  16.694
93889W        W94754  26.926  15.284  14.799
93890W        W94755  26.061  16.100  15.580
93891W        W94756  25.832  17.952  17.017
93892W        W94757  28.627  16.178  15.125
93893W        W94758  28.722  15.094  17.811
93894W        W94759  28.158  17.303  15.774
93895W        W94760  25.756  16.227  17.951
93896W        W94761  28.722  14.691  15.247
93897W        W94762  28.242  17.166  15.258
93898W        W94763  27.144  16.224  15.343
93899W        W94764  28.331  15.028  14.866
93900W        W94765  28.396  15.635  17.052
93901W        W94766  26.105  16.228  16.259
93902W        W94767  26.399  17.167  15.908
93903W        W94768  28.162  15.787  15.873
93904W        W94769  27.185  15.166  16.569
93905W        W94770  29.147  17.077  17.080
93906W        W94771  29.065  15.064  16.641
93907W        W94772  25.604  17.894  16.017
93908W        W94773  26.113  17.081  15.553
93909W        W94774  26.028  14.698  18.106
93910W        W94775  27.147  17.551  18.208
93911W        W94776  28.902  16.519  15.998
93912W        W94777  28.256  16.696  14.878
93913W        W94778  27.551  18.217  17.090
93914W        W94779  28.408  16.939  18.127
93915W        W94780  27.223  14.649  15.407
93916W        W94781  27.936  15.518  16.266
93917W        W94782  25.622  17.105  16.598
93918W        W94783  26.875  15.067  15.239
93919W        W94784  26.679  16.551  18.088
93920W        W94785  27.673  15.532  15.802
93921W        W94786  27.878  16.942  16.924
93922W        W94787  26.032  17.547  17.359
93923W        W94788  26.623  17.530  18.082
93924W        W94789  26.474  15.327  15.096
93925W        W94790  27.991  15.469  15.421
93926W        W94791  27.949  17.577  17.658
93927W        W94792  26.634  16.169  16.257
93928W        W94793  26.289  17.867  17.122
93929W        W94794  29.034  17.984  14.723
93930W        W94795  25.897  16.656  17.719
93931W        W94796  27.892  16.918  16.407
93932W        W94797  26.328  16.567  15.649
93933W        W94798  26.699  17.574  17.044
93934W        W94799  27.077  14.993  16.085
93935W        W94800  25.688  16.977  15.015
93936W        W94801  27.207  15.928  14.885
93937W        W94802  25.853  16.477  15.904
93938W        W94803  27.143  15.119  17.368
93939W        W94804  28.815  14.828  14.795
93940W        W94805  28.908  16.574  17.894
93941W        W94806  27.562  17.831  18.046
93942W        W94807  29.120  16.925  17.568
93943W        W94808  28.528  17.723  18.179
93944W        W94809  26.267  18.179  16.657
93945W        W94810  29.126  16.801  15.531
93946W        W94811  27.656  16.068  16.044
93947W        W94812  27.423  14.680  15.934
93948W        W94813  26.482  17.664  15.771
93949W        W94814  26.981  15.405  16.996
93950W        W94815  26.681  14.774  16.465
93951W        W94816  25.744  17.596  15.013
93952W        W94817  27.560  16.960  15.731
93953W        W94818  26.435  17.755  17.610
93954W        W94819  25.912  16.578  15.306
93955W        W94820  25.797  15.121  16.305
93956W        W94821  27.345  17.086  16.362
93957W        W94822  25.597  14.940  15.382
93958W        W94823  28.261  16.146  17.309
93959W        W94824  28.138  15.532  14.881
93960W        W94825  28.655  17.204  16.529
93961W        W94826  27.316  17.688  16.360
93962W        W94827  26.728  17.792  15.271
93963W        W94828  28.010  14.695  14.701
93964W        W94829  25.810  17.955  16.442
93965W        W94830  28.007  15.713  18.077
93966W        W94831  25.990  15.243  18.076
93967W        W94832  25.721  15.843  15.409
93968W        W94833  26.412  15.832  15.134
93969W        W94834  28.175  16.159  17.951
93970W        W94835  26.518  16.440  16.660
93971W        W94836  27.992  14.726  15.780
93972W        W94837  27.123  18.157  16.283
93973W        W94838  28.337  17.619  17.220
93974W        W94839  27.921  17.768  16.331
93975W        W94840  27.940  16.748  15.925
93976W        W94841  27.402  14.973  14.996
93977W        W94842  29.083  14.601  15.718
93978W        W94843  26.771  16.236  14.881
93979W        W94844  28.937  15.573  15.871
93980W        W94845  27.629  16.743  14.748
93981W        W94846  28.565  16.943  17.496
93982W        W94847  28.219  17.644  14.963
93983W        W94848  26.834  15.319  17.869
93984W        W94849  26.654  15.903  17.110
93985W        W94850  28.746  17.398  17.387
93986W        W94851  27.846  15.348  17.764
93987W        W94852  25.690  15.819  17.541
93988W        W94853  27.450  16.296  17.267
93989W        W94854  25.807  17.054  15.924
93990W        W94855  25.954  16.351  16.814
93991W        W94856  28.271  16.637  17.164
93992W        W94857  28.043  18.017  17.975
93993W        W94858  27.939  15.756  17.528
93994W        W94859  28.216  17.810  15.933
93995W        W94860  27.218  17.530  17.256
93996W        W94861  26.703  17.885  16.525
93997W        W94862  28.508  17.056  16.944
93998W        W94863  27.558  17.128  18.081
93999W        W94864  26.163  17.081  16.420
94000W        W94865  28.509  16.840  16.065
94001W        W94866  28.150  17.906  16.816
94002W        W94867  26.128  17.635  16.686
94003W        W94868  27.149  15.687  17.896
94004W        W94869  27.600  17.853  15.407
94005W        W94870  26.908  17.108  18.045
94006W        W94871  27.034  17.346  15.422
94007W        W94872  26.255  16.086  14.681
94008W        W94873  25.594  18.172  21.580
94009W        W94874  25.970  17.065  21.103
94010W        W94875  28.675  16.795  18.873
94011W        W94876  28.805  17.880  20.900
94012W        W94877  26.723  17.871  18.426
94013W        W94878  26.806  16.023  19.409
94014W        W94879  26.321  15.871  19.573
94015W        W94880  27.312  16.686  19.007
94016W        W94881  26.987  17.778  21.362
94017W        W94882  25.636  15.339  21.325
94018W        W94883  26.398  14.619  21.127
94019W        W94884  28.092  15.007  20.014
94020W        W94885  27.741  15.878  18.584
94021W        W94886  28.311  15.312  21.675
94022W        W94887  25.677  15.104  20.800
94023W        W94888  25.776  17.723  21.821
94024W        W94889  27.298  17.113  18.553
94025W        W94890  25.730  15.896  20.246
94026W        W94891  26.623  15.787  21.483
94027W        W94892  29.082  15.646  19.982
94028W        W94893  28.846  16.689  20.841
94029W        W94894  27.154  16.022  19.868
94030W        W94895  27.700  17.361  20.237
94031W        W94896  26.200  16.795  20.469
94032W        W94897  25.559  16.323  20.040
94033W        W94898  26.595  16.295  21.232
94034W        W94899  28.866  16.078  21.486
94035W        W94900  26.482  17.522  19.931
94036W        W94901  27.603  17.211  21.065
94037W        W94902  26.823  15.851  20.290
94038W        W94903  27.115  16.635  19.933
94039W        W94904  28.112  17.408  21.781
94040W        W94905  27.191  16.728  21.791
94041W        W94906  27.172  16.444  21.269
94042W        W94907  25.581  15.835  21.791
94043W        W94908  28.413  17.370  21.390
94044W        W94909  25.994  14.952  19.388
94045W        W94910  26.521  17.210  20.387
94046W        W94911  28.984  16.993  19.677
94047W        W94912  28.397  15.393  20.244
94048W        W94913  28.682  15.346  18.339
94049W        W94914  29.147  16.147  20.645
94050W        W94915  27.114  17.854  20.398
94051W        W94916  28.888  17.320  18.836
94052W        W94917  26.017  18.106  18.590
94053W        W94918  26.410  18.152  19.266
94054W        W94919  26.207  14.906  20.692
94055W        W94920  28.830  15.924  20.967
94056W        W94921  28.235  16.346  19.426
94057W        W94922  28.201  16.034  18.453
94058W        W94923  27.409  17.178  20.593
94059W        W94924  27.215  15.508  19.792
94060W        W94925  27.815  17.595  20.786
94061W        W94926  28.686  16.386  19.208
94062W        W94927  27.588  15.044  19.224
94063W        W94928  26.245  17.738  18.907
94064W        W94929  25.616  15.237  19.506
94065W        W94930  28.402  15.844  19.980
94066W        W94931  25.860  17.461  19.895
94067W        W94932  27.201  17.811  18.765
94068W        W94933  28.593  15.837  18.229
94069W        W94934  25.616  17.595  20.393
94070W        W94935  26.407  17.167  20.873
94071W        W94936  26.780  16.527  19.492
94072W        W94937  26.802  14.932  20.585
94073W        W94938  29.031  14.694  19.882
94074W        W94939  26.250  16.566  18.350
94075W        W94940  25.905  15.599  18.529
94076W        W94941  25.967  17.555  19.323
94077W        W94942  27.098  17.038  19.571
94078W        W94943  28.430  17.897  21.285
94079W        W94944  27.356  15.539  18.969
94080W        W94945  28.739  17.937  19.741
94081W        W94946  28.416  15.790  21.339
94082W        W94947  29.129  17.446  19.473
94083W        W94948  27.756  16.738  20.957
94084W        W94949  25.522  16.289  19.163
94085W        W94950  26.633  16.704  20.736
94086W        W94951  27.837  15.968  19.114
94087W        W94952  27.714  16.458  19.218
94088W        W94953  26.057  15.878  20.692
94089W        W94954  26.042  15.754  21.614
94090W        W94955  25.932  14.671  19.773
94091W        W94956  27.700  15.018  20.334
94092W        W94957  27.348  15.203  21.497
94093W        W94958  27.703  15.352  18.675
94094W        W94959  28.886  17.745  21.429
94095W        W94960  27.853  14.826  21.468
94096W        W94961  28.872  17.127  21.590
94097W        W94962  28.302  15.294  21.186
94098W        W94963  28.102  15.232  19.456
94099W        W94964  28.495  16.366  21.860
94100W        W94965  26.235  17.942  19.846
94101W        W94966  26.893  15.659  18.832
94102W        W94967  26.462  14.943  21.496
94103W        W94968  28.514  15.427  19.177
94104W        W94969  28.881  15.909  19.122
94105W        W94970  26.624  18.126  21.593
94106W        W94971  26.550  14.662  18.828
94107W        W94972  28.871  15.196  19.863
94108W        W94973  29.021  17.445  18.308
94109W        W94974  25.928  16.648  20.010
94110W        W94975  27.845  15.235  18.240
94111W        W94976  28.979  17.567  19.960
94112W        W94977  29.018  14.761  20.710
94113W        W94978  27.463  15.973  21.264
94114W        W94979  27.556  17.312  18.967
94115W        W94980  27.956  16.606  21.707
94116W        W94981  27.630  14.583  20.016
94117W        W94982  26.242  15.486  20.079
94118W        W94983  25.796  16.686  20.853
94119W        W94984  27.655  17.879  19.559
94120W        W94985  28.849  15.476  20.431
94121W        W94986  27.486  17.823  21.198
94122W        W94987  28.829  16.882  18.403
94123W        W94988  27.264  16.365  19.464
94124W        W94989  29.116  14.876  21.205
94125W        W94990  27.265  16.711  20.799
94126W        W94991  27.482  15.597  20.244
94127W        W94992  28.334  15.895  19.082
94128W        W94993  28.621  15.628  18.724
94129W        W94994  28.430  17.668  19.113
94130W        W94995  28.264  17.271  19.909
94131W        W94996  28.160  16.350  18.887
94132W        W94997  27.593  16.560  19.873
94133W        W94998  28.474  16.348  19.940
94134W        W94999  25.849  15.363  20.364
94135W        W95000  28.627  16.415  21.191
94136W        W95001  28.978  18.033  20.337
94137W        W95002  26.908  17.477  19.739
94138W        W95003  27.915  18.010  21.063
94139W        W95004  27.909  15.340  20.827
94140W        W95005  27.116  18.048  20.888
94141W        W95006  28.813  15.002  19.354
94142W        W95007  28.604  16.321  20.655
94143W        W95008  25.587  15.642  20.693
94144W        W95009  28.447  15.437  19.711
94145W        W95010  28.858  15.588  21.488
94146W        W95011  27.743  17.287  19.706
94147W        W95012  26.999  17.878  19.319
94148W        W95013  26.114  15.058  18.577
94149W        W95014  27.218  14.712  20.387
94150W        W95015  26.246  17.832  18.235
94151W        W95016  26.620  16.298  18.986
94152W        W95017  27.274  16.927  21.299
94153W        W95018  27.104  15.285  19.289
94154W        W95019  28.460  14.882  19.717
94155W        W95020  28.180  18.164  20.045
94156W        W95021  27.592  17.812  20.385
94157W        W95022  26.988  16.849  20.346
94158W        W95023  28.758  17.572  20.472
94159W        W95024  26.452  15.075  19.241
94160W        W95025  26.974  17.372  20.201
94161W        W95026  26.457  15.303  18.266
94162W        W95027  27.258  15.912  20.660
94163W        W95028  28.106  14.778  20.530
94164W        W95029  25.526  16.621  20.415
94165W        W95030  27.230  16.439  18.573
94166W        W95031  26.498  14.754  18.343
94167W        W95032  27.236  15.835  19.394
94168W        W95033  28.206  14.811  21.093
94169W        W95034  26.794  16.823  21.202
94170W        W95035  27.598  16.605  21.419
94171W        W95036  28.215  16.635  21.312
94172W        W95037  27.499  14.775  21.817
94173W        W95038  26.721  15.391  20.210
94174W        W95039  26.147  15.347  19.608
94175W        W95040  25.933  18.059  19.284
94176W        W95041  27.265  17.389  21.409
94177W        W95042  26.300  16.874  18.768
94178W        W95043  27.980  16.259  19.989
94179W        W95044  28.260  16.058  20.388
94180W        W95045  27.465  16.732  20.322
94181W        W95046  27.935  17.106  18.454
94182W        W95047  27.607  15.127  19.782
94183W        W95048  29.086  15.405  19.050
94184W        W95049  25.580  17.994  21.081
94185W        W95050  25.997  17.220  20.613
94186W        W95051  25.564  18.066  18.845
94187W        W95052  27.463  15.336  20.651
94188W        W95053  26.826  17.359  18.500
94189W        W95054  28.731  17.741  18.686
94190W        W95055  27.706  16.394  18.700
94191W        W95056  26.549  15.585  19.217
94192W        W95057  27.381  15.495  18.269
94193W        W95058  27.965  17.060  21.447
94194W        W95059  28.318  14.966  19.064
94195W        W95060  25.648  14.814  18.512
94196W        W95061  26.934  17.133  20.802
94197W        W95062  26.733  17.049  19.894
94198W        W95063  26.475  17.001  18.292
94199W        W95064  25.716  17.242  19.060
94200W        W95065  26.220  16.312  21.502
94201W        W95066  26.924  14.872  21.688
94202W        W95067  27.633  15.014  21.044
94203W        W95068  26.828  14.782  19.325
94204W        W95069  27.887  14.859  18.830
94205W        W95070  25.832  14.791  20.407
94206W        W95071  25.880  15.754  19.777
94207W        W95072  28.569  14.862  20.183
94208W        W95073  25.991  15.360  18.997
94209W        W95074  28.562  15.048  20.613
94210W        W95075  28.958  16.251  18.298
94211W        W95076  26.250  15.009  20.117
94212W        W95077  27.364  15.581  21.057
94213W        W95078  25.512  15.271  18.535
94214W        W95079  26.298  16.660  21.096
94215W        W95080  27.656  16.058  20.275
94216W        W95081  27.523  18.137  18.571
94217W        W95082  25.669  16.644  18.268
94218W        W95083  26.404  17.055  21.394
94219W        W95084  25.925  16.222  21.025
94220W        W95085  26.916  16.327  20.819
94221W        W95086  28.684  14.686  21.081
94222W        W95087  29.082  16.296  21.072
94223W        W95088  29.070  16.496  18.758
94224W        W95089  27.933  16.828  18.857
94225W        W95090  28.407  18.128  18.552
94226W        W95091  27.584  16.118  21.694
94227W        W95092  25.914  17.085  21.734
94228W        W95093  29.120  15.007  21.686
94229W        W95094  28.838  15.935  20.307
94230W        W95095  27.146  18.065  21.784
94231W        W95096  27.001  14.694  18.511
94232W        W95097  28.540  17.293  18.454
94233W        W95098  26.309  15.386  21.340
94234W        W95099  26.743  17.380  21.202
94235W        W95100  28.869  15.371  21.000
94236W        W95101  28.080  18.030  18.968
94237W        W95102  28.319  16.649  20.335
94238W        W95103  26.569  15.065  21.002
94239W        W95104  27.038  16.134  21.759
94240W        W95105  26.541  17.313  18.953
94241W        W95106  28.296  16.811  19.217
94242W        W95107  26.064  15.437  20.941
94243W        W95108  27.393  17.499  19.405
94244W        W95109  29.143  16.059  19.586
94245W        W95110  27.365  14.692  21.305
94246W        W95111  28.145  17.397  20.384
94247W        W95112  28.448  17.741  20.092
94248W        W95113  27.667  17.543  18.520
94249W        W95114  25.677  17.435  21.362
94250W        W95115  26.420  15.427  20.600
94251W        W95116  26.390  14.775  19.710
94252W        W95117  28.011  15.617  20.402
94253W        W95118  26.809  16.788  18.602
94254W        W95119  28.807  16.730  20.101
94255W        W95120  26.134  17.488  21.524
94256W        W95121  28.521  18.170  19.321
94257W        W95122  26.620  15.190  19.766
94258W        W95123  26.389  16.683  19.856
94259W        W95124  26.702  18.094  20.606
94260W        W95125  28.769  18.190  21.638
94261W        W95126  27.928  16.378  20.571
94262W        W95127  25.777  16.176  18.486
94263W        W95128  28.911  17.834  19.183
94264W        W95129  28.748  15.158  18.802
94265W        W95130  26.887  14.677  21.205
94266W        W95131  28.593  17.479  19.663
94267W        W95132  28.622  16.035  19.568
94268W        W95133  26.739  15.708  19.784
94269W        W95134  26.984  15.970  21.108
94270W        W95135  28.095  17.123  20.971
94271W        W95136  26.745  15.577  21.083
94272W        W95137  26.724  18.043  19.699
94273W        W95138  26.041  18.002  21.333
94274W        W95139  26.153  17.363  18.463
94275W        W95140  28.670  17.121  19.273
94276W        W95141  26.274  15.913  21.159
94277W        W95142  29.047  15.843  18.640
94278W        W95143  26.792  16.900  19.111
94279W        W95144  27.891  16.282  21.192
94280W        W95145  27.782  15.910  20.736
94281W        W95146  26.342  16.282  20.765
94282W        W95147  28.552  18.170  20.594
94283W        W95148  28.343  14.804  21.588
94284W        W95149  26.007  14.954  21.175
94285W        W95150  26.346  15.977  20.228
94286W        W95151  26.715  15.791  18.350
94287W        W95152  25.518  17.550  20.895
94288W        W95153  27.103  16.259  20.338
94289W        W95154  26.926  15.284  18.443
94290W        W95155  26.061  16.100  19.224
94291W        W95156  25.832  17.952  20.661
94292W        W95157  28.627  16.178  18.769
94293W        W95158  28.722  15.094  21.455
94294W        W95159  28.158  17.303  19.418
94295W        W95160  25.756  16.227  21.595
94296W        W95161  28.722  14.691  18.891
94297W        W95162  28.242  17.166  18.902
94298W        W95163  27.144  16.224  18.987
94299W        W95164  28.331  15.028  18.510
94300W        W95165  28.396  15.635  20.696
94301W        W95166  26.105  16.228  19.903
94302W        W95167  26.399  17.167  19.552
94303W        W95168  28.162  15.787  19.517
94304W        W95169  27.185  15.166  20.213
94305W        W95170  29.147  17.077  20.724
94306W        W95171  29.065  15.064  20.285
94307W        W95172  25.604  17.894  19.661
94308W        W95173  26.113  17.081  19.197
94309W        W95174  26.028  14.698  21.750
94310W        W95175  27.147  17.551  21.852
94311W        W95176  28.902  16.519  19.642
94312W        W95177  28.256  16.696  18.522
94313W        W95178  27.551  18.217  20.734
94314W        W95179  28.408  16.939  21.771
94315W        W95180  27.223  14.649  19.051
94316W        W95181  27.936  15.518  19.910
94317W        W95182  25.622  17.105  20.242
94318W        W95183  26.875  15.067  18.883
94319W        W95184  26.679  16.551  21.732
94320W        W95185  27.673  15.532  19.446
94321W        W95186  27.878  16.942  20.568
94322W        W95187  26.032  17.547  21.003
94323W        W95188  26.623  17.530  21.726
94324W        W95189  26.474  15.327  18.740
94325W        W95190  27.991  15.469  19.065
94326W        W95191  27.949  17.577  21.302
94327W        W95192  26.634  16.169  19.901
94328W        W95193  26.289  17.867  20.766
94329W        W95194  29.034  17.984  18.367
94330W        W95195  25.897  16.656  21.363
94331W        W95196  27.892  16.918  20.051
94332W        W95197  26.328  16.567  19.293
94333W        W95198  26.699  17.574  20.688
94334W        W95199  27.077  14.993  19.729
94335W        W95200  25.688  16.977  18.659
94336W        W95201  27.207  15.928  18.529
94337W        W95202  25.853  16.477  19.548
94338W        W95203  27.143  15.119  21.012
94339W        W95204  28.815  14.828  18.439
94340W        W95205  28.908  16.574  21.538
94341W        W95206  27.562  17.831  21.690
94342W        W95207  29.120  16.925  21.212
94343W        W95208  28.528  17.723  21.823
94344W        W95209  26.267  18.179  20.301
94345W        W95210  29.126  16.801  19.175
94346W        W95211  27.656  16.068  19.688
94347W        W95212  27.423  14.680  19.578
94348W        W95213  26.482  17.664  19.415
94349W        W95214  26.981  15.405  20.640
94350W        W95215  26.681  14.774  20.109
94351W        W95216  25.744  17.596  18.657
94352W        W95217  27.560  16.960  19.375
94353W        W95218  26.435  17.755  21.254
94354W        W95219  25.912  16.578  18.950
94355W        W95220  25.797  15.121  19.949
94356W        W95221  27.345  17.086  20.006
94357W        W95222  25.597  14.940  19.026
94358W        W95223  28.261  16.146  20.953
94359W        W95224  28.138  15.532  18.525
94360W        W95225  28.655  17.204  20.173
94361W        W95226  27.316  17.688  20.004
94362W        W95227  26.728  17.792  18.915
94363W        W95228  28.010  14.695  18.345
94364W        W95229  25.810  17.955  20.086
94365W        W95230  28.007  15.713  21.721
94366W        W95231  25.990  15.243  21.720
94367W        W95232  25.721  15.843  19.053
94368W        W95233  26.412  15.832  18.778
94369W        W95234  28.175  16.159  21.595
94370W        W95235  26.518  16.440  20.304
94371W        W95236  27.992  14.726  19.424
94372W        W95237  27.123  18.157  19.927
94373W        W95238  28.337  17.619  20.864
94374W        W95239  27.921  17.768  19.975
94375W        W95240  27.940  16.748  19.569
94376W        W95241  27.402  14.973  18.640
94377W        W95242  29.083  14.601  19.362
94378W        W95243  26.771  16.236  18.525
94379W        W95244  28.937  15.573  19.515
94380W        W95245  27.629  16.743  18.392
94381W        W95246  28.565  16.943  21.140
94382W        W95247  28.219  17.644  18.607
94383W        W95248  26.834  15.319  21.513
94384W        W95249  26.654  15.903  20.754
94385W        W95250  28.746  17.398  21.031
94386W        W95251  27.846  15.348  21.408
94387W        W95252  25.690  15.819  21.185
94388W        W95253  27.450  16.296  20.911
94389W        W95254  25.807  17.054  19.568
94390W        W95255  25.954  16.351  20.458
94391W        W95256  28.271  16.637  20.808
94392W        W95257  28.043  18.017  21.619
94393W        W95258  27.939  15.756  21.172
94394W        W95259  28.216  17.810  19.577
94395W        W95260  27.218  17.530  20.900
94396W        W95261  26.703  17.885  20.169
94397W        W95262  28.508  17.056  20.588
94398W        W95263  27.558  17.128  21.725
94399W        W95264  26.163  17.081  20.064
94400W        W95265  28.509  16.840  19.709
94401W        W95266  28.150  17.906  20.460
94402W        W95267  26.128  17.635  20.330
94403W        W95268  27.149  15.687  21.540
94404W        W95269  27.600  17.853  19.051
94405W        W95270  26.908  17.108  21.689
94406W        W95271  27.034  17.346  19.066
94407W        W95272  26.255  16.086  18.325
94408W        W95273  25.594  18.172  25.225
94409W        W95274  25.970  17.065  24.748
94410W        W95275  28.675  16.795  22.518
94411W        W95276  28.805  17.880  24.545
94412W        W95277  26.723  17.871  22.071
94413W        W95278  26.806  16.023  23.054
94414W        W95279  26.321  15.871  23.218
94415W        W95280  27.312  16.686  22.652
94416W        W95281  26.987  17.778  25.007
94417W        W95282  25.636  15.339  24.970
94418W        W95283  26.398  14.619  24.772
94419W        W95284  28.092  15.007  23.659
94420W        W95285  27.741  15.878  22.229
94421W        W95286  28.311  15.312  25.320
94422W        W95287  25.677  15.104  24.445
94423W        W95288  25.776  17.723  25.466
94424W        W95289  27.298  17.113  22.198
94425W        W95290  25.730  15.896  23.891
94426W        W95291  26.623  15.787  25.128
94427W        W95292  29.082  15.646  23.627
94428W        W95293  28.846  16.689  24.486
94429W        W95294  27.154  16.022  23.513
94430W        W95295  26.200  16.795  24.114
94431W        W95296  25.559  16.323  23.685
94432W        W95297  26.595  16.295  24.877
94433W        W95298  28.866  16.078  25.131
94434W        W95299  26.482  17.522  23.576
94435W        W95300  27.603  17.211  24.710
94436W        W95301  26.823  15.851  23.935
94437W        W95302  27.115  16.635  23.578
94438W        W95303  28.112  17.408  25.426
94439W        W95304  27.191  16.728  25.436
94440W        W95305  27.172  16.444  24.914
94441W        W95306  25.581  15.835  25.436
94442W        W95307  28.413  17.370  25.035
94443W        W95308  25.994  14.952  23.033
94444W        W95309  26.521  17.210  24.032
94445W        W95310  28.984  16.993  23.322
94446W        W95311  28.397  15.393  23.889
94447W        W95312  28.682  15.346  21.984
94448W        W95313  29.147  16.147  24.290
94449W        W95314  27.114  17.854  24.043
94450W        W95315  28.888  17.320  22.481
94451W        W95316  26.017  18.106  22.235
94452W        W95317  26.410  18.152  22.911
94453W        W95318  26.207  14.906  24.337
94454W        W95319  28.830  15.924  24.612
94455W        W95320  28.235  16.346  23.071
94456W        W95321  28.201  16.034  22.098
94457W        W95322  27.409  17.178  24.238
94458W        W95323  27.215  15.508  23.437
94459W        W95324  27.815  17.595  24.431
94460W        W95325  28.686  16.386  22.853
94461W        W95326  27.588  15.044  22.869
94462W        W95327  26.245  17.738  22.552
94463W        W95328  25.616  15.237  23.151
94464W        W95329  28.402  15.844  23.625
94465W        W95330  25.860  17.461  23.540
94466W        W95331  27.201  17.811  22.410
94467W        W95332  28.593  15.837  21.874
94468W        W95333  25.616  17.595  24.038
94469W        W95334  26.407  17.167  24.518
94470W        W95335  26.780  16.527  23.137
94471W        W95336  26.802  14.932  24.230
94472W        W95337  29.031  14.694  23.527
94473W        W95338  26.250  16.566  21.995
94474W        W95339  25.905  15.599  22.174
94475W        W95340  25.967  17.555  22.968
94476W        W95341  27.098  17.038  23.216
94477W        W95342  28.430  17.897  24.930
94478W        W95343  27.356  15.539  22.614
94479W        W95344  28.739  17.937  23.386
94480W        W95345  28.416  15.790  24.984
94481W        W95346  29.129  17.446  23.118
94482W        W95347  27.756  16.738  24.602
94483W        W95348  25.522  16.289  22.808
94484W        W95349  26.633  16.704  24.381
94485W        W95350  27.837  15.968  22.759
94486W        W95351  27.714  16.458  22.863
94487W        W95352  26.057  15.878  24.337
94488W        W95353  26.042  15.754  25.259
94489W        W95354  25.932  14.671  23.418
94490W        W95355  27.700  15.018  23.979
94491W        W95356  27.348  15.203  25.142
94492W        W95357  27.703  15.352  22.320
94493W        W95358  28.886  17.745  25.074
94494W        W95359  27.853  14.826  25.113
94495W        W95360  28.872  17.127  25.235
94496W        W95361  28.302  15.294  24.831
94497W        W95362  28.102  15.232  23.101
94498W        W95363  28.495  16.366  25.505
94499W        W95364  26.235  17.942  23.491
94500W        W95365  26.893  15.659  22.477
94501W        W95366  26.462  14.943  25.141
94502W        W95367  28.514  15.427  22.822
94503W        W95368  28.881  15.909  22.767
94504W        W95369  26.624  18.126  25.238
94505W        W95370  26.550  14.662  22.473
94506W        W95371  28.871  15.196  23.508
94507W        W95372  29.021  17.445  21.953
94508W        W95373  25.928  16.648  23.655
94509W        W95374  27.845  15.235  21.885
94510W        W95375  28.979  17.567  23.605
94511W        W95376  29.018  14.761  24.355
94512W        W95377  27.463  15.973  24.909
94513W        W95378  27.556  17.312  22.612
94514W        W95379  27.956  16.606  25.352
94515W        W95380  27.630  14.583  23.661
94516W        W95381  26.242  15.486  23.724
94517W        W95382  25.796  16.686  24.498
94518W        W95383  27.655  17.879  23.204
94519W        W95384  28.849  15.476  24.076
94520W        W95385  27.486  17.823  24.843
94521W        W95386  28.829  16.882  22.048
94522W        W95387  27.264  16.365  23.109
94523W        W95388  29.116  14.876  24.850
94524W        W95389  27.265  16.711  24.444
94525W        W95390  27.482  15.597  23.889
94526W        W95391  28.334  15.895  22.727
94527W        W95392  28.621  15.628  22.369
94528W        W95393  28.430  17.668  22.758
94529W        W95394  28.264  17.271  23.554
94530W        W95395  28.160  16.350  22.532
94531W        W95396  27.593  16.560  23.518
94532W        W95397  28.474  16.348  23.585
94533W        W95398  25.849  15.363  24.009
94534W        W95399  28.627  16.415  24.836
94535W        W95400  28.978  18.033  23.982
94536W        W95401  26.908  17.477  23.384
94537W        W95402  27.915  18.010  24.708
94538W        W95403  27.909  15.340  24.472
94539W        W95404  27.116  18.048  24.533
94540W        W95405  28.813  15.002  22.999
94541W        W95406  28.604  16.321  24.300
94542W        W95407  25.587  15.642  24.338
94543W        W95408  28.447  15.437  23.356
94544W        W95409  28.858  15.588  25.133
94545W        W95410  27.743  17.287  23.351
94546W        W95411  26.999  17.878  22.964
94547W        W95412  26.114  15.058  22.222
94548W        W95413  27.218  14.712  24.032
94549W        W95414  26.246  17.832  21.880
94550W        W95415  26.620  16.298  22.631
94551W        W95416  27.274  16.927  24.944
94552W        W95417  27.104  15.285  22.934
94553W        W95418  28.460  14.882  23.362
94554W        W95419  28.180  18.164  23.690
94555W        W95420  27.592  17.812  24.030
94556W        W95421  26.988  16.849  23.991
94557W        W95422  28.758  17.572  24.117
94558W        W95423  26.452  15.075  22.886
94559W        W95424  26.974  17.372  23.846
94560W        W95425  26.457  15.303  21.911
94561W        W95426  27.258  15.912  24.305
94562W        W95427  28.106  14.778  24.175
94563W        W95428  25.526  16.621  24.060
94564W        W95429  27.230  16.439  22.218
94565W        W95430  26.498  14.754  21.988
94566W        W95431  27.236  15.835  23.039
94567W        W95432  28.206  14.811  24.738
94568W        W95433  26.794  16.823  24.847
94569W        W95434  27.598  16.605  25.064
94570W        W95435  28.215  16.635  24.957
94571W        W95436  27.499  14.775  25.462
94572W        W95437  26.721  15.391  23.855
94573W        W95438  26.147  15.347  23.253
94574W        W95439  25.933  18.059  22.929
94575W        W95440  27.265  17.389  25.054
94576W        W95441  26.300  16.874  22.413
94577W        W95442  27.980  16.259  23.634
94578W        W95443  28.260  16.058  24.033
94579W        W95444  27.465  16.732  23.967
94580W        W95445  27.935  17.106  22.099
94581W        W95446  27.607  15.127  23.427
94582W        W95447  29.086  15.405  22.695
94583W        W95448  25.580  17.994  24.726
94584W        W95449  25.997  17.220  24.258
94585W        W95450  25.564  18.066  22.490
94586W        W95451  27.463  15.336  24.296
94587W        W95452  26.826  17.359  22.145
94588W        W95453  28.731  17.741  22.331
94589W        W95454  27.706  16.394  22.345
94590W        W95455  26.549  15.585  22.862
94591W        W95456  27.381  15.495  21.914
94592W        W95457  27.965  17.060  25.092
94593W        W95458  28.318  14.966  22.709
94594W        W95459  25.648  14.814  22.157
94595W        W95460  26.934  17.133  24.447
94596W        W95461  26.733  17.049  23.539
94597W        W95462  26.475  17.001  21.937
94598W        W95463  25.716  17.242  22.705
94599W        W95464  26.220  16.312  25.147
94600W        W95465  26.924  14.872  25.333
94601W        W95466  27.633  15.014  24.689
94602W        W95467  26.828  14.782  22.970
94603W        W95468  27.887  14.859  22.475
94604W        W95469  25.832  14.791  24.052
94605W        W95470  25.880  15.754  23.422
94606W        W95471  28.569  14.862  23.828
94607W        W95472  25.991  15.360  22.642
94608W        W95473  28.562  15.048  24.258
94609W        W95474  28.958  16.251  21.943
94610W        W95475  26.250  15.009  23.762
94611W        W95476  27.364  15.581  24.702
94612W        W95477  25.512  15.271  22.180
94613W        W95478  26.298  16.660  24.741
94614W        W95479  27.656  16.058  23.920
94615W        W95480  27.523  18.137  22.216
94616W        W95481  25.669  16.644  21.913
94617W        W95482  26.404  17.055  25.039
94618W        W95483  25.925  16.222  24.670
94619W        W95484  26.916  16.327  24.464
94620W        W95485  28.684  14.686  24.726
94621W        W95486  29.082  16.296  24.717
94622W        W95487  29.070  16.496  22.403
94623W        W95488  27.933  16.828  22.502
94624W        W95489  28.407  18.128  22.197
94625W        W95490  27.584  16.118  25.339
94626W        W95491  25.914  17.085  25.379
94627W        W95492  29.120  15.007  25.331
94628W        W95493  28.838  15.935  23.952
94629W        W95494  27.146  18.065  25.429
94630W        W95495  27.001  14.694  22.156
94631W        W95496  28.540  17.293  22.099
94632W        W95497  26.309  15.386  24.985
94633W        W95498  26.743  17.380  24.847
94634W        W95499  28.869  15.371  24.645
94635W        W95500  28.080  18.030  22.613
94636W        W95501  28.319  16.649  23.980
94637W        W95502  26.569  15.065  24.647
94638W        W95503  27.038  16.134  25.404
94639W        W95504  26.541  17.313  22.598
94640W        W95505  28.296  16.811  22.862
94641W        W95506  26.064  15.437  24.586
94642W        W95507  27.393  17.499  23.050
94643W        W95508  29.143  16.059  23.231
94644W        W95509  27.365  14.692  24.950
94645W        W95510  28.145  17.397  24.029
94646W        W95511  28.448  17.741  23.737
94647W        W95512  27.667  17.543  22.165
94648W        W95513  25.677  17.435  25.007
94649W        W95514  26.420  15.427  24.245
94650W        W95515  26.390  14.775  23.355
94651W        W95516  28.011  15.617  24.047
94652W        W95517  26.809  16.788  22.247
94653W        W95518  28.807  16.730  23.746
94654W        W95519  26.134  17.488  25.169
94655W        W95520  28.521  18.170  22.966
94656W        W95521  26.620  15.190  23.411
94657W        W95522  26.389  16.683  23.501
94658W        W95523  26.702  18.094  24.251
94659W        W95524  28.769  18.190  25.283
94660W        W95525  27.928  16.378  24.216
94661W        W95526  25.777  16.176  22.131
94662W        W95527  28.911  17.834  22.828
94663W        W95528  28.748  15.158  22.447
94664W        W95529  26.887  14.677  24.850
94665W        W95530  28.593  17.479  23.308
94666W        W95531  28.622  16.035  23.213
94667W        W95532  26.739  15.708  23.429
94668W        W95533  26.984  15.970  24.753
94669W        W95534  28.095  17.123  24.616
94670W        W95535  26.745  15.577  24.728
94671W        W95536  26.724  18.043  23.344
94672W        W95537  26.041  18.002  24.978
94673W        W95538  26.153  17.363  22.108
94674W        W95539  28.670  17.121  22.918
94675W        W95540  26.274  15.913  24.804
94676W        W95541  29.047  15.843  22.285
94677W        W95542  26.792  16.900  22.756
94678W        W95543  27.891  16.282  24.837
94679W        W95544  27.782  15.910  24.381
94680W        W95545  26.342  16.282  24.410
94681W        W95546  28.552  18.170  24.239
94682W        W95547  28.343  14.804  25.233
94683W        W95548  26.007  14.954  24.820
94684W        W95549  26.346  15.977  23.873
94685W        W95550  26.715  15.791  21.995
94686W        W95551  25.518  17.550  24.540
94687W        W95552  27.103  16.259  23.983
94688W        W95553  26.926  15.284  22.088
94689W        W95554  26.061  16.100  22.869
94690W        W95555  25.832  17.952  24.306
94691W        W95556  28.627  16.178  22.414
94692W        W95557  28.722  15.094  25.100
94693W        W95558  28.158  17.303  23.063
94694W        W95559  25.756  16.227  25.240
94695W        W95560  28.722  14.691  22.536
94696W        W95561  28.242  17.166  22.547
94697W        W95562  27.144  16.224  22.632
94698W        W95563  28.331  15.028  22.155
94699W        W95564  28.396  15.635  24.341
94700W        W95565  26.105  16.228  23.548
94701W        W95566  26.399  17.167  23.197
94702W        W95567  28.162  15.787  23.162
94703W        W95568  27.185  15.166  23.858
94704W        W95569  29.147  17.077  24.369
94705W        W95570  29.065  15.064  23.930
94706W        W95571  25.604  17.894  23.306
94707W        W95572  26.113  17.081  22.842
94708W        W95573  26.028  14.698  25.395
94709W        W95574  27.147  17.551  25.497
94710W        W95575  28.902  16.519  23.287
94711W        W95576  28.256  16.696  22.167
94712W        W95577  27.551  18.217  24.379
94713W        W95578  28.408  16.939  25.416
94714W        W95579  27.223  14.649  22.696
94715W        W95580  27.936  15.518  23.555
94716W        W95581  25.622  17.105  23.887
94717W        W95582  26.875  15.067  22.528
94718W        W95583  26.679  16.551  25.377
94719W        W95584  27.673  15.532  23.091
94720W        W95585  27.878  16.942  24.213
94721W        W95586  26.032  17.547  24.648
94722W        W95587  26.623  17.530  25.371
94723W        W95588  26.474  15.327  22.385
94724W        W95589  27.991  15.469  22.710
94725W        W95590  27.949  17.577  24.947
94726W        W95591  26.634  16.169  23.546
94727W        W95592  26.289  17.867  24.411
94728W        W95593  29.034  17.984  22.012
94729W        W95594  25.897  16.656  25.008
94730W        W95595  27.892  16.918  23.696
94731W        W95596  26.328  16.567  22.938
94732W        W95597  26.699  17.574  24.333
94733W        W95598  27.077  14.993  23.374
94734W        W95599  25.688  16.977  22.304
94735W        W95600  27.207  15.928  22.174
94736W        W95601  25.853  16.477  23.193
94737W        W95602  27.143  15.119  24.657
94738W        W95603  28.815  14.828  22.084
94739W        W95604  28.908  16.574  25.183
94740W        W95605  27.562  17.831  25.335
94741W        W95606  29.120  16.925  24.857
94742W        W95607  28.528  17.723  25.468
94743W        W95608  26.267  18.179  23.946
94744W        W95609  29.126  16.801  22.820
94745W        W95610  27.656  16.068  23.333
94746W        W95611  27.423  14.680  23.223
94747W        W95612  26.482  17.664  23.060
94748W        W95613  26.981  15.405  24.285
94749W        W95614  26.681  14.774  23.754
94750W        W95615  25.744  17.596  22.302
94751W        W95616  27.560  16.960  23.020
94752W        W95617  26.435  17.755  24.899
94753W        W95618  25.912  16.578  22.595
94754W        W95619  25.797  15.121  23.594
94755W        W95620  27.345  17.086  23.651
94756W        W95621  25.597  14.940  22.671
94757W        W95622  28.261  16.146  24.598
94758W        W95623  28.138  15.532  22.170
94759W        W95624  28.655  17.204  23.818
94760W        W95625  27.316  17.688  23.649
94761W        W95626  26.728  17.792  22.560
94762W        W95627  28.010  14.695  21.990
94763W        W95628  25.810  17.955  23.731
94764W        W95629  28.007  15.713  25.366
94765W        W95630  25.990  15.243  25.365
94766W        W95631  25.721  15.843  22.698
94767W        W95632  26.412  15.832  22.423
94768W        W95633  28.175  16.159  25.240
94769W        W95634  26.518  16.440  23.949
94770W        W95635  27.992  14.726  23.069
94771W        W95636  27.123  18.157  23.572
94772W        W95637  28.337  17.619  24.509
94773W        W95638  27.921  17.768  23.620
94774W        W95639  27.940  16.748  23.214
94775W        W95640  27.402  14.973  22.285
94776W        W95641  29.083  14.601  23.007
94777W        W95642  26.771  16.236  22.170
94778W        W95643  28.937  15.573  23.160
94779W        W95644  27.629  16.743  22.037
94780W        W95645  28.565  16.943  24.785
94781W        W95646  28.219  17.644  22.252
94782W        W95647  26.834  15.319  25.158
94783W        W95648  26.654  15.903  24.399
94784W        W95649  28.746  17.398  24.676
94785W        W95650  27.846  15.348  25.053
94786W        W95651  25.690  15.819  24.830
94787W        W95652  27.450  16.296  24.556
94788W        W95653  25.807  17.054  23.213
94789W        W95654  25.954  16.351  24.103
94790W        W95655  28.271  16.637  24.453
94791W        W95656  28.043  18.017  25.264
94792W        W95657  27.939  15.756  24.817
94793W        W95658  28.216  17.810  23.222
94794W        W95659  27.218  17.530  24.545
94795W        W95660  26.703  17.885  23.814
94796W        W95661  28.508  17.056  24.233
94797W        W95662  27.558  17.128  25.370
94798W        W95663  26.163  17.081  23.709
94799W        W95664  28.509  16.840  23.354
94800W        W95665  28.150  17.906  24.105
94801W        W95666  26.128  17.635  23.975
94802W        W95667  27.149  15.687  25.185
94803W        W95668  27.600  17.853  22.696
94804W        W95669  26.908  17.108  25.334
94805W        W95670  27.034  17.346  22.711
94806W        W95671  26.255  16.086  21.970
94807W        W95672  25.594  18.172  28.869
94808W        W95673  25.970  17.065  28.392
94809W        W95674  28.675  16.795  26.162
94810W        W95675  28.805  17.880  28.189
94811W        W95676  26.723  17.871  25.715
94812W        W95677  26.806  16.023  26.698
94813W        W95678  26.321  15.871  26.862
94814W        W95679  27.312  16.686  26.296
94815W        W95680  26.987  17.778  28.651
94816W        W95681  25.636  15.339  28.614
94817W        W95682  26.398  14.619  28.416
94818W        W95683  28.092  15.007  27.303
94819W        W95684  27.741  15.878  25.873
94820W        W95685  28.311  15.312  28.964
94821W        W95686  25.677  15.104  28.089
94822W        W95687  25.776  17.723  29.110
94823W        W95688  27.298  17.113  25.842
94824W        W95689  25.730  15.896  27.535
94825W        W95690  26.623  15.787  28.772
94826W        W95691  29.082  15.646  27.271
94827W        W95692  28.846  16.689  28.130
94828W        W95693  27.154  16.022  27.157
94829W        W95694  27.700  17.361  27.526
94830W        W95695  26.200  16.795  27.758
94831W        W95696  25.559  16.323  27.329
94832W        W95697  26.595  16.295  28.521
94833W        W95698  28.866  16.078  28.775
94834W        W95699  26.482  17.522  27.220
94835W        W95700  27.603  17.211  28.354
94836W        W95701  26.823  15.851  27.579
94837W        W95702  27.115  16.635  27.222
94838W        W95703  28.112  17.408  29.070
94839W        W95704  27.191  16.728  29.080
94840W        W95705  27.172  16.444  28.558
94841W        W95706  25.581  15.835  29.080
94842W        W95707  28.413  17.370  28.679
94843W        W95708  25.994  14.952  26.677
94844W        W95709  26.521  17.210  27.676
94845W        W95710  28.984  16.993  26.966
94846W        W95711  28.397  15.393  27.533
94847W        W95712  28.682  15.346  25.628
94848W        W95713  29.147  16.147  27.934
94849W        W95714  27.114  17.854  27.687
94850W        W95715  28.888  17.320  26.125
94851W        W95716  26.017  18.106  25.879
94852W        W95717  26.410  18.152  26.555
94853W        W95718  26.207  14.906  27.981
94854W        W95719  28.830  15.924  28.256
94855W        W95720  28.235  16.346  26.715
94856W        W95721  28.201  16.034  25.742
94857W        W95722  27.409  17.178  27.882
94858W        W95723  27.215  15.508  27.081
94859W        W95724  27.815  17.595  28.075
94860W        W95725  28.686  16.386  26.497
94861W        W95726  27.588  15.044  26.513
94862W        W95727  26.245  17.738  26.196
94863W        W95728  25.616  15.237  26.795
94864W        W95729  28.402  15.844  27.269
94865W        W95730  25.860  17.461  27.184
94866W        W95731  27.201  17.811  26.054
94867W        W95732  28.593  15.837  25.518
94868W        W95733  25.616  17.595  27.682
94869W        W95734  26.407  17.167  28.162
94870W        W95735  26.780  16.527  26.781
94871W        W95736  26.802  14.932  27.874
94872W        W95737  29.031  14.694  27.171
94873W        W95738  26.250  16.566  25.639
94874W        W95739  25.905  15.599  25.818
94875W        W95740  25.967  17.555  26.612
94876W        W95741  27.098  17.038  26.860
94877W        W95742  28.430  17.897  28.574
94878W        W95743  27.356  15.539  26.258
94879W        W95744  28.739  17.937  27.030
94880W        W95745  28.416  15.790  28.628
94881W        W95746  29.129  17.446  26.762
94882W        W95747  27.756  16.738  28.246
94883W        W95748  25.522  16.289  26.452
94884W        W95749  26.633  16.704  28.025
94885W        W95750  27.837  15.968  26.403
94886W        W95751  27.714  16.458  26.507
94887W        W95752  26.057  15.878  27.981
94888W        W95753  26.042  15.754  28.903
94889W        W95754  25.932  14.671  27.062
94890W        W95755  27.700  15.018  27.623
94891W        W95756  27.348  15.203  28.786
94892W        W95757  27.703  15.352  25.964
94893W        W95758  28.886  17.745  28.718
94894W        W95759  27.853  14.826  28.757
94895W        W95760  28.872  17.127  28.879
94896W        W95761  28.302  15.294  28.475
94897W        W95762  28.102  15.232  26.745
94898W        W95763  28.495  16.366  29.149
94899W        W95764  26.235  17.942  27.135
94900W        W95765  26.893  15.659  26.121
94901W        W95766  26.462  14.943  28.785
94902W        W95767  28.514  15.427  26.466
94903W        W95768  28.881  15.909  26.411
94904W        W95769  26.624  18.126  28.882
94905W        W95770  26.550  14.662  26.117
94906W        W95771  28.871  15.196  27.152
94907W        W95772  29.021  17.445  25.597
94908W        W95773  25.928  16.648  27.299
94909W        W95774  27.845  15.235  25.529
94910W        W95775  28.979  17.567  27.249
94911W        W95776  29.018  14.761  27.999
94912W        W95777  27.463  15.973  28.553
94913W        W95778  27.556  17.312  26.256
94914W        W95779  27.956  16.606  28.996
94915W        W95780  27.630  14.583  27.305
94916W        W95781  26.242  15.486  27.368
94917W        W95782  25.796  16.686  28.142
94918W        W95783  27.655  17.879  26.848
94919W        W95784  28.849  15.476  27.720
94920W        W95785  27.486  17.823  28.487
94921W        W95786  28.829  16.882  25.692
94922W        W95787  27.264  16.365  26.753
94923W        W95788  29.116  14.876  28.494
94924W        W95789  27.265  16.711  28.088
94925W        W95790  27.482  15.597  27.533
94926W        W95791  28.334  15.895  26.371
94927W        W95792  28.621  15.628  26.013
94928W        W95793  28.430  17.668  26.402
94929W        W95794  28.264  17.271  27.198
94930W        W95795  28.160  16.350  26.176
94931W        W95796  27.593  16.560  27.162
94932W        W95797  28.474  16.348  27.229
94933W        W95798  25.849  15.363  27.653
94934W        W95799  28.627  16.415  28.480
94935W        W95800  28.978  18.033  27.626
94936W        W95801  26.908  17.477  27.028
94937W        W95802  27.915  18.010  28.352
94938W        W95803  27.909  15.340  28.116
94939W        W95804  27.116  18.048  28.177
94940W        W95805  28.813  15.002  26.643
94941W        W95806  28.604  16.321  27.944
94942W        W95807  25.587  15.642  27.982
94943W        W95808  28.447  15.437  27.000
94944W        W95809  28.858  15.588  28.777
94945W        W95810  27.743  17.287  26.995
94946W        W95811  26.999  17.878  26.608
94947W        W95812  26.114  15.058  25.866
94948W        W95813  27.218  14.712  27.676
94949W        W95814  26.246  17.832  25.524
94950W        W95815  26.620  16.298  26.275
94951W        W95816  27.274  16.927  28.588
94952W        W95817  27.104  15.285  26.578
94953W        W95818  28.460  14.882  27.006
94954W        W95819  28.180  18.164  27.334
94955W        W95820  27.592  17.812  27.674
94956W        W95821  26.988  16.849  27.635
94957W        W95822  28.758  17.572  27.761
94958W        W95823  26.452  15.075  26.530
94959W        W95824  26.974  17.372  27.490
94960W        W95825  26.457  15.303  25.555
94961W        W95826  27.258  15.912  27.949
94962W        W95827  28.106  14.778  27.819
94963W        W95828  25.526  16.621  27.704
94964W        W95829  27.230  16.439  25.862
94965W        W95830  26.498  14.754  25.632
94966W        W95831  27.236  15.835  26.683
94967W        W95832  28.206  14.811  28.382
94968W        W95833  26.794  16.823  28.491
94969W        W95834  27.598  16.605  28.708
94970W        W95835  28.215  16.635  28.601
94971W        W95836  27.499  14.775  29.106
94972W        W95837  26.721  15.391  27.499
94973W        W95838  26.147  15.347  26.897
94974W        W95839  25.933  18.059  26.573
94975W        W95840  27.265  17.389  28.698
94976W        W95841  26.300  16.874  26.057
94977W        W95842  27.980  16.259  27.278
94978W        W95843  28.260  16.058  27.677
94979W        W95844  27.465  16.732  27.611
94980W        W95845  27.935  17.106  25.743
94981W        W95846  27.607  15.127  27.071
94982W        W95847  29.086  15.405  26.339
94983W        W95848  25.580  17.994  28.370
94984W        W95849  25.997  17.220  27.902
94985W        W95850  25.564  18.066  26.134
94986W        W95851  27.463  15.336  27.940
94987W        W95852  26.826  17.359  25.789
94988W        W95853  28.731  17.741  25.975
94989W        W95854  27.706  16.394  25.989
94990W        W95855  26.549  15.585  26.506
94991W        W95856  27.381  15.495  25.558
94992W        W95857  27.965  17.060  28.736
94993W        W95858  28.318  14.966  26.353
94994W        W95859  25.648  14.814  25.801
94995W        W95860  26.934  17.133  28.091
94996W        W95861  26.733  17.049  27.183
94997W        W95862  26.475  17.001  25.581
94998W        W95863  25.716  17.242  26.349
94999W        W95864  26.220  16.312  28.791
95000W        W95865  26.924  14.872  28.977
95001W        W95866  27.633  15.014  28.333
95002W        W95867  26.828  14.782  26.614
95003W        W95868  27.887  14.859  26.119
95004W        W95869  25.832  14.791  27.696
95005W        W95870  25.880  15.754  27.066
95006W        W95871  28.569  14.862  27.472
95007W        W95872  25.991  15.360  26.286
95008W        W95873  28.562  15.048  27.902
95009W        W95874  28.958  16.251  25.587
95010W        W95875  26.250  15.009  27.406
95011W        W95876  27.364  15.581  28.346
95012W        W95877  25.512  15.271  25.824
95013W        W95878  26.298  16.660  28.385
95014W        W95879  27.656  16.058  27.564
95015W        W95880  27.523  18.137  25.860
95016W        W95881  25.669  16.644  25.557
95017W        W95882  26.404  17.055  28.683
95018W        W95883  25.925  16.222  28.314
95019W        W95884  26.916  16.327  28.108
95020W        W95885  28.684  14.686  28.370
95021W        W95886  29.082  16.296  28.361
95022W        W95887  29.070  16.496  26.047
95023W        W95888  27.933  16.828  26.146
95024W        W95889  28.407  18.128  25.841
95025W        W95890  27.584  16.118  28.983
95026W        W95891  25.914  17.085  29.023
95027W        W95892  29.120  15.007  28.975
95028W        W95893  28.838  15.935  27.596
95029W        W95894  27.146  18.065  29.073
95030W        W95895  27.001  14.694  25.800
95031W        W95896  28.540  17.293  25.743
95032W        W95897  26.309  15.386  28.629
95033W        W95898  26.743  17.380  28.491
95034W        W95899  28.869  15.371  28.289
95035W        W95900  28.080  18.030  26.257
95036W        W95901  28.319  16.649  27.624
95037W        W95902  26.569  15.065  28.291
95038W        W95903  27.038  16.134  29.048
95039W        W95904  26.541  17.313  26.242
95040W        W95905  28.296  16.811  26.506
95041W        W95906  26.064  15.437  28.230
95042W        W95907  27.393  17.499  26.694
95043W        W95908  29.143  16.059  26.875
95044W        W95909  27.365  14.692  28.594
95045W        W95910  28.145  17.397  27.673
95046W        W95911  28.448  17.741  27.381
95047W        W95912  27.667  17.543  25.809
95048W        W95913  25.677  17.435  28.651
95049W        W95914  26.420  15.427  27.889
95050W        W95915  26.390  14.775  26.999
95051W        W95916  28.011  15.617  27.691
95052W        W95917  26.809  16.788  25.891
95053W        W95918  28.807  16.730  27.390
95054W        W95919  26.134  17.488  28.813
95055W        W95920  28.521  18.170  26.610
95056W        W95921  26.620  15.190  27.055
95057W        W95922  26.389  16.683  27.145
95058W        W95923  26.702  18.094  27.895
95059W        W95924  28.769  18.190  28.927
95060W        W95925  27.928  16.378  27.860
95061W        W95926  25.777  16.176  25.775
95062W        W95927  28.911  17.834  26.472
95063W        W95928  28.748  15.158  26.091
95064W        W95929  26.887  14.677  28.494
95065W        W95930  28.593  17.479  26.952
95066W        W95931  28.622  16.035  26.857
95067W        W95932  26.739  15.708  27.073
95068W        W95933  26.984  15.970  28.397
95069W        W95934  28.095  17.123  28.260
95070W        W95935  26.745  15.577  28.372
95071W        W95936  26.724  18.043  26.988
95072W        W95937  26.041  18.002  28.622
95073W        W95938  26.153  17.363  25.752
95074W        W95939  28.670  17.121  26.562
95075W        W95940  26.274  15.913  28.448
95076W        W95941  29.047  15.843  25.929
95077W        W95942  26.792  16.900  26.400
95078W        W95943  27.891  16.282  28.481
95079W        W95944  27.782  15.910  28.025
95080W        W95945  26.342  16.282  28.054
95081W        W95946  28.552  18.170  27.883
95082W        W95947  28.343  14.804  28.877
95083W        W95948  26.007  14.954  28.464
95084W        W95949  26.346  15.977  27.517
95085W        W95950  26.715  15.791  25.639
95086W        W95951  25.518  17.550  28.184
95087W        W95952  27.103  16.259  27.627
95088W        W95953  26.926  15.284  25.732
95089W        W95954  26.061  16.100  26.513
95090W        W95955  25.832  17.952  27.950
95091W        W95956  28.627  16.178  26.058
95092W        W95957  28.722  15.094  28.744
95093W        W95958  28.158  17.303  26.707
95094W        W95959  25.756  16.227  28.884
95095W        W95960  28.722  14.691  26.180
95096W        W95961  28.242  17.166  26.191
95097W        W95962  27.144  16.224  26.276
95098W        W95963  28.331  15.028  25.799
95099W        W95964  28.396  15.635  27.985
95100W        W95965  26.105  16.228  27.192
95101W        W95966  26.399  17.167  26.841
95102W        W95967  28.162  15.787  26.806
95103W        W95968  27.185  15.166  27.502
95104W        W95969  29.147  17.077  28.013
95105W        W95970  29.065  15.064  27.574
95106W        W95971  25.604  17.894  26.950
95107W        W95972  26.113  17.081  26.486
95108W        W95973  26.028  14.698  29.039
95109W        W95974  27.147  17.551  29.141
95110W        W95975  28.902  16.519  26.931
95111W        W95976  28.256  16.696  25.811
95112W        W95977  27.551  18.217  28.023
95113W        W95978  28.408  16.939  29.060
95114W        W95979  27.223  14.649  26.340
95115W        W95980  27.936  15.518  27.199
95116W        W95981  25.622  17.105  27.531
95117W        W95982  26.875  15.067  26.172
95118W        W95983  26.679  16.551  29.021
95119W        W95984  27.673  15.532  26.735
95120W        W95985  27.878  16.942  27.857
95121W        W95986  26.032  17.547  28.292
95122W        W95987  26.623  17.530  29.015
95123W        W95988  26.474  15.327  26.029
95124W        W95989  27.991  15.469  26.354
95125W        W95990  27.949  17.577  28.591
95126W        W95991  26.634  16.169  27.190
95127W        W95992  26.289  17.867  28.055
95128W        W95993  29.034  17.984  25.656
95129W        W95994  25.897  16.656  28.652
95130W        W95995  27.892  16.918  27.340
95131W        W95996  26.328  16.567  26.582
95132W        W95997  26.699  17.574  27.977
95133W        W95998  27.077  14.993  27.018
95134W        W95999  25.688  16.977  25.948
95135W        W96000  27.207  15.928  25.818
95136W        W96001  25.853  16.477  26.837
95137W        W96002  27.143  15.119  28.301
95138W        W96003  28.815  14.828  25.728
95139W        W96004  28.908  16.574  28.827
95140W        W96005  27.562  17.831  28.979
95141W        W96006  29.120  16.925  28.501
95142W        W96007  28.528  17.723  29.112
95143W        W96008  26.267  18.179  27.590
95144W        W96009  29.126  16.801  26.464
95145W        W96010  27.656  16.068  26.977
95146W        W96011  27.423  14.680  26.867
95147W        W96012  26.482  17.664  26.704
95148W        W96013  26.981  15.405  27.929
95149W        W96014  26.681  14.774  27.398
95150W        W96015  25.744  17.596  25.946
95151W        W96016  27.560  16.960  26.664
95152W        W96017  26.435  17.755  28.543
95153W        W96018  25.912  16.578  26.239
95154W        W96019  25.797  15.121  27.238
95155W        W96020  27.345  17.086  27.295
95156W        W96021  25.597  14.940  26.315
95157W        W96022  28.261  16.146  28.242
95158W        W96023  28.138  15.532  25.814
95159W        W96024  28.655  17.204  27.462
95160W        W96025  27.316  17.688  27.293
95161W        W96026  26.728  17.792  26.204
95162W        W96027  28.010  14.695  25.634
95163W        W96028  25.810  17.955  27.375
95164W        W96029  28.007  15.713  29.010
95165W        W96030  25.990  15.243  29.009
95166W        W96031  25.721  15.843  26.342
95167W        W96032  26.412  15.832  26.067
95168W        W96033  28.175  16.159  28.884
95169W        W96034  26.518  16.440  27.593
95170W        W96035  27.992  14.726  26.713
95171W        W96036  27.123  18.157  27.216
95172W        W96037  28.337  17.619  28.153
95173W        W96038  27.921  17.768  27.264
95174W        W96039  27.940  16.748  26.858
95175W        W96040  27.402  14.973  25.929
95176W        W96041  29.083  14.601  26.651
95177W        W96042  26.771  16.236  25.814
95178W        W96043  28.937  15.573  26.804
95179W        W96044  27.629  16.743  25.681
95180W        W96045  28.565  16.943  28.429
95181W        W96046  28.219  17.644  25.896
95182W        W96047  26.834  15.319  28.802
95183W        W96048  26.654  15.903  28.043
95184W        W96049  28.746  17.398  28.320
95185W        W96050  27.846  15.348  28.697
95186W        W96051  25.690  15.819  28.474
95187W        W96052  27.450  16.296  28.200
95188W        W96053  25.807  17.054  26.857
95189W        W96054  25.954  16.351  27.747
95190W        W96055  28.271  16.637  28.097
95191W        W96056  28.043  18.017  28.908
95192W        W96057  27.939  15.756  28.461
95193W        W96058  28.216  17.810  26.866
95194W        W96059  27.218  17.530  28.189
95195W        W96060  26.703  17.885  27.458
95196W        W96061  28.508  17.056  27.877
95197W        W96062  27.558  17.128  29.014
95198W        W96063  26.163  17.081  27.353
95199W        W96064  28.509  16.840  26.998
95200W        W96065  28.150  17.906  27.749
95201W        W96066  26.128  17.635  27.619
95202W        W96067  27.149  15.687  28.829
95203W        W96068  27.600  17.853  26.340
95204W        W96069  26.908  17.108  28.978
95205W        W96070  27.034  17.346  26.355
95206W        W96071  26.255  16.086  25.614
95207W        W96072  25.594  21.816   3.359
95208W        W96073  25.970  20.709   2.882
95209W        W96074  28.675  20.439   0.652
95210W        W96075  28.805  21.524   2.679
95211W        W96076  26.723  21.515   0.205
95212W        W96077  26.806  19.667   1.188
95213W        W96078  26.321  19.515   1.352
95214W        W96079  27.312  20.330   0.786
95215W        W96080  26.987  21.422   3.141
95216W        W96081  25.636  18.983   3.104
95217W        W96082  26.398  18.263   2.906
95218W        W96083  28.092  18.651   1.793
95219W        W96084  27.741  19.522   0.363
95220W        W96085  28.311  18.956   3.454
95221W        W96086  25.677  18.748   2.579
95222W        W96087  25.776  21.367   3.600
95223W        W96088  27.298  20.757   0.332
95224W        W96089  25.730  19.540   2.025
95225W        W96090  26.623  19.431   3.262
95226W        W96091  29.082  19.290   1.761
95227W        W96092  28.846  20.333   2.620
95228W        W96093  27.154  19.666   1.647
95229W        W96094  27.700  21.005   2.016
95230W        W96095  26.200  20.439   2.248
95231W        W96096  25.559  19.967   1.819
95232W        W96097  26.595  19.939   3.011
95233W        W96098  28.866  19.722   3.265
95234W        W96099  26.482  21.166   1.710
95235W        W96100  27.603  20.855   2.844
95236W        W96101  26.823  19.495   2.069
95237W        W96102  27.115  20.279   1.712
95238W        W96103  28.112  21.052   3.560
95239W        W96104  27.191  20.372   3.570
95240W        W96105  27.172  20.088   3.048
95241W        W96106  25.581  19.479   3.570
95242W        W96107  28.413  21.014   3.169
95243W        W96108  25.994  18.596   1.167
95244W        W96109  26.521  20.854   2.166
95245W        W96110  28.984  20.637   1.456
95246W        W96111  28.397  19.037   2.023
95247W        W96112  28.682  18.990   0.118
95248W        W96113  29.147  19.791   2.424
95249W        W96114  27.114  21.498   2.177
95250W        W96115  28.888  20.964   0.615
95251W        W96116  26.017  21.750   0.369
95252W        W96117  26.410  21.796   1.045
95253W        W96118  26.207  18.550   2.471
95254W        W96119  28.830  19.568   2.746
95255W        W96120  28.235  19.990   1.205
95256W        W96121  28.201  19.678   0.232
95257W        W96122  27.409  20.822   2.372
95258W        W96123  27.215  19.152   1.571
95259W        W96124  27.815  21.239   2.565
95260W        W96125  28.686  20.030   0.987
95261W        W96126  27.588  18.688   1.003
95262W        W96127  26.245  21.382   0.686
95263W        W96128  25.616  18.881   1.285
95264W        W96129  28.402  19.488   1.759
95265W        W96130  25.860  21.105   1.674
95266W        W96131  27.201  21.455   0.544
95267W        W96132  28.593  19.481   0.008
95268W        W96133  25.616  21.239   2.172
95269W        W96134  26.407  20.811   2.652
95270W        W96135  26.780  20.171   1.271
95271W        W96136  26.802  18.576   2.364
95272W        W96137  29.031  18.338   1.661
95273W        W96138  26.250  20.210   0.129
95274W        W96139  25.905  19.243   0.308
95275W        W96140  25.967  21.199   1.102
95276W        W96141  27.098  20.682   1.350
95277W        W96142  28.430  21.541   3.064
95278W        W96143  27.356  19.183   0.748
95279W        W96144  28.739  21.581   1.520
95280W        W96145  28.416  19.434   3.118
95281W        W96146  29.129  21.090   1.252
95282W        W96147  27.756  20.382   2.736
95283W        W96148  25.522  19.933   0.942
95284W        W96149  26.633  20.348   2.515
95285W        W96150  27.837  19.612   0.893
95286W        W96151  27.714  20.102   0.997
95287W        W96152  26.057  19.522   2.471
95288W        W96153  26.042  19.398   3.393
95289W        W96154  25.932  18.315   1.552
95290W        W96155  27.700  18.662   2.113
95291W        W96156  27.348  18.847   3.276
95292W        W96157  27.703  18.996   0.454
95293W        W96158  28.886  21.389   3.208
95294W        W96159  27.853  18.470   3.247
95295W        W96160  28.872  20.771   3.369
95296W        W96161  28.302  18.938   2.965
95297W        W96162  28.102  18.876   1.235
95298W        W96163  28.495  20.010   3.639
95299W        W96164  26.235  21.586   1.625
95300W        W96165  26.893  19.303   0.611
95301W        W96166  26.462  18.587   3.275
95302W        W96167  28.514  19.071   0.956
95303W        W96168  28.881  19.553   0.901
95304W        W96169  26.624  21.770   3.372
95305W        W96170  26.550  18.306   0.607
95306W        W96171  28.871  18.840   1.642
95307W        W96172  29.021  21.089   0.087
95308W        W96173  25.928  20.292   1.789
95309W        W96174  27.845  18.879   0.019
95310W        W96175  28.979  21.211   1.739
95311W        W96176  29.018  18.405   2.489
95312W        W96177  27.463  19.617   3.043
95313W        W96178  27.556  20.956   0.746
95314W        W96179  27.956  20.250   3.486
95315W        W96180  27.630  18.227   1.795
95316W        W96181  26.242  19.130   1.858
95317W        W96182  25.796  20.330   2.632
95318W        W96183  27.655  21.523   1.338
95319W        W96184  28.849  19.120   2.210
95320W        W96185  27.486  21.467   2.977
95321W        W96186  28.829  20.526   0.182
95322W        W96187  27.264  20.009   1.243
95323W        W96188  29.116  18.520   2.984
95324W        W96189  27.265  20.355   2.578
95325W        W96190  27.482  19.241   2.023
95326W        W96191  28.334  19.539   0.861
95327W        W96192  28.621  19.272   0.503
95328W        W96193  28.430  21.312   0.892
95329W        W96194  28.264  20.915   1.688
95330W        W96195  28.160  19.994   0.666
95331W        W96196  27.593  20.204   1.652
95332W        W96197  28.474  19.992   1.719
95333W        W96198  25.849  19.007   2.143
95334W        W96199  28.627  20.059   2.970
95335W        W96200  28.978  21.677   2.116
95336W        W96201  26.908  21.121   1.518
95337W        W96202  27.915  21.654   2.842
95338W        W96203  27.909  18.984   2.606
95339W        W96204  27.116  21.692   2.667
95340W        W96205  28.813  18.646   1.133
95341W        W96206  28.604  19.965   2.434
95342W        W96207  25.587  19.286   2.472
95343W        W96208  28.447  19.081   1.490
95344W        W96209  28.858  19.232   3.267
95345W        W96210  27.743  20.931   1.485
95346W        W96211  26.999  21.522   1.098
95347W        W96212  26.114  18.702   0.356
95348W        W96213  27.218  18.356   2.166
95349W        W96214  26.246  21.476   0.014
95350W        W96215  26.620  19.942   0.765
95351W        W96216  27.274  20.571   3.078
95352W        W96217  27.104  18.929   1.068
95353W        W96218  28.460  18.526   1.496
95354W        W96219  28.180  21.808   1.824
95355W        W96220  27.592  21.456   2.164
95356W        W96221  26.988  20.493   2.125
95357W        W96222  28.758  21.216   2.251
95358W        W96223  26.452  18.719   1.020
95359W        W96224  26.974  21.016   1.980
95360W        W96225  26.457  18.947   0.045
95361W        W96226  27.258  19.556   2.439
95362W        W96227  28.106  18.422   2.309
95363W        W96228  25.526  20.265   2.194
95364W        W96229  27.230  20.083   0.352
95365W        W96230  26.498  18.398   0.122
95366W        W96231  27.236  19.479   1.173
95367W        W96232  28.206  18.455   2.872
95368W        W96233  26.794  20.467   2.981
95369W        W96234  27.598  20.249   3.198
95370W        W96235  28.215  20.279   3.091
95371W        W96236  27.499  18.419   3.596
95372W        W96237  26.721  19.035   1.989
95373W        W96238  26.147  18.991   1.387
95374W        W96239  25.933  21.703   1.063
95375W        W96240  27.265  21.033   3.188
95376W        W96241  26.300  20.518   0.547
95377W        W96242  27.980  19.903   1.768
95378W        W96243  28.260  19.702   2.167
95379W        W96244  27.465  20.376   2.101
95380W        W96245  27.935  20.750   0.233
95381W        W96246  27.607  18.771   1.561
95382W        W96247  29.086  19.049   0.829
95383W        W96248  25.580  21.638   2.860
95384W        W96249  25.997  20.864   2.392
95385W        W96250  25.564  21.710   0.624
95386W        W96251  27.463  18.980   2.430
95387W        W96252  26.826  21.003   0.279
95388W        W96253  28.731  21.385   0.465
95389W        W96254  27.706  20.038   0.479
95390W        W96255  26.549  19.229   0.996
95391W        W96256  27.381  19.139   0.048
95392W        W96257  27.965  20.704   3.226
95393W        W96258  28.318  18.610   0.843
95394W        W96259  25.648  18.458   0.291
95395W        W96260  26.934  20.777   2.581
95396W        W96261  26.733  20.693   1.673
95397W        W96262  26.475  20.645   0.071
95398W        W96263  25.716  20.886   0.839
95399W        W96264  26.220  19.956   3.281
95400W        W96265  26.924  18.516   3.467
95401W        W96266  27.633  18.658   2.823
95402W        W96267  26.828  18.426   1.104
95403W        W96268  27.887  18.503   0.609
95404W        W96269  25.832  18.435   2.186
95405W        W96270  25.880  19.398   1.556
95406W        W96271  28.569  18.506   1.962
95407W        W96272  25.991  19.004   0.776
95408W        W96273  28.562  18.692   2.392
95409W        W96274  28.958  19.895   0.077
95410W        W96275  26.250  18.653   1.896
95411W        W96276  27.364  19.225   2.836
95412W        W96277  25.512  18.915   0.314
95413W        W96278  26.298  20.304   2.875
95414W        W96279  27.656  19.702   2.054
95415W        W96280  27.523  21.781   0.350
95416W        W96281  25.669  20.288   0.047
95417W        W96282  26.404  20.699   3.173
95418W        W96283  25.925  19.866   2.804
95419W        W96284  26.916  19.971   2.598
95420W        W96285  28.684  18.330   2.860
95421W        W96286  29.082  19.940   2.851
95422W        W96287  29.070  20.140   0.537
95423W        W96288  27.933  20.472   0.636
95424W        W96289  28.407  21.772   0.331
95425W        W96290  27.584  19.762   3.473
95426W        W96291  25.914  20.729   3.513
95427W        W96292  29.120  18.651   3.465
95428W        W96293  28.838  19.579   2.086
95429W        W96294  27.146  21.709   3.563
95430W        W96295  27.001  18.338   0.290
95431W        W96296  28.540  20.937   0.233
95432W        W96297  26.309  19.030   3.119
95433W        W96298  26.743  21.024   2.981
95434W        W96299  28.869  19.015   2.779
95435W        W96300  28.080  21.674   0.747
95436W        W96301  28.319  20.293   2.114
95437W        W96302  26.569  18.709   2.781
95438W        W96303  27.038  19.778   3.538
95439W        W96304  26.541  20.957   0.732
95440W        W96305  28.296  20.455   0.996
95441W        W96306  26.064  19.081   2.720
95442W        W96307  27.393  21.143   1.184
95443W        W96308  29.143  19.703   1.365
95444W        W96309  27.365  18.336   3.084
95445W        W96310  28.145  21.041   2.163
95446W        W96311  28.448  21.385   1.871
95447W        W96312  27.667  21.187   0.299
95448W        W96313  25.677  21.079   3.141
95449W        W96314  26.420  19.071   2.379
95450W        W96315  26.390  18.419   1.489
95451W        W96316  28.011  19.261   2.181
95452W        W96317  26.809  20.432   0.381
95453W        W96318  28.807  20.374   1.880
95454W        W96319  26.134  21.132   3.303
95455W        W96320  28.521  21.814   1.100
95456W        W96321  26.620  18.834   1.545
95457W        W96322  26.389  20.327   1.635
95458W        W96323  26.702  21.738   2.385
95459W        W96324  28.769  21.834   3.417
95460W        W96325  27.928  20.022   2.350
95461W        W96326  25.777  19.820   0.265
95462W        W96327  28.911  21.478   0.962
95463W        W96328  28.748  18.802   0.581
95464W        W96329  26.887  18.321   2.984
95465W        W96330  28.593  21.123   1.442
95466W        W96331  28.622  19.679   1.347
95467W        W96332  26.739  19.352   1.563
95468W        W96333  26.984  19.614   2.887
95469W        W96334  28.095  20.767   2.750
95470W        W96335  26.745  19.221   2.862
95471W        W96336  26.724  21.687   1.478
95472W        W96337  26.041  21.646   3.112
95473W        W96338  26.153  21.007   0.242
95474W        W96339  28.670  20.765   1.052
95475W        W96340  26.274  19.557   2.938
95476W        W96341  29.047  19.487   0.419
95477W        W96342  26.792  20.544   0.890
95478W        W96343  27.891  19.926   2.971
95479W        W96344  27.782  19.554   2.515
95480W        W96345  26.342  19.926   2.544
95481W        W96346  28.552  21.814   2.373
95482W        W96347  28.343  18.448   3.367
95483W        W96348  26.007  18.598   2.954
95484W        W96349  26.346  19.621   2.007
95485W        W96350  26.715  19.435   0.129
95486W        W96351  25.518  21.194   2.674
95487W        W96352  27.103  19.903   2.117
95488W        W96353  26.926  18.928   0.222
95489W        W96354  26.061  19.744   1.003
95490W        W96355  25.832  21.596   2.440
95491W        W96356  28.627  19.822   0.548
95492W        W96357  28.722  18.738   3.234
95493W        W96358  28.158  20.947   1.197
95494W        W96359  25.756  19.871   3.374
95495W        W96360  28.722  18.335   0.670
95496W        W96361  28.242  20.810   0.681
95497W        W96362  27.144  19.868   0.766
95498W        W96363  28.331  18.672   0.289
95499W        W96364  28.396  19.279   2.475
95500W        W96365  26.105  19.872   1.682
95501W        W96366  26.399  20.811   1.331
95502W        W96367  28.162  19.431   1.296
95503W        W96368  27.185  18.810   1.992
95504W        W96369  29.147  20.721   2.503
95505W        W96370  29.065  18.708   2.064
95506W        W96371  25.604  21.538   1.440
95507W        W96372  26.113  20.725   0.976
95508W        W96373  26.028  18.342   3.529
95509W        W96374  27.147  21.195   3.631
95510W        W96375  28.902  20.163   1.421
95511W        W96376  28.256  20.340   0.301
95512W        W96377  27.551  21.861   2.513
95513W        W96378  28.408  20.583   3.550
95514W        W96379  27.223  18.293   0.830
95515W        W96380  27.936  19.162   1.689
95516W        W96381  25.622  20.749   2.021
95517W        W96382  26.875  18.711   0.662
95518W        W96383  26.679  20.195   3.511
95519W        W96384  27.673  19.176   1.225
95520W        W96385  27.878  20.586   2.347
95521W        W96386  26.032  21.191   2.782
95522W        W96387  26.623  21.174   3.505
95523W        W96388  26.474  18.971   0.519
95524W        W96389  27.991  19.113   0.844
95525W        W96390  27.949  21.221   3.081
95526W        W96391  26.634  19.813   1.680
95527W        W96392  26.289  21.511   2.545
95528W        W96393  29.034  21.628   0.146
95529W        W96394  25.897  20.300   3.142
95530W        W96395  27.892  20.562   1.830
95531W        W96396  26.328  20.211   1.072
95532W        W96397  26.699  21.218   2.467
95533W        W96398  27.077  18.637   1.508
95534W        W96399  25.688  20.621   0.438
95535W        W96400  27.207  19.572   0.308
95536W        W96401  25.853  20.121   1.327
95537W        W96402  27.143  18.763   2.791
95538W        W96403  28.815  18.472   0.218
95539W        W96404  28.908  20.218   3.317
95540W        W96405  27.562  21.475   3.469
95541W        W96406  29.120  20.569   2.991
95542W        W96407  28.528  21.367   3.602
95543W        W96408  26.267  21.823   2.080
95544W        W96409  29.126  20.445   0.954
95545W        W96410  27.656  19.712   1.467
95546W        W96411  27.423  18.324   1.357
95547W        W96412  26.482  21.308   1.194
95548W        W96413  26.981  19.049   2.419
95549W        W96414  26.681  18.418   1.888
95550W        W96415  25.744  21.240   0.436
95551W        W96416  27.560  20.604   1.154
95552W        W96417  26.435  21.399   3.033
95553W        W96418  25.912  20.222   0.729
95554W        W96419  25.797  18.765   1.728
95555W        W96420  27.345  20.730   1.785
95556W        W96421  25.597  18.584   0.805
95557W        W96422  28.261  19.790   2.732
95558W        W96423  28.138  19.176   0.304
95559W        W96424  28.655  20.848   1.952
95560W        W96425  27.316  21.332   1.783
95561W        W96426  26.728  21.436   0.694
95562W        W96427  28.010  18.339   0.124
95563W        W96428  25.810  21.599   1.865
95564W        W96429  28.007  19.357   3.500
95565W        W96430  25.990  18.887   3.499
95566W        W96431  25.721  19.487   0.832
95567W        W96432  26.412  19.476   0.557
95568W        W96433  28.175  19.803   3.374
95569W        W96434  26.518  20.084   2.083
95570W        W96435  27.992  18.370   1.203
95571W        W96436  27.123  21.801   1.706
95572W        W96437  28.337  21.263   2.643
95573W        W96438  27.921  21.412   1.754
95574W        W96439  27.940  20.392   1.348
95575W        W96440  27.402  18.617   0.419
95576W        W96441  29.083  18.245   1.141
95577W        W96442  26.771  19.880   0.304
95578W        W96443  28.937  19.217   1.294
95579W        W96444  27.629  20.387   0.171
95580W        W96445  28.565  20.587   2.919
95581W        W96446  28.219  21.288   0.386
95582W        W96447  26.834  18.963   3.292
95583W        W96448  26.654  19.547   2.533
95584W        W96449  28.746  21.042   2.810
95585W        W96450  27.846  18.992   3.187
95586W        W96451  25.690  19.463   2.964
95587W        W96452  27.450  19.940   2.690
95588W        W96453  25.807  20.698   1.347
95589W        W96454  25.954  19.995   2.237
95590W        W96455  28.271  20.281   2.587
95591W        W96456  28.043  21.661   3.398
95592W        W96457  27.939  19.400   2.951
95593W        W96458  28.216  21.454   1.356
95594W        W96459  27.218  21.174   2.679
95595W        W96460  26.703  21.529   1.948
95596W        W96461  28.508  20.700   2.367
95597W        W96462  27.558  20.772   3.504
95598W        W96463  26.163  20.725   1.843
95599W        W96464  28.509  20.484   1.488
95600W        W96465  28.150  21.550   2.239
95601W        W96466  26.128  21.279   2.109
95602W        W96467  27.149  19.331   3.319
95603W        W96468  27.600  21.497   0.830
95604W        W96469  26.908  20.752   3.468
95605W        W96470  27.034  20.990   0.845
95606W        W96471  26.255  19.730   0.104
95607W        W96472  25.594  21.816   7.003
95608W        W96473  25.970  20.709   6.526
95609W        W96474  28.675  20.439   4.296
95610W        W96475  28.805  21.524   6.323
95611W        W96476  26.723  21.515   3.849
95612W        W96477  26.806  19.667   4.832
95613W        W96478  26.321  19.515   4.996
95614W        W96479  27.312  20.330   4.430
95615W        W96480  26.987  21.422   6.785
95616W        W96481  25.636  18.983   6.748
95617W        W96482  26.398  18.263   6.550
95618W        W96483  28.092  18.651   5.437
95619W        W96484  27.741  19.522   4.007
95620W        W96485  28.311  18.956   7.098
95621W        W96486  25.677  18.748   6.223
95622W        W96487  25.776  21.367   7.244
95623W        W96488  27.298  20.757   3.976
95624W        W96489  25.730  19.540   5.669
95625W        W96490  26.623  19.431   6.906
95626W        W96491  29.082  19.290   5.405
95627W        W96492  28.846  20.333   6.264
95628W        W96493  27.154  19.666   5.291
95629W        W96494  27.700  21.005   5.660
95630W        W96495  26.200  20.439   5.892
95631W        W96496  25.559  19.967   5.463
95632W        W96497  26.595  19.939   6.655
95633W        W96498  28.866  19.722   6.909
95634W        W96499  26.482  21.166   5.354
95635W        W96500  27.603  20.855   6.488
95636W        W96501  26.823  19.495   5.713
95637W        W96502  27.115  20.279   5.356
95638W        W96503  28.112  21.052   7.204
95639W        W96504  27.191  20.372   7.214
95640W        W96505  27.172  20.088   6.692
95641W        W96506  25.581  19.479   7.214
95642W        W96507  28.413  21.014   6.813
95643W        W96508  25.994  18.596   4.811
95644W        W96509  26.521  20.854   5.810
95645W        W96510  28.984  20.637   5.100
95646W        W96511  28.397  19.037   5.667
95647W        W96512  28.682  18.990   3.762
95648W        W96513  29.147  19.791   6.068
95649W        W96514  27.114  21.498   5.821
95650W        W96515  28.888  20.964   4.259
95651W        W96516  26.017  21.750   4.013
95652W        W96517  26.410  21.796   4.689
95653W        W96518  26.207  18.550   6.115
95654W        W96519  28.830  19.568   6.390
95655W        W96520  28.235  19.990   4.849
95656W        W96521  28.201  19.678   3.876
95657W        W96522  27.409  20.822   6.016
95658W        W96523  27.215  19.152   5.215
95659W        W96524  27.815  21.239   6.209
95660W        W96525  28.686  20.030   4.631
95661W        W96526  27.588  18.688   4.647
95662W        W96527  26.245  21.382   4.330
95663W        W96528  25.616  18.881   4.929
95664W        W96529  28.402  19.488   5.403
95665W        W96530  25.860  21.105   5.318
95666W        W96531  27.201  21.455   4.188
95667W        W96532  28.593  19.481   3.652
95668W        W96533  25.616  21.239   5.816
95669W        W96534  26.407  20.811   6.296
95670W        W96535  26.780  20.171   4.915
95671W        W96536  26.802  18.576   6.008
95672W        W96537  29.031  18.338   5.305
95673W        W96538  26.250  20.210   3.773
95674W        W96539  25.905  19.243   3.952
95675W        W96540  25.967  21.199   4.746
95676W        W96541  27.098  20.682   4.994
95677W        W96542  28.430  21.541   6.708
95678W        W96543  27.356  19.183   4.392
95679W        W96544  28.739  21.581   5.164
95680W        W96545  28.416  19.434   6.762
95681W        W96546  29.129  21.090   4.896
95682W        W96547  27.756  20.382   6.380
95683W        W96548  25.522  19.933   4.586
95684W        W96549  26.633  20.348   6.159
95685W        W96550  27.837  19.612   4.537
95686W        W96551  27.714  20.102   4.641
95687W        W96552  26.057  19.522   6.115
95688W        W96553  26.042  19.398   7.037
95689W        W96554  25.932  18.315   5.196
95690W        W96555  27.700  18.662   5.757
95691W        W96556  27.348  18.847   6.920
95692W        W96557  27.703  18.996   4.098
95693W        W96558  28.886  21.389   6.852
95694W        W96559  27.853  18.470   6.891
95695W        W96560  28.872  20.771   7.013
95696W        W96561  28.302  18.938   6.609
95697W        W96562  28.102  18.876   4.879
95698W        W96563  28.495  20.010   7.283
95699W        W96564  26.235  21.586   5.269
95700W        W96565  26.893  19.303   4.255
95701W        W96566  26.462  18.587   6.919
95702W        W96567  28.514  19.071   4.600
95703W        W96568  28.881  19.553   4.545
95704W        W96569  26.624  21.770   7.016
95705W        W96570  26.550  18.306   4.251
95706W        W96571  28.871  18.840   5.286
95707W        W96572  29.021  21.089   3.731
95708W        W96573  25.928  20.292   5.433
95709W        W96574  27.845  18.879   3.663
95710W        W96575  29.018  18.405   6.133
95711W        W96576  27.463  19.617   6.687
95712W        W96577  27.556  20.956   4.390
95713W        W96578  27.956  20.250   7.130
95714W        W96579  27.630  18.227   5.439
95715W        W96580  26.242  19.130   5.502
95716W        W96581  25.796  20.330   6.276
95717W        W96582  27.655  21.523   4.982
95718W        W96583  28.849  19.120   5.854
95719W        W96584  27.486  21.467   6.621
95720W        W96585  28.829  20.526   3.826
95721W        W96586  27.264  20.009   4.887
95722W        W96587  29.116  18.520   6.628
95723W        W96588  27.265  20.355   6.222
95724W        W96589  27.482  19.241   5.667
95725W        W96590  28.334  19.539   4.505
95726W        W96591  28.621  19.272   4.147
95727W        W96592  28.430  21.312   4.536
95728W        W96593  28.264  20.915   5.332
95729W        W96594  28.160  19.994   4.310
95730W        W96595  27.593  20.204   5.296
95731W        W96596  28.474  19.992   5.363
95732W        W96597  25.849  19.007   5.787
95733W        W96598  28.627  20.059   6.614
95734W        W96599  28.978  21.677   5.760
95735W        W96600  26.908  21.121   5.162
95736W        W96601  27.915  21.654   6.486
95737W        W96602  27.909  18.984   6.250
95738W        W96603  27.116  21.692   6.311
95739W        W96604  28.813  18.646   4.777
95740W        W96605  28.604  19.965   6.078
95741W        W96606  25.587  19.286   6.116
95742W        W96607  28.447  19.081   5.134
95743W        W96608  28.858  19.232   6.911
95744W        W96609  27.743  20.931   5.129
95745W        W96610  26.999  21.522   4.742
95746W        W96611  26.114  18.702   4.000
95747W        W96612  27.218  18.356   5.810
95748W        W96613  26.246  21.476   3.658
95749W        W96614  26.620  19.942   4.409
95750W        W96615  27.274  20.571   6.722
95751W        W96616  27.104  18.929   4.712
95752W        W96617  28.460  18.526   5.140
95753W        W96618  28.180  21.808   5.468
95754W        W96619  27.592  21.456   5.808
95755W        W96620  26.988  20.493   5.769
95756W        W96621  28.758  21.216   5.895
95757W        W96622  26.452  18.719   4.664
95758W        W96623  26.974  21.016   5.624
95759W        W96624  26.457  18.947   3.689
95760W        W96625  27.258  19.556   6.083
95761W        W96626  28.106  18.422   5.953
95762W        W96627  25.526  20.265   5.838
95763W        W96628  27.230  20.083   3.996
95764W        W96629  26.498  18.398   3.766
95765W        W96630  27.236  19.479   4.817
95766W        W96631  28.206  18.455   6.516
95767W        W96632  26.794  20.467   6.625
95768W        W96633  27.598  20.249   6.842
95769W        W96634  28.215  20.279   6.735
95770W        W96635  27.499  18.419   7.240
95771W        W96636  26.721  19.035   5.633
95772W        W96637  26.147  18.991   5.031
95773W        W96638  25.933  21.703   4.707
95774W        W96639  27.265  21.033   6.832
95775W        W96640  26.300  20.518   4.191
95776W        W96641  27.980  19.903   5.412
95777W        W96642  28.260  19.702   5.811
95778W        W96643  27.465  20.376   5.745
95779W        W96644  27.935  20.750   3.877
95780W        W96645  27.607  18.771   5.205
95781W        W96646  29.086  19.049   4.473
95782W        W96647  25.580  21.638   6.504
95783W        W96648  25.997  20.864   6.036
95784W        W96649  25.564  21.710   4.268
95785W        W96650  27.463  18.980   6.074
95786W        W96651  26.826  21.003   3.923
95787W        W96652  28.731  21.385   4.109
95788W        W96653  27.706  20.038   4.123
95789W        W96654  26.549  19.229   4.640
95790W        W96655  27.381  19.139   3.692
95791W        W96656  27.965  20.704   6.870
95792W        W96657  28.318  18.610   4.487
95793W        W96658  25.648  18.458   3.935
95794W        W96659  26.934  20.777   6.225
95795W        W96660  26.733  20.693   5.317
95796W        W96661  26.475  20.645   3.715
95797W        W96662  25.716  20.886   4.483
95798W        W96663  26.220  19.956   6.925
95799W        W96664  26.924  18.516   7.111
95800W        W96665  27.633  18.658   6.467
95801W        W96666  26.828  18.426   4.748
95802W        W96667  27.887  18.503   4.253
95803W        W96668  25.832  18.435   5.830
95804W        W96669  25.880  19.398   5.200
95805W        W96670  28.569  18.506   5.606
95806W        W96671  25.991  19.004   4.420
95807W        W96672  28.562  18.692   6.036
95808W        W96673  28.958  19.895   3.721
95809W        W96674  26.250  18.653   5.540
95810W        W96675  27.364  19.225   6.480
95811W        W96676  25.512  18.915   3.958
95812W        W96677  26.298  20.304   6.519
95813W        W96678  27.656  19.702   5.698
95814W        W96679  27.523  21.781   3.994
95815W        W96680  25.669  20.288   3.691
95816W        W96681  26.404  20.699   6.817
95817W        W96682  25.925  19.866   6.448
95818W        W96683  26.916  19.971   6.242
95819W        W96684  28.684  18.330   6.504
95820W        W96685  29.082  19.940   6.495
95821W        W96686  29.070  20.140   4.181
95822W        W96687  27.933  20.472   4.280
95823W        W96688  28.407  21.772   3.975
95824W        W96689  27.584  19.762   7.117
95825W        W96690  25.914  20.729   7.157
95826W        W96691  29.120  18.651   7.109
95827W        W96692  28.838  19.579   5.730
95828W        W96693  27.146  21.709   7.207
95829W        W96694  27.001  18.338   3.934
95830W        W96695  28.540  20.937   3.877
95831W        W96696  26.309  19.030   6.763
95832W        W96697  26.743  21.024   6.625
95833W        W96698  28.869  19.015   6.423
95834W        W96699  28.080  21.674   4.391
95835W        W96700  28.319  20.293   5.758
95836W        W96701  26.569  18.709   6.425
95837W        W96702  27.038  19.778   7.182
95838W        W96703  26.541  20.957   4.376
95839W        W96704  28.296  20.455   4.640
95840W        W96705  26.064  19.081   6.364
95841W        W96706  27.393  21.143   4.828
95842W        W96707  29.143  19.703   5.009
95843W        W96708  27.365  18.336   6.728
95844W        W96709  28.145  21.041   5.807
95845W        W96710  28.448  21.385   5.515
95846W        W96711  27.667  21.187   3.943
95847W        W96712  25.677  21.079   6.785
95848W        W96713  26.420  19.071   6.023
95849W        W96714  26.390  18.419   5.133
95850W        W96715  28.011  19.261   5.825
95851W        W96716  26.809  20.432   4.025
95852W        W96717  28.807  20.374   5.524
95853W        W96718  26.134  21.132   6.947
95854W        W96719  28.521  21.814   4.744
95855W        W96720  26.620  18.834   5.189
95856W        W96721  26.389  20.327   5.279
95857W        W96722  26.702  21.738   6.029
95858W        W96723  28.769  21.834   7.061
95859W        W96724  27.928  20.022   5.994
95860W        W96725  25.777  19.820   3.909
95861W        W96726  28.911  21.478   4.606
95862W        W96727  28.748  18.802   4.225
95863W        W96728  26.887  18.321   6.628
95864W        W96729  28.593  21.123   5.086
95865W        W96730  28.622  19.679   4.991
95866W        W96731  26.739  19.352   5.207
95867W        W96732  26.984  19.614   6.531
95868W        W96733  28.095  20.767   6.394
95869W        W96734  26.745  19.221   6.506
95870W        W96735  26.724  21.687   5.122
95871W        W96736  26.041  21.646   6.756
95872W        W96737  26.153  21.007   3.886
95873W        W96738  28.670  20.765   4.696
95874W        W96739  26.274  19.557   6.582
95875W        W96740  29.047  19.487   4.063
95876W        W96741  26.792  20.544   4.534
95877W        W96742  27.891  19.926   6.615
95878W        W96743  27.782  19.554   6.159
95879W        W96744  26.342  19.926   6.188
95880W        W96745  28.552  21.814   6.017
95881W        W96746  28.343  18.448   7.011
95882W        W96747  26.007  18.598   6.598
95883W        W96748  26.346  19.621   5.651
95884W        W96749  26.715  19.435   3.773
95885W        W96750  25.518  21.194   6.318
95886W        W96751  27.103  19.903   5.761
95887W        W96752  26.926  18.928   3.866
95888W        W96753  26.061  19.744   4.647
95889W        W96754  25.832  21.596   6.084
95890W        W96755  28.627  19.822   4.192
95891W        W96756  28.722  18.738   6.878
95892W        W96757  28.158  20.947   4.841
95893W        W96758  25.756  19.871   7.018
95894W        W96759  28.722  18.335   4.314
95895W        W96760  28.242  20.810   4.325
95896W        W96761  27.144  19.868   4.410
95897W        W96762  28.331  18.672   3.933
95898W        W96763  28.396  19.279   6.119
95899W        W96764  26.105  19.872   5.326
95900W        W96765  26.399  20.811   4.975
95901W        W96766  28.162  19.431   4.940
95902W        W96767  27.185  18.810   5.636
95903W        W96768  29.147  20.721   6.147
95904W        W96769  29.065  18.708   5.708
95905W        W96770  25.604  21.538   5.084
95906W        W96771  26.113  20.725   4.620
95907W        W96772  26.028  18.342   7.173
95908W        W96773  27.147  21.195   7.275
95909W        W96774  28.902  20.163   5.065
95910W        W96775  28.256  20.340   3.945
95911W        W96776  27.551  21.861   6.157
95912W        W96777  28.408  20.583   7.194
95913W        W96778  27.223  18.293   4.474
95914W        W96779  27.936  19.162   5.333
95915W        W96780  25.622  20.749   5.665
95916W        W96781  26.875  18.711   4.306
95917W        W96782  26.679  20.195   7.155
95918W        W96783  27.673  19.176   4.869
95919W        W96784  27.878  20.586   5.991
95920W        W96785  26.032  21.191   6.426
95921W        W96786  26.623  21.174   7.149
95922W        W96787  26.474  18.971   4.163
95923W        W96788  27.991  19.113   4.488
95924W        W96789  27.949  21.221   6.725
95925W        W96790  26.634  19.813   5.324
95926W        W96791  26.289  21.511   6.189
95927W        W96792  29.034  21.628   3.790
95928W        W96793  25.897  20.300   6.786
95929W        W96794  27.892  20.562   5.474
95930W        W96795  26.328  20.211   4.716
95931W        W96796  26.699  21.218   6.111
95932W        W96797  27.077  18.637   5.152
95933W        W96798  25.688  20.621   4.082
95934W        W96799  27.207  19.572   3.952
95935W        W96800  25.853  20.121   4.971
95936W        W96801  27.143  18.763   6.435
95937W        W96802  28.815  18.472   3.862
95938W        W96803  28.908  20.218   6.961
95939W        W96804  27.562  21.475   7.113
95940W        W96805  29.120  20.569   6.635
95941W        W96806  28.528  21.367   7.246
95942W        W96807  26.267  21.823   5.724
95943W        W96808  29.126  20.445   4.598
95944W        W96809  27.656  19.712   5.111
95945W        W96810  27.423  18.324   5.001
95946W        W96811  26.482  21.308   4.838
95947W        W96812  26.981  19.049   6.063
95948W        W96813  26.681  18.418   5.532
95949W        W96814  25.744  21.240   4.080
95950W        W96815  27.560  20.604   4.798
95951W        W96816  26.435  21.399   6.677
95952W        W96817  25.912  20.222   4.373
95953W        W96818  25.797  18.765   5.372
95954W        W96819  27.345  20.730   5.429
95955W        W96820  25.597  18.584   4.449
95956W        W96821  28.261  19.790   6.376
95957W        W96822  28.138  19.176   3.948
95958W        W96823  28.655  20.848   5.596
95959W        W96824  27.316  21.332   5.427
95960W        W96825  26.728  21.436   4.338
95961W        W96826  28.010  18.339   3.768
95962W        W96827  25.810  21.599   5.509
95963W        W96828  28.007  19.357   7.144
95964W        W96829  25.990  18.887   7.143
95965W        W96830  25.721  19.487   4.476
95966W        W96831  26.412  19.476   4.201
95967W        W96832  28.175  19.803   7.018
95968W        W96833  26.518  20.084   5.727
95969W        W96834  27.992  18.370   4.847
95970W        W96835  27.123  21.801   5.350
95971W        W96836  28.337  21.263   6.287
95972W        W96837  27.921  21.412   5.398
95973W        W96838  27.940  20.392   4.992
95974W        W96839  27.402  18.617   4.063
95975W        W96840  29.083  18.245   4.785
95976W        W96841  26.771  19.880   3.948
95977W        W96842  28.937  19.217   4.938
95978W        W96843  27.629  20.387   3.815
95979W        W96844  28.565  20.587   6.563
95980W        W96845  28.219  21.288   4.030
95981W        W96846  26.834  18.963   6.936
95982W        W96847  26.654  19.547   6.177
95983W        W96848  28.746  21.042   6.454
95984W        W96849  27.846  18.992   6.831
95985W        W96850  25.690  19.463   6.608
95986W        W96851  27.450  19.940   6.334
95987W        W96852  25.807  20.698   4.991
95988W        W96853  25.954  19.995   5.881
95989W        W96854  28.271  20.281   6.231
95990W        W96855  28.043  21.661   7.042
95991W        W96856  27.939  19.400   6.595
95992W        W96857  28.216  21.454   5.000
95993W        W96858  27.218  21.174   6.323
95994W        W96859  26.703  21.529   5.592
95995W        W96860  28.508  20.700   6.011
95996W        W96861  27.558  20.772   7.148
95997W        W96862  26.163  20.725   5.487
95998W        W96863  28.509  20.484   5.132
95999W        W96864  28.150  21.550   5.883
96000W        W96865  26.128  21.279   5.753
96001W        W96866  27.149  19.331   6.963
96002W        W96867  27.600  21.497   4.474
96003W        W96868  26.908  20.752   7.112
96004W        W96869  27.034  20.990   4.489
96005W        W96870  26.255  19.730   3.748
96006W        W96871  25.594  21.816  10.648
96007W        W96872  25.970  20.709  10.171
96008W        W96873  28.675  20.439   7.941
96009W        W96874  28.805  21.524   9.968
96010W        W96875  26.723  21.515   7.494
96011W        W96876  26.806  19.667   8.477
96012W        W96877  26.321  19.515   8.641
96013W        W96878  27.312  20.330   8.075
96014W        W96879  26.987  21.422  10.430
96015W        W96880  25.636  18.983  10.393
96016W        W96881  26.398  18.263  10.195
96017W        W96882  28.092  18.651   9.082
96018W        W96883  27.741  19.522   7.652
96019W        W96884  28.311  18.956  10.743
96020W        W96885  25.677  18.748   9.868
96021W        W96886  25.776  21.367  10.889
96022W        W96887  27.298  20.757   7.621
96023W        W96888  25.730  19.540   9.314
96024W        W96889  26.623  19.431  10.551
96025W        W96890  29.082  19.290   9.050
96026W        W96891  28.846  20.333   9.909
96027W        W96892  27.154  19.666   8.936
96028W        W96893  27.700  21.005   9.305
96029W        W96894  26.200  20.439   9.537
96030W        W96895  25.559  19.967   9.108
96031W        W96896  26.595  19.939  10.300
96032W        W96897  28.866  19.722  10.554
96033W        W96898  26.482  21.166   8.999
96034W        W96899  27.603  20.855  10.133
96035W        W96900  26.823  19.495   9.358
96036W        W96901  27.115  20.279   9.001
96037W        W96902  28.112  21.052  10.849
96038W        W96903  27.191  20.372  10.859
96039W        W96904  27.172  20.088  10.337
96040W        W96905  25.581  19.479  10.859
96041W        W96906  28.413  21.014  10.458
96042W        W96907  25.994  18.596   8.456
96043W        W96908  26.521  20.854   9.455
96044W        W96909  28.984  20.637   8.745
96045W        W96910  28.397  19.037   9.312
96046W        W96911  28.682  18.990   7.407
96047W        W96912  29.147  19.791   9.713
96048W        W96913  27.114  21.498   9.466
96049W        W96914  28.888  20.964   7.904
96050W        W96915  26.017  21.750   7.658
96051W        W96916  26.410  21.796   8.334
96052W        W96917  26.207  18.550   9.760
96053W        W96918  28.830  19.568  10.035
96054W        W96919  28.235  19.990   8.494
96055W        W96920  28.201  19.678   7.521
96056W        W96921  27.409  20.822   9.661
96057W        W96922  27.215  19.152   8.860
96058W        W96923  27.815  21.239   9.854
96059W        W96924  28.686  20.030   8.276
96060W        W96925  27.588  18.688   8.292
96061W        W96926  26.245  21.382   7.975
96062W        W96927  25.616  18.881   8.574
96063W        W96928  28.402  19.488   9.048
96064W        W96929  27.201  21.455   7.833
96065W        W96930  28.593  19.481   7.297
96066W        W96931  25.616  21.239   9.461
96067W        W96932  26.407  20.811   9.941
96068W        W96933  26.780  20.171   8.560
96069W        W96934  26.802  18.576   9.653
96070W        W96935  29.031  18.338   8.950
96071W        W96936  26.250  20.210   7.418
96072W        W96937  25.905  19.243   7.597
96073W        W96938  25.967  21.199   8.391
96074W        W96939  27.098  20.682   8.639
96075W        W96940  28.430  21.541  10.353
96076W        W96941  27.356  19.183   8.037
96077W        W96942  28.739  21.581   8.809
96078W        W96943  28.416  19.434  10.407
96079W        W96944  29.129  21.090   8.541
96080W        W96945  27.756  20.382  10.025
96081W        W96946  25.522  19.933   8.231
96082W        W96947  26.633  20.348   9.804
96083W        W96948  27.837  19.612   8.182
96084W        W96949  27.714  20.102   8.286
96085W        W96950  26.057  19.522   9.760
96086W        W96951  26.042  19.398  10.682
96087W        W96952  25.932  18.315   8.841
96088W        W96953  27.700  18.662   9.402
96089W        W96954  27.348  18.847  10.565
96090W        W96955  27.703  18.996   7.743
96091W        W96956  28.886  21.389  10.497
96092W        W96957  27.853  18.470  10.536
96093W        W96958  28.872  20.771  10.658
96094W        W96959  28.302  18.938  10.254
96095W        W96960  28.102  18.876   8.524
96096W        W96961  28.495  20.010  10.928
96097W        W96962  26.235  21.586   8.914
96098W        W96963  26.893  19.303   7.900
96099W        W96964  26.462  18.587  10.564
96100W        W96965  28.514  19.071   8.245
96101W        W96966  28.881  19.553   8.190
96102W        W96967  26.624  21.770  10.661
96103W        W96968  26.550  18.306   7.896
96104W        W96969  28.871  18.840   8.931
96105W        W96970  29.021  21.089   7.376
96106W        W96971  25.928  20.292   9.078
96107W        W96972  27.845  18.879   7.308
96108W        W96973  28.979  21.211   9.028
96109W        W96974  29.018  18.405   9.778
96110W        W96975  27.463  19.617  10.332
96111W        W96976  27.556  20.956   8.035
96112W        W96977  27.956  20.250  10.775
96113W        W96978  27.630  18.227   9.084
96114W        W96979  26.242  19.130   9.147
96115W        W96980  25.796  20.330   9.921
96116W        W96981  27.655  21.523   8.627
96117W        W96982  28.849  19.120   9.499
96118W        W96983  27.486  21.467  10.266
96119W        W96984  28.829  20.526   7.471
96120W        W96985  27.264  20.009   8.532
96121W        W96986  29.116  18.520  10.273
96122W        W96987  27.265  20.355   9.867
96123W        W96988  27.482  19.241   9.312
96124W        W96989  28.334  19.539   8.150
96125W        W96990  28.621  19.272   7.792
96126W        W96991  28.430  21.312   8.181
96127W        W96992  28.264  20.915   8.977
96128W        W96993  28.160  19.994   7.955
96129W        W96994  27.593  20.204   8.941
96130W        W96995  28.474  19.992   9.008
96131W        W96996  25.849  19.007   9.432
96132W        W96997  28.627  20.059  10.259
96133W        W96998  28.978  21.677   9.405
96134W        W96999  26.908  21.121   8.807
96135W        W97000  27.915  21.654  10.131
96136W        W97001  27.909  18.984   9.895
96137W        W97002  27.116  21.692   9.956
96138W        W97003  28.813  18.646   8.422
96139W        W97004  28.604  19.965   9.723
96140W        W97005  25.587  19.286   9.761
96141W        W97006  28.447  19.081   8.779
96142W        W97007  28.858  19.232  10.556
96143W        W97008  27.743  20.931   8.774
96144W        W97009  26.999  21.522   8.387
96145W        W97010  26.114  18.702   7.645
96146W        W97011  27.218  18.356   9.455
96147W        W97012  26.246  21.476   7.303
96148W        W97013  26.620  19.942   8.054
96149W        W97014  27.274  20.571  10.367
96150W        W97015  27.104  18.929   8.357
96151W        W97016  28.460  18.526   8.785
96152W        W97017  28.180  21.808   9.113
96153W        W97018  27.592  21.456   9.453
96154W        W97019  26.988  20.493   9.414
96155W        W97020  28.758  21.216   9.540
96156W        W97021  26.452  18.719   8.309
96157W        W97022  26.974  21.016   9.269
96158W        W97023  26.457  18.947   7.334
96159W        W97024  27.258  19.556   9.728
96160W        W97025  28.106  18.422   9.598
96161W        W97026  25.526  20.265   9.483
96162W        W97027  27.230  20.083   7.641
96163W        W97028  26.498  18.398   7.411
96164W        W97029  27.236  19.479   8.462
96165W        W97030  28.206  18.455  10.161
96166W        W97031  26.794  20.467  10.270
96167W        W97032  27.598  20.249  10.487
96168W        W97033  28.215  20.279  10.380
96169W        W97034  27.499  18.419  10.885
96170W        W97035  26.721  19.035   9.278
96171W        W97036  26.147  18.991   8.676
96172W        W97037  25.933  21.703   8.352
96173W        W97038  27.265  21.033  10.477
96174W        W97039  26.300  20.518   7.836
96175W        W97040  27.980  19.903   9.057
96176W        W97041  28.260  19.702   9.456
96177W        W97042  27.465  20.376   9.390
96178W        W97043  27.935  20.750   7.522
96179W        W97044  27.607  18.771   8.850
96180W        W97045  29.086  19.049   8.118
96181W        W97046  25.580  21.638  10.149
96182W        W97047  25.997  20.864   9.681
96183W        W97048  25.564  21.710   7.913
96184W        W97049  27.463  18.980   9.719
96185W        W97050  26.826  21.003   7.568
96186W        W97051  28.731  21.385   7.754
96187W        W97052  27.706  20.038   7.768
96188W        W97053  26.549  19.229   8.285
96189W        W97054  27.381  19.139   7.337
96190W        W97055  27.965  20.704  10.515
96191W        W97056  28.318  18.610   8.132
96192W        W97057  25.648  18.458   7.580
96193W        W97058  26.934  20.777   9.870
96194W        W97059  26.733  20.693   8.962
96195W        W97060  26.475  20.645   7.360
96196W        W97061  25.716  20.886   8.128
96197W        W97062  26.220  19.956  10.570
96198W        W97063  26.924  18.516  10.756
96199W        W97064  27.633  18.658  10.112
96200W        W97065  26.828  18.426   8.393
96201W        W97066  27.887  18.503   7.898
96202W        W97067  25.832  18.435   9.475
96203W        W97068  25.880  19.398   8.845
96204W        W97069  28.569  18.506   9.251
96205W        W97070  25.991  19.004   8.065
96206W        W97071  28.562  18.692   9.681
96207W        W97072  28.958  19.895   7.366
96208W        W97073  26.250  18.653   9.185
96209W        W97074  27.364  19.225  10.125
96210W        W97075  25.512  18.915   7.603
96211W        W97076  26.298  20.304  10.164
96212W        W97077  27.656  19.702   9.343
96213W        W97078  27.523  21.781   7.639
96214W        W97079  25.669  20.288   7.336
96215W        W97080  26.404  20.699  10.462
96216W        W97081  25.925  19.866  10.093
96217W        W97082  26.916  19.971   9.887
96218W        W97083  28.684  18.330  10.149
96219W        W97084  29.082  19.940  10.140
96220W        W97085  29.070  20.140   7.826
96221W        W97086  27.933  20.472   7.925
96222W        W97087  28.407  21.772   7.620
96223W        W97088  27.584  19.762  10.762
96224W        W97089  25.914  20.729  10.802
96225W        W97090  29.120  18.651  10.754
96226W        W97091  28.838  19.579   9.375
96227W        W97092  27.146  21.709  10.852
96228W        W97093  27.001  18.338   7.579
96229W        W97094  28.540  20.937   7.522
96230W        W97095  26.309  19.030  10.408
96231W        W97096  26.743  21.024  10.270
96232W        W97097  28.869  19.015  10.068
96233W        W97098  28.080  21.674   8.036
96234W        W97099  28.319  20.293   9.403
96235W        W97100  26.569  18.709  10.070
96236W        W97101  27.038  19.778  10.827
96237W        W97102  26.541  20.957   8.021
96238W        W97103  28.296  20.455   8.285
96239W        W97104  26.064  19.081  10.009
96240W        W97105  27.393  21.143   8.473
96241W        W97106  29.143  19.703   8.654
96242W        W97107  27.365  18.336  10.373
96243W        W97108  28.145  21.041   9.452
96244W        W97109  28.448  21.385   9.160
96245W        W97110  27.667  21.187   7.588
96246W        W97111  25.677  21.079  10.430
96247W        W97112  26.420  19.071   9.668
96248W        W97113  26.390  18.419   8.778
96249W        W97114  28.011  19.261   9.470
96250W        W97115  26.809  20.432   7.670
96251W        W97116  28.807  20.374   9.169
96252W        W97117  26.134  21.132  10.592
96253W        W97118  28.521  21.814   8.389
96254W        W97119  26.620  18.834   8.834
96255W        W97120  26.389  20.327   8.924
96256W        W97121  26.702  21.738   9.674
96257W        W97122  28.769  21.834  10.706
96258W        W97123  27.928  20.022   9.639
96259W        W97124  25.777  19.820   7.554
96260W        W97125  28.911  21.478   8.251
96261W        W97126  28.748  18.802   7.870
96262W        W97127  26.887  18.321  10.273
96263W        W97128  28.593  21.123   8.731
96264W        W97129  28.622  19.679   8.636
96265W        W97130  26.739  19.352   8.852
96266W        W97131  26.984  19.614  10.176
96267W        W97132  28.095  20.767  10.039
96268W        W97133  26.745  19.221  10.151
96269W        W97134  26.724  21.687   8.767
96270W        W97135  26.041  21.646  10.401
96271W        W97136  26.153  21.007   7.531
96272W        W97137  28.670  20.765   8.341
96273W        W97138  26.274  19.557  10.227
96274W        W97139  29.047  19.487   7.708
96275W        W97140  26.792  20.544   8.179
96276W        W97141  27.891  19.926  10.260
96277W        W97142  27.782  19.554   9.804
96278W        W97143  26.342  19.926   9.833
96279W        W97144  28.552  21.814   9.662
96280W        W97145  28.343  18.448  10.656
96281W        W97146  26.007  18.598  10.243
96282W        W97147  26.346  19.621   9.296
96283W        W97148  26.715  19.435   7.418
96284W        W97149  25.518  21.194   9.963
96285W        W97150  27.103  19.903   9.406
96286W        W97151  26.926  18.928   7.511
96287W        W97152  26.061  19.744   8.292
96288W        W97153  25.832  21.596   9.729
96289W        W97154  28.627  19.822   7.837
96290W        W97155  28.722  18.738  10.523
96291W        W97156  28.158  20.947   8.486
96292W        W97157  25.756  19.871  10.663
96293W        W97158  28.722  18.335   7.959
96294W        W97159  28.242  20.810   7.970
96295W        W97160  27.144  19.868   8.055
96296W        W97161  28.331  18.672   7.578
96297W        W97162  28.396  19.279   9.764
96298W        W97163  26.105  19.872   8.971
96299W        W97164  26.399  20.811   8.620
96300W        W97165  28.162  19.431   8.585
96301W        W97166  27.185  18.810   9.281
96302W        W97167  29.147  20.721   9.792
96303W        W97168  29.065  18.708   9.353
96304W        W97169  25.604  21.538   8.729
96305W        W97170  26.113  20.725   8.265
96306W        W97171  26.028  18.342  10.818
96307W        W97172  27.147  21.195  10.920
96308W        W97173  28.902  20.163   8.710
96309W        W97174  28.256  20.340   7.590
96310W        W97175  27.551  21.861   9.802
96311W        W97176  28.408  20.583  10.839
96312W        W97177  27.223  18.293   8.119
96313W        W97178  27.936  19.162   8.978
96314W        W97179  25.622  20.749   9.310
96315W        W97180  26.875  18.711   7.951
96316W        W97181  26.679  20.195  10.800
96317W        W97182  27.673  19.176   8.514
96318W        W97183  27.878  20.586   9.636
96319W        W97184  26.032  21.191  10.071
96320W        W97185  26.623  21.174  10.794
96321W        W97186  26.474  18.971   7.808
96322W        W97187  27.991  19.113   8.133
96323W        W97188  27.949  21.221  10.370
96324W        W97189  26.634  19.813   8.969
96325W        W97190  26.289  21.511   9.834
96326W        W97191  29.034  21.628   7.435
96327W        W97192  25.897  20.300  10.431
96328W        W97193  27.892  20.562   9.119
96329W        W97194  26.328  20.211   8.361
96330W        W97195  26.699  21.218   9.756
96331W        W97196  27.077  18.637   8.797
96332W        W97197  25.688  20.621   7.727
96333W        W97198  27.207  19.572   7.597
96334W        W97199  25.853  20.121   8.616
96335W        W97200  27.143  18.763  10.080
96336W        W97201  28.815  18.472   7.507
96337W        W97202  28.908  20.218  10.606
96338W        W97203  27.562  21.475  10.758
96339W        W97204  29.120  20.569  10.280
96340W        W97205  28.528  21.367  10.891
96341W        W97206  26.267  21.823   9.369
96342W        W97207  29.126  20.445   8.243
96343W        W97208  27.656  19.712   8.756
96344W        W97209  27.423  18.324   8.646
96345W        W97210  26.482  21.308   8.483
96346W        W97211  26.981  19.049   9.708
96347W        W97212  26.681  18.418   9.177
96348W        W97213  25.744  21.240   7.725
96349W        W97214  27.560  20.604   8.443
96350W        W97215  26.435  21.399  10.322
96351W        W97216  25.912  20.222   8.018
96352W        W97217  25.797  18.765   9.017
96353W        W97218  27.345  20.730   9.074
96354W        W97219  25.597  18.584   8.094
96355W        W97220  28.261  19.790  10.021
96356W        W97221  28.138  19.176   7.593
96357W        W97222  28.655  20.848   9.241
96358W        W97223  27.316  21.332   9.072
96359W        W97224  26.728  21.436   7.983
96360W        W97225  28.010  18.339   7.413
96361W        W97226  25.810  21.599   9.154
96362W        W97227  28.007  19.357  10.789
96363W        W97228  25.990  18.887  10.788
96364W        W97229  25.721  19.487   8.121
96365W        W97230  26.412  19.476   7.846
96366W        W97231  28.175  19.803  10.663
96367W        W97232  26.518  20.084   9.372
96368W        W97233  27.992  18.370   8.492
96369W        W97234  27.123  21.801   8.995
96370W        W97235  28.337  21.263   9.932
96371W        W97236  27.921  21.412   9.043
96372W        W97237  27.940  20.392   8.637
96373W        W97238  27.402  18.617   7.708
96374W        W97239  29.083  18.245   8.430
96375W        W97240  26.771  19.880   7.593
96376W        W97241  28.937  19.217   8.583
96377W        W97242  27.629  20.387   7.460
96378W        W97243  28.565  20.587  10.208
96379W        W97244  28.219  21.288   7.675
96380W        W97245  26.834  18.963  10.581
96381W        W97246  26.654  19.547   9.822
96382W        W97247  28.746  21.042  10.099
96383W        W97248  27.846  18.992  10.476
96384W        W97249  25.690  19.463  10.253
96385W        W97250  27.450  19.940   9.979
96386W        W97251  25.807  20.698   8.636
96387W        W97252  25.954  19.995   9.526
96388W        W97253  28.271  20.281   9.876
96389W        W97254  28.043  21.661  10.687
96390W        W97255  27.939  19.400  10.240
96391W        W97256  28.216  21.454   8.645
96392W        W97257  27.218  21.174   9.968
96393W        W97258  26.703  21.529   9.237
96394W        W97259  28.508  20.700   9.656
96395W        W97260  27.558  20.772  10.793
96396W        W97261  26.163  20.725   9.132
96397W        W97262  28.509  20.484   8.777
96398W        W97263  28.150  21.550   9.528
96399W        W97264  26.128  21.279   9.398
96400W        W97265  27.149  19.331  10.608
96401W        W97266  27.600  21.497   8.119
96402W        W97267  26.908  20.752  10.757
96403W        W97268  27.034  20.990   8.134
96404W        W97269  26.255  19.730   7.393
96405W        W97270  25.594  21.816  14.292
96406W        W97271  25.970  20.709  13.815
96407W        W97272  28.675  20.439  11.585
96408W        W97273  28.805  21.524  13.612
96409W        W97274  26.723  21.515  11.138
96410W        W97275  26.806  19.667  12.121
96411W        W97276  26.321  19.515  12.285
96412W        W97277  27.312  20.330  11.719
96413W        W97278  26.987  21.422  14.074
96414W        W97279  25.636  18.983  14.037
96415W        W97280  26.398  18.263  13.839
96416W        W97281  28.092  18.651  12.726
96417W        W97282  27.741  19.522  11.296
96418W        W97283  28.311  18.956  14.387
96419W        W97284  25.677  18.748  13.512
96420W        W97285  25.776  21.367  14.533
96421W        W97286  27.298  20.757  11.265
96422W        W97287  25.730  19.540  12.958
96423W        W97288  26.623  19.431  14.195
96424W        W97289  29.082  19.290  12.694
96425W        W97290  28.846  20.333  13.553
96426W        W97291  27.154  19.666  12.580
96427W        W97292  27.700  21.005  12.949
96428W        W97293  26.200  20.439  13.181
96429W        W97294  25.559  19.967  12.752
96430W        W97295  26.595  19.939  13.944
96431W        W97296  28.866  19.722  14.198
96432W        W97297  26.482  21.166  12.643
96433W        W97298  27.603  20.855  13.777
96434W        W97299  26.823  19.495  13.002
96435W        W97300  27.115  20.279  12.645
96436W        W97301  28.112  21.052  14.493
96437W        W97302  27.191  20.372  14.503
96438W        W97303  27.172  20.088  13.981
96439W        W97304  25.581  19.479  14.503
96440W        W97305  28.413  21.014  14.102
96441W        W97306  25.994  18.596  12.100
96442W        W97307  26.521  20.854  13.099
96443W        W97308  28.984  20.637  12.389
96444W        W97309  28.397  19.037  12.956
96445W        W97310  28.682  18.990  11.051
96446W        W97311  29.147  19.791  13.357
96447W        W97312  27.114  21.498  13.110
96448W        W97313  28.888  20.964  11.548
96449W        W97314  26.017  21.750  11.302
96450W        W97315  26.410  21.796  11.978
96451W        W97316  26.207  18.550  13.404
96452W        W97317  28.830  19.568  13.679
96453W        W97318  28.235  19.990  12.138
96454W        W97319  28.201  19.678  11.165
96455W        W97320  27.409  20.822  13.305
96456W        W97321  27.215  19.152  12.504
96457W        W97322  27.815  21.239  13.498
96458W        W97323  28.686  20.030  11.920
96459W        W97324  27.588  18.688  11.936
96460W        W97325  26.245  21.382  11.619
96461W        W97326  25.616  18.881  12.218
96462W        W97327  28.402  19.488  12.692
96463W        W97328  25.860  21.105  12.607
96464W        W97329  27.201  21.455  11.477
96465W        W97330  28.593  19.481  10.941
96466W        W97331  25.616  21.239  13.105
96467W        W97332  26.407  20.811  13.585
96468W        W97333  26.780  20.171  12.204
96469W        W97334  26.802  18.576  13.297
96470W        W97335  29.031  18.338  12.594
96471W        W97336  26.250  20.210  11.062
96472W        W97337  25.905  19.243  11.241
96473W        W97338  25.967  21.199  12.035
96474W        W97339  27.098  20.682  12.283
96475W        W97340  28.430  21.541  13.997
96476W        W97341  27.356  19.183  11.681
96477W        W97342  28.739  21.581  12.453
96478W        W97343  28.416  19.434  14.051
96479W        W97344  29.129  21.090  12.185
96480W        W97345  27.756  20.382  13.669
96481W        W97346  25.522  19.933  11.875
96482W        W97347  26.633  20.348  13.448
96483W        W97348  27.837  19.612  11.826
96484W        W97349  27.714  20.102  11.930
96485W        W97350  26.057  19.522  13.404
96486W        W97351  26.042  19.398  14.326
96487W        W97352  25.932  18.315  12.485
96488W        W97353  27.700  18.662  13.046
96489W        W97354  27.348  18.847  14.209
96490W        W97355  27.703  18.996  11.387
96491W        W97356  28.886  21.389  14.141
96492W        W97357  27.853  18.470  14.180
96493W        W97358  28.872  20.771  14.302
96494W        W97359  28.302  18.938  13.898
96495W        W97360  28.102  18.876  12.168
96496W        W97361  28.495  20.010  14.572
96497W        W97362  26.235  21.586  12.558
96498W        W97363  26.893  19.303  11.544
96499W        W97364  26.462  18.587  14.208
96500W        W97365  28.514  19.071  11.889
96501W        W97366  28.881  19.553  11.834
96502W        W97367  26.624  21.770  14.305
96503W        W97368  26.550  18.306  11.540
96504W        W97369  28.871  18.840  12.575
96505W        W97370  29.021  21.089  11.020
96506W        W97371  25.928  20.292  12.722
96507W        W97372  27.845  18.879  10.952
96508W        W97373  28.979  21.211  12.672
96509W        W97374  29.018  18.405  13.422
96510W        W97375  27.463  19.617  13.976
96511W        W97376  27.556  20.956  11.679
96512W        W97377  27.956  20.250  14.419
96513W        W97378  27.630  18.227  12.728
96514W        W97379  26.242  19.130  12.791
96515W        W97380  25.796  20.330  13.565
96516W        W97381  27.655  21.523  12.271
96517W        W97382  28.849  19.120  13.143
96518W        W97383  27.486  21.467  13.910
96519W        W97384  28.829  20.526  11.115
96520W        W97385  27.264  20.009  12.176
96521W        W97386  29.116  18.520  13.917
96522W        W97387  27.265  20.355  13.511
96523W        W97388  27.482  19.241  12.956
96524W        W97389  28.334  19.539  11.794
96525W        W97390  28.621  19.272  11.436
96526W        W97391  28.430  21.312  11.825
96527W        W97392  28.264  20.915  12.621
96528W        W97393  28.160  19.994  11.599
96529W        W97394  27.593  20.204  12.585
96530W        W97395  28.474  19.992  12.652
96531W        W97396  25.849  19.007  13.076
96532W        W97397  28.627  20.059  13.903
96533W        W97398  28.978  21.677  13.049
96534W        W97399  26.908  21.121  12.451
96535W        W97400  27.915  21.654  13.775
96536W        W97401  27.909  18.984  13.539
96537W        W97402  27.116  21.692  13.600
96538W        W97403  28.813  18.646  12.066
96539W        W97404  28.604  19.965  13.367
96540W        W97405  25.587  19.286  13.405
96541W        W97406  28.447  19.081  12.423
96542W        W97407  28.858  19.232  14.200
96543W        W97408  27.743  20.931  12.418
96544W        W97409  26.999  21.522  12.031
96545W        W97410  26.114  18.702  11.289
96546W        W97411  27.218  18.356  13.099
96547W        W97412  26.246  21.476  10.947
96548W        W97413  26.620  19.942  11.698
96549W        W97414  27.274  20.571  14.011
96550W        W97415  27.104  18.929  12.001
96551W        W97416  28.460  18.526  12.429
96552W        W97417  28.180  21.808  12.757
96553W        W97418  27.592  21.456  13.097
96554W        W97419  26.988  20.493  13.058
96555W        W97420  28.758  21.216  13.184
96556W        W97421  26.452  18.719  11.953
96557W        W97422  26.974  21.016  12.913
96558W        W97423  26.457  18.947  10.978
96559W        W97424  27.258  19.556  13.372
96560W        W97425  28.106  18.422  13.242
96561W        W97426  25.526  20.265  13.127
96562W        W97427  27.230  20.083  11.285
96563W        W97428  26.498  18.398  11.055
96564W        W97429  27.236  19.479  12.106
96565W        W97430  28.206  18.455  13.805
96566W        W97431  26.794  20.467  13.914
96567W        W97432  27.598  20.249  14.131
96568W        W97433  28.215  20.279  14.024
96569W        W97434  27.499  18.419  14.529
96570W        W97435  26.721  19.035  12.922
96571W        W97436  26.147  18.991  12.320
96572W        W97437  25.933  21.703  11.996
96573W        W97438  27.265  21.033  14.121
96574W        W97439  26.300  20.518  11.480
96575W        W97440  27.980  19.903  12.701
96576W        W97441  28.260  19.702  13.100
96577W        W97442  27.465  20.376  13.034
96578W        W97443  27.935  20.750  11.166
96579W        W97444  27.607  18.771  12.494
96580W        W97445  29.086  19.049  11.762
96581W        W97446  25.580  21.638  13.793
96582W        W97447  25.997  20.864  13.325
96583W        W97448  25.564  21.710  11.557
96584W        W97449  27.463  18.980  13.363
96585W        W97450  26.826  21.003  11.212
96586W        W97451  28.731  21.385  11.398
96587W        W97452  27.706  20.038  11.412
96588W        W97453  26.549  19.229  11.929
96589W        W97454  27.381  19.139  10.981
96590W        W97455  27.965  20.704  14.159
96591W        W97456  28.318  18.610  11.776
96592W        W97457  25.648  18.458  11.224
96593W        W97458  26.934  20.777  13.514
96594W        W97459  26.733  20.693  12.606
96595W        W97460  26.475  20.645  11.004
96596W        W97461  25.716  20.886  11.772
96597W        W97462  26.220  19.956  14.214
96598W        W97463  26.924  18.516  14.400
96599W        W97464  27.633  18.658  13.756
96600W        W97465  26.828  18.426  12.037
96601W        W97466  27.887  18.503  11.542
96602W        W97467  25.832  18.435  13.119
96603W        W97468  25.880  19.398  12.489
96604W        W97469  28.569  18.506  12.895
96605W        W97470  25.991  19.004  11.709
96606W        W97471  28.562  18.692  13.325
96607W        W97472  28.958  19.895  11.010
96608W        W97473  26.250  18.653  12.829
96609W        W97474  27.364  19.225  13.769
96610W        W97475  25.512  18.915  11.247
96611W        W97476  26.298  20.304  13.808
96612W        W97477  27.656  19.702  12.987
96613W        W97478  27.523  21.781  11.283
96614W        W97479  25.669  20.288  10.980
96615W        W97480  26.404  20.699  14.106
96616W        W97481  25.925  19.866  13.737
96617W        W97482  26.916  19.971  13.531
96618W        W97483  28.684  18.330  13.793
96619W        W97484  29.082  19.940  13.784
96620W        W97485  29.070  20.140  11.470
96621W        W97486  27.933  20.472  11.569
96622W        W97487  28.407  21.772  11.264
96623W        W97488  27.584  19.762  14.406
96624W        W97489  25.914  20.729  14.446
96625W        W97490  29.120  18.651  14.398
96626W        W97491  28.838  19.579  13.019
96627W        W97492  27.146  21.709  14.496
96628W        W97493  27.001  18.338  11.223
96629W        W97494  28.540  20.937  11.166
96630W        W97495  26.309  19.030  14.052
96631W        W97496  26.743  21.024  13.914
96632W        W97497  28.869  19.015  13.712
96633W        W97498  28.080  21.674  11.680
96634W        W97499  28.319  20.293  13.047
96635W        W97500  26.569  18.709  13.714
96636W        W97501  27.038  19.778  14.471
96637W        W97502  26.541  20.957  11.665
96638W        W97503  28.296  20.455  11.929
96639W        W97504  26.064  19.081  13.653
96640W        W97505  27.393  21.143  12.117
96641W        W97506  29.143  19.703  12.298
96642W        W97507  27.365  18.336  14.017
96643W        W97508  28.145  21.041  13.096
96644W        W97509  28.448  21.385  12.804
96645W        W97510  27.667  21.187  11.232
96646W        W97511  25.677  21.079  14.074
96647W        W97512  26.420  19.071  13.312
96648W        W97513  26.390  18.419  12.422
96649W        W97514  28.011  19.261  13.114
96650W        W97515  26.809  20.432  11.314
96651W        W97516  28.807  20.374  12.813
96652W        W97517  26.134  21.132  14.236
96653W        W97518  28.521  21.814  12.033
96654W        W97519  26.620  18.834  12.478
96655W        W97520  26.389  20.327  12.568
96656W        W97521  26.702  21.738  13.318
96657W        W97522  28.769  21.834  14.350
96658W        W97523  27.928  20.022  13.283
96659W        W97524  25.777  19.820  11.198
96660W        W97525  28.911  21.478  11.895
96661W        W97526  28.748  18.802  11.514
96662W        W97527  26.887  18.321  13.917
96663W        W97528  28.593  21.123  12.375
96664W        W97529  28.622  19.679  12.280
96665W        W97530  26.739  19.352  12.496
96666W        W97531  26.984  19.614  13.820
96667W        W97532  28.095  20.767  13.683
96668W        W97533  26.745  19.221  13.795
96669W        W97534  26.724  21.687  12.411
96670W        W97535  26.041  21.646  14.045
96671W        W97536  26.153  21.007  11.175
96672W        W97537  28.670  20.765  11.985
96673W        W97538  26.274  19.557  13.871
96674W        W97539  29.047  19.487  11.352
96675W        W97540  26.792  20.544  11.823
96676W        W97541  27.891  19.926  13.904
96677W        W97542  27.782  19.554  13.448
96678W        W97543  26.342  19.926  13.477
96679W        W97544  28.552  21.814  13.306
96680W        W97545  28.343  18.448  14.300
96681W        W97546  26.007  18.598  13.887
96682W        W97547  26.346  19.621  12.940
96683W        W97548  26.715  19.435  11.062
96684W        W97549  25.518  21.194  13.607
96685W        W97550  27.103  19.903  13.050
96686W        W97551  26.926  18.928  11.155
96687W        W97552  26.061  19.744  11.936
96688W        W97553  25.832  21.596  13.373
96689W        W97554  28.627  19.822  11.481
96690W        W97555  28.722  18.738  14.167
96691W        W97556  28.158  20.947  12.130
96692W        W97557  25.756  19.871  14.307
96693W        W97558  28.722  18.335  11.603
96694W        W97559  28.242  20.810  11.614
96695W        W97560  27.144  19.868  11.699
96696W        W97561  28.331  18.672  11.222
96697W        W97562  28.396  19.279  13.408
96698W        W97563  26.105  19.872  12.615
96699W        W97564  26.399  20.811  12.264
96700W        W97565  27.185  18.810  12.925
96701W        W97566  29.147  20.721  13.436
96702W        W97567  29.065  18.708  12.997
96703W        W97568  25.604  21.538  12.373
96704W        W97569  26.113  20.725  11.909
96705W        W97570  26.028  18.342  14.462
96706W        W97571  27.147  21.195  14.564
96707W        W97572  28.902  20.163  12.354
96708W        W97573  28.256  20.340  11.234
96709W        W97574  27.551  21.861  13.446
96710W        W97575  28.408  20.583  14.483
96711W        W97576  27.223  18.293  11.763
96712W        W97577  27.936  19.162  12.622
96713W        W97578  25.622  20.749  12.954
96714W        W97579  26.875  18.711  11.595
96715W        W97580  26.679  20.195  14.444
96716W        W97581  27.673  19.176  12.158
96717W        W97582  27.878  20.586  13.280
96718W        W97583  26.032  21.191  13.715
96719W        W97584  26.623  21.174  14.438
96720W        W97585  26.474  18.971  11.452
96721W        W97586  27.991  19.113  11.777
96722W        W97587  27.949  21.221  14.014
96723W        W97588  26.634  19.813  12.613
96724W        W97589  26.289  21.511  13.478
96725W        W97590  29.034  21.628  11.079
96726W        W97591  25.897  20.300  14.075
96727W        W97592  27.892  20.562  12.763
96728W        W97593  26.328  20.211  12.005
96729W        W97594  26.699  21.218  13.400
96730W        W97595  27.077  18.637  12.441
96731W        W97596  25.688  20.621  11.371
96732W        W97597  27.207  19.572  11.241
96733W        W97598  25.853  20.121  12.260
96734W        W97599  28.815  18.472  11.151
96735W        W97600  28.908  20.218  14.250
96736W        W97601  27.562  21.475  14.402
96737W        W97602  29.120  20.569  13.924
96738W        W97603  28.528  21.367  14.535
96739W        W97604  26.267  21.823  13.013
96740W        W97605  29.126  20.445  11.887
96741W        W97606  27.656  19.712  12.400
96742W        W97607  27.423  18.324  12.290
96743W        W97608  26.482  21.308  12.127
96744W        W97609  26.981  19.049  13.352
96745W        W97610  26.681  18.418  12.821
96746W        W97611  25.744  21.240  11.369
96747W        W97612  27.560  20.604  12.087
96748W        W97613  26.435  21.399  13.966
96749W        W97614  25.912  20.222  11.662
96750W        W97615  25.797  18.765  12.661
96751W        W97616  27.345  20.730  12.718
96752W        W97617  25.597  18.584  11.738
96753W        W97618  28.261  19.790  13.665
96754W        W97619  28.138  19.176  11.237
96755W        W97620  28.655  20.848  12.885
96756W        W97621  27.316  21.332  12.716
96757W        W97622  26.728  21.436  11.627
96758W        W97623  28.010  18.339  11.057
96759W        W97624  25.810  21.599  12.798
96760W        W97625  28.007  19.357  14.433
96761W        W97626  25.990  18.887  14.432
96762W        W97627  25.721  19.487  11.765
96763W        W97628  26.412  19.476  11.490
96764W        W97629  28.175  19.803  14.307
96765W        W97630  26.518  20.084  13.016
96766W        W97631  27.992  18.370  12.136
96767W        W97632  27.123  21.801  12.639
96768W        W97633  28.337  21.263  13.576
96769W        W97634  27.921  21.412  12.687
96770W        W97635  27.940  20.392  12.281
96771W        W97636  27.402  18.617  11.352
96772W        W97637  29.083  18.245  12.074
96773W        W97638  26.771  19.880  11.237
96774W        W97639  28.937  19.217  12.227
96775W        W97640  27.629  20.387  11.104
96776W        W97641  28.565  20.587  13.852
96777W        W97642  28.219  21.288  11.319
96778W        W97643  26.834  18.963  14.225
96779W        W97644  26.654  19.547  13.466
96780W        W97645  28.746  21.042  13.743
96781W        W97646  27.846  18.992  14.120
96782W        W97647  25.690  19.463  13.897
96783W        W97648  27.450  19.940  13.623
96784W        W97649  25.807  20.698  12.280
96785W        W97650  25.954  19.995  13.170
96786W        W97651  28.271  20.281  13.520
96787W        W97652  28.043  21.661  14.331
96788W        W97653  27.939  19.400  13.884
96789W        W97654  28.216  21.454  12.289
96790W        W97655  27.218  21.174  13.612
96791W        W97656  26.703  21.529  12.881
96792W        W97657  28.508  20.700  13.300
96793W        W97658  27.558  20.772  14.437
96794W        W97659  26.163  20.725  12.776
96795W        W97660  28.509  20.484  12.421
96796W        W97661  28.150  21.550  13.172
96797W        W97662  26.128  21.279  13.042
96798W        W97663  27.149  19.331  14.252
96799W        W97664  27.600  21.497  11.763
96800W        W97665  26.908  20.752  14.401
96801W        W97666  27.034  20.990  11.778
96802W        W97667  26.255  19.730  11.037
96803W        W97668  25.594  21.816  17.936
96804W        W97669  25.970  20.709  17.459
96805W        W97670  28.675  20.439  15.229
96806W        W97671  28.805  21.524  17.256
96807W        W97672  26.723  21.515  14.782
96808W        W97673  26.806  19.667  15.765
96809W        W97674  26.321  19.515  15.929
96810W        W97675  27.312  20.330  15.363
96811W        W97676  26.987  21.422  17.718
96812W        W97677  25.636  18.983  17.681
96813W        W97678  26.398  18.263  17.483
96814W        W97679  28.092  18.651  16.370
96815W        W97680  27.741  19.522  14.940
96816W        W97681  28.311  18.956  18.031
96817W        W97682  25.677  18.748  17.156
96818W        W97683  25.776  21.367  18.177
96819W        W97684  27.298  20.757  14.909
96820W        W97685  25.730  19.540  16.602
96821W        W97686  26.623  19.431  17.839
96822W        W97687  29.082  19.290  16.338
96823W        W97688  28.846  20.333  17.197
96824W        W97689  27.154  19.666  16.224
96825W        W97690  27.700  21.005  16.593
96826W        W97691  26.200  20.439  16.825
96827W        W97692  25.559  19.967  16.396
96828W        W97693  26.595  19.939  17.588
96829W        W97694  28.866  19.722  17.842
96830W        W97695  26.482  21.166  16.287
96831W        W97696  27.603  20.855  17.421
96832W        W97697  26.823  19.495  16.646
96833W        W97698  27.115  20.279  16.289
96834W        W97699  28.112  21.052  18.137
96835W        W97700  27.191  20.372  18.147
96836W        W97701  27.172  20.088  17.625
96837W        W97702  25.581  19.479  18.147
96838W        W97703  28.413  21.014  17.746
96839W        W97704  25.994  18.596  15.744
96840W        W97705  26.521  20.854  16.743
96841W        W97706  28.984  20.637  16.033
96842W        W97707  28.397  19.037  16.600
96843W        W97708  28.682  18.990  14.695
96844W        W97709  29.147  19.791  17.001
96845W        W97710  27.114  21.498  16.754
96846W        W97711  28.888  20.964  15.192
96847W        W97712  26.017  21.750  14.946
96848W        W97713  26.410  21.796  15.622
96849W        W97714  26.207  18.550  17.048
96850W        W97715  28.830  19.568  17.323
96851W        W97716  28.235  19.990  15.782
96852W        W97717  28.201  19.678  14.809
96853W        W97718  27.409  20.822  16.949
96854W        W97719  27.215  19.152  16.148
96855W        W97720  27.815  21.239  17.142
96856W        W97721  28.686  20.030  15.564
96857W        W97722  27.588  18.688  15.580
96858W        W97723  26.245  21.382  15.263
96859W        W97724  25.616  18.881  15.862
96860W        W97725  28.402  19.488  16.336
96861W        W97726  25.860  21.105  16.251
96862W        W97727  27.201  21.455  15.121
96863W        W97728  28.593  19.481  14.585
96864W        W97729  25.616  21.239  16.749
96865W        W97730  26.407  20.811  17.229
96866W        W97731  26.780  20.171  15.848
96867W        W97732  26.802  18.576  16.941
96868W        W97733  29.031  18.338  16.238
96869W        W97734  26.250  20.210  14.706
96870W        W97735  25.905  19.243  14.885
96871W        W97736  25.967  21.199  15.679
96872W        W97737  27.098  20.682  15.927
96873W        W97738  28.430  21.541  17.641
96874W        W97739  27.356  19.183  15.325
96875W        W97740  28.739  21.581  16.097
96876W        W97741  28.416  19.434  17.695
96877W        W97742  29.129  21.090  15.829
96878W        W97743  27.756  20.382  17.313
96879W        W97744  25.522  19.933  15.519
96880W        W97745  26.633  20.348  17.092
96881W        W97746  27.837  19.612  15.470
96882W        W97747  27.714  20.102  15.574
96883W        W97748  26.057  19.522  17.048
96884W        W97749  26.042  19.398  17.970
96885W        W97750  25.932  18.315  16.129
96886W        W97751  27.700  18.662  16.690
96887W        W97752  27.348  18.847  17.853
96888W        W97753  27.703  18.996  15.031
96889W        W97754  28.886  21.389  17.785
96890W        W97755  27.853  18.470  17.824
96891W        W97756  28.872  20.771  17.946
96892W        W97757  28.302  18.938  17.542
96893W        W97758  28.102  18.876  15.812
96894W        W97759  28.495  20.010  18.216
96895W        W97760  26.235  21.586  16.202
96896W        W97761  26.893  19.303  15.188
96897W        W97762  26.462  18.587  17.852
96898W        W97763  28.514  19.071  15.533
96899W        W97764  28.881  19.553  15.478
96900W        W97765  26.624  21.770  17.949
96901W        W97766  26.550  18.306  15.184
96902W        W97767  28.871  18.840  16.219
96903W        W97768  29.021  21.089  14.664
96904W        W97769  25.928  20.292  16.366
96905W        W97770  27.845  18.879  14.596
96906W        W97771  28.979  21.211  16.316
96907W        W97772  29.018  18.405  17.066
96908W        W97773  27.463  19.617  17.620
96909W        W97774  27.556  20.956  15.323
96910W        W97775  27.956  20.250  18.063
96911W        W97776  27.630  18.227  16.372
96912W        W97777  26.242  19.130  16.435
96913W        W97778  25.796  20.330  17.209
96914W        W97779  27.655  21.523  15.915
96915W        W97780  28.849  19.120  16.787
96916W        W97781  27.486  21.467  17.554
96917W        W97782  28.829  20.526  14.759
96918W        W97783  27.264  20.009  15.820
96919W        W97784  29.116  18.520  17.561
96920W        W97785  27.265  20.355  17.155
96921W        W97786  27.482  19.241  16.600
96922W        W97787  28.334  19.539  15.438
96923W        W97788  28.621  19.272  15.080
96924W        W97789  28.430  21.312  15.469
96925W        W97790  28.264  20.915  16.265
96926W        W97791  28.160  19.994  15.243
96927W        W97792  27.593  20.204  16.229
96928W        W97793  28.474  19.992  16.296
96929W        W97794  25.849  19.007  16.720
96930W        W97795  28.627  20.059  17.547
96931W        W97796  28.978  21.677  16.693
96932W        W97797  26.908  21.121  16.095
96933W        W97798  27.915  21.654  17.419
96934W        W97799  27.909  18.984  17.183
96935W        W97800  27.116  21.692  17.244
96936W        W97801  28.813  18.646  15.710
96937W        W97802  28.604  19.965  17.011
96938W        W97803  25.587  19.286  17.049
96939W        W97804  28.447  19.081  16.067
96940W        W97805  28.858  19.232  17.844
96941W        W97806  27.743  20.931  16.062
96942W        W97807  26.999  21.522  15.675
96943W        W97808  26.114  18.702  14.933
96944W        W97809  27.218  18.356  16.743
96945W        W97810  26.246  21.476  14.591
96946W        W97811  26.620  19.942  15.342
96947W        W97812  27.274  20.571  17.655
96948W        W97813  27.104  18.929  15.645
96949W        W97814  28.460  18.526  16.073
96950W        W97815  28.180  21.808  16.401
96951W        W97816  27.592  21.456  16.741
96952W        W97817  26.988  20.493  16.702
96953W        W97818  28.758  21.216  16.828
96954W        W97819  26.452  18.719  15.597
96955W        W97820  26.974  21.016  16.557
96956W        W97821  26.457  18.947  14.622
96957W        W97822  27.258  19.556  17.016
96958W        W97823  28.106  18.422  16.886
96959W        W97824  25.526  20.265  16.771
96960W        W97825  27.230  20.083  14.929
96961W        W97826  26.498  18.398  14.699
96962W        W97827  27.236  19.479  15.750
96963W        W97828  28.206  18.455  17.449
96964W        W97829  26.794  20.467  17.558
96965W        W97830  27.598  20.249  17.775
96966W        W97831  28.215  20.279  17.668
96967W        W97832  27.499  18.419  18.173
96968W        W97833  26.721  19.035  16.566
96969W        W97834  26.147  18.991  15.964
96970W        W97835  25.933  21.703  15.640
96971W        W97836  27.265  21.033  17.765
96972W        W97837  26.300  20.518  15.124
96973W        W97838  27.980  19.903  16.345
96974W        W97839  28.260  19.702  16.744
96975W        W97840  27.465  20.376  16.678
96976W        W97841  27.935  20.750  14.810
96977W        W97842  27.607  18.771  16.138
96978W        W97843  29.086  19.049  15.406
96979W        W97844  25.580  21.638  17.437
96980W        W97845  25.997  20.864  16.969
96981W        W97846  25.564  21.710  15.201
96982W        W97847  27.463  18.980  17.007
96983W        W97848  26.826  21.003  14.856
96984W        W97849  28.731  21.385  15.042
96985W        W97850  27.706  20.038  15.056
96986W        W97851  26.549  19.229  15.573
96987W        W97852  27.381  19.139  14.625
96988W        W97853  27.965  20.704  17.803
96989W        W97854  28.318  18.610  15.420
96990W        W97855  25.648  18.458  14.868
96991W        W97856  26.934  20.777  17.158
96992W        W97857  26.733  20.693  16.250
96993W        W97858  26.475  20.645  14.648
96994W        W97859  25.716  20.886  15.416
96995W        W97860  26.220  19.956  17.858
96996W        W97861  26.924  18.516  18.044
96997W        W97862  27.633  18.658  17.400
96998W        W97863  26.828  18.426  15.681
96999W        W97864  27.887  18.503  15.186
97000W        W97865  25.832  18.435  16.763
97001W        W97866  25.880  19.398  16.133
97002W        W97867  28.569  18.506  16.539
97003W        W97868  25.991  19.004  15.353
97004W        W97869  28.562  18.692  16.969
97005W        W97870  28.958  19.895  14.654
97006W        W97871  26.250  18.653  16.473
97007W        W97872  27.364  19.225  17.413
97008W        W97873  25.512  18.915  14.891
97009W        W97874  26.298  20.304  17.452
97010W        W97875  27.656  19.702  16.631
97011W        W97876  27.523  21.781  14.927
97012W        W97877  25.669  20.288  14.624
97013W        W97878  26.404  20.699  17.750
97014W        W97879  25.925  19.866  17.381
97015W        W97880  26.916  19.971  17.175
97016W        W97881  28.684  18.330  17.437
97017W        W97882  29.082  19.940  17.428
97018W        W97883  29.070  20.140  15.114
97019W        W97884  27.933  20.472  15.213
97020W        W97885  28.407  21.772  14.908
97021W        W97886  27.584  19.762  18.050
97022W        W97887  25.914  20.729  18.090
97023W        W97888  29.120  18.651  18.042
97024W        W97889  28.838  19.579  16.663
97025W        W97890  27.146  21.709  18.140
97026W        W97891  27.001  18.338  14.867
97027W        W97892  28.540  20.937  14.810
97028W        W97893  26.309  19.030  17.696
97029W        W97894  26.743  21.024  17.558
97030W        W97895  28.869  19.015  17.356
97031W        W97896  28.080  21.674  15.324
97032W        W97897  28.319  20.293  16.691
97033W        W97898  26.569  18.709  17.358
97034W        W97899  27.038  19.778  18.115
97035W        W97900  26.541  20.957  15.309
97036W        W97901  28.296  20.455  15.573
97037W        W97902  26.064  19.081  17.297
97038W        W97903  27.393  21.143  15.761
97039W        W97904  29.143  19.703  15.942
97040W        W97905  27.365  18.336  17.661
97041W        W97906  28.145  21.041  16.740
97042W        W97907  28.448  21.385  16.448
97043W        W97908  27.667  21.187  14.876
97044W        W97909  25.677  21.079  17.718
97045W        W97910  26.420  19.071  16.956
97046W        W97911  26.390  18.419  16.066
97047W        W97912  28.011  19.261  16.758
97048W        W97913  26.809  20.432  14.958
97049W        W97914  28.807  20.374  16.457
97050W        W97915  26.134  21.132  17.880
97051W        W97916  28.521  21.814  15.677
97052W        W97917  26.620  18.834  16.122
97053W        W97918  26.389  20.327  16.212
97054W        W97919  26.702  21.738  16.962
97055W        W97920  28.769  21.834  17.994
97056W        W97921  27.928  20.022  16.927
97057W        W97922  25.777  19.820  14.842
97058W        W97923  28.911  21.478  15.539
97059W        W97924  28.748  18.802  15.158
97060W        W97925  26.887  18.321  17.561
97061W        W97926  28.593  21.123  16.019
97062W        W97927  28.622  19.679  15.924
97063W        W97928  26.739  19.352  16.140
97064W        W97929  26.984  19.614  17.464
97065W        W97930  28.095  20.767  17.327
97066W        W97931  26.745  19.221  17.439
97067W        W97932  26.724  21.687  16.055
97068W        W97933  26.041  21.646  17.689
97069W        W97934  26.153  21.007  14.819
97070W        W97935  28.670  20.765  15.629
97071W        W97936  26.274  19.557  17.515
97072W        W97937  29.047  19.487  14.996
97073W        W97938  26.792  20.544  15.467
97074W        W97939  27.891  19.926  17.548
97075W        W97940  27.782  19.554  17.092
97076W        W97941  26.342  19.926  17.121
97077W        W97942  28.552  21.814  16.950
97078W        W97943  28.343  18.448  17.944
97079W        W97944  26.007  18.598  17.531
97080W        W97945  26.346  19.621  16.584
97081W        W97946  26.715  19.435  14.706
97082W        W97947  25.518  21.194  17.251
97083W        W97948  27.103  19.903  16.694
97084W        W97949  26.926  18.928  14.799
97085W        W97950  26.061  19.744  15.580
97086W        W97951  25.832  21.596  17.017
97087W        W97952  28.627  19.822  15.125
97088W        W97953  28.722  18.738  17.811
97089W        W97954  28.158  20.947  15.774
97090W        W97955  25.756  19.871  17.951
97091W        W97956  28.722  18.335  15.247
97092W        W97957  28.242  20.810  15.258
97093W        W97958  27.144  19.868  15.343
97094W        W97959  28.331  18.672  14.866
97095W        W97960  28.396  19.279  17.052
97096W        W97961  26.105  19.872  16.259
97097W        W97962  26.399  20.811  15.908
97098W        W97963  28.162  19.431  15.873
97099W        W97964  27.185  18.810  16.569
97100W        W97965  29.147  20.721  17.080
97101W        W97966  29.065  18.708  16.641
97102W        W97967  25.604  21.538  16.017
97103W        W97968  26.113  20.725  15.553
97104W        W97969  26.028  18.342  18.106
97105W        W97970  27.147  21.195  18.208
97106W        W97971  28.902  20.163  15.998
97107W        W97972  28.256  20.340  14.878
97108W        W97973  27.551  21.861  17.090
97109W        W97974  28.408  20.583  18.127
97110W        W97975  27.223  18.293  15.407
97111W        W97976  27.936  19.162  16.266
97112W        W97977  25.622  20.749  16.598
97113W        W97978  26.875  18.711  15.239
97114W        W97979  26.679  20.195  18.088
97115W        W97980  27.673  19.176  15.802
97116W        W97981  27.878  20.586  16.924
97117W        W97982  26.032  21.191  17.359
97118W        W97983  26.623  21.174  18.082
97119W        W97984  26.474  18.971  15.096
97120W        W97985  27.991  19.113  15.421
97121W        W97986  27.949  21.221  17.658
97122W        W97987  26.634  19.813  16.257
97123W        W97988  26.289  21.511  17.122
97124W        W97989  29.034  21.628  14.723
97125W        W97990  25.897  20.300  17.719
97126W        W97991  27.892  20.562  16.407
97127W        W97992  26.328  20.211  15.649
97128W        W97993  26.699  21.218  17.044
97129W        W97994  27.077  18.637  16.085
97130W        W97995  25.688  20.621  15.015
97131W        W97996  27.207  19.572  14.885
97132W        W97997  25.853  20.121  15.904
97133W        W97998  27.143  18.763  17.368
97134W        W97999  28.815  18.472  14.795
97135W        W98000  28.908  20.218  17.894
97136W        W98001  27.562  21.475  18.046
97137W        W98002  29.120  20.569  17.568
97138W        W98003  28.528  21.367  18.179
97139W        W98004  26.267  21.823  16.657
97140W        W98005  29.126  20.445  15.531
97141W        W98006  27.656  19.712  16.044
97142W        W98007  27.423  18.324  15.934
97143W        W98008  26.482  21.308  15.771
97144W        W98009  26.981  19.049  16.996
97145W        W98010  26.681  18.418  16.465
97146W        W98011  25.744  21.240  15.013
97147W        W98012  27.560  20.604  15.731
97148W        W98013  26.435  21.399  17.610
97149W        W98014  25.912  20.222  15.306
97150W        W98015  25.797  18.765  16.305
97151W        W98016  27.345  20.730  16.362
97152W        W98017  25.597  18.584  15.382
97153W        W98018  28.261  19.790  17.309
97154W        W98019  28.138  19.176  14.881
97155W        W98020  28.655  20.848  16.529
97156W        W98021  27.316  21.332  16.360
97157W        W98022  26.728  21.436  15.271
97158W        W98023  28.010  18.339  14.701
97159W        W98024  25.810  21.599  16.442
97160W        W98025  28.007  19.357  18.077
97161W        W98026  25.990  18.887  18.076
97162W        W98027  25.721  19.487  15.409
97163W        W98028  26.412  19.476  15.134
97164W        W98029  28.175  19.803  17.951
97165W        W98030  26.518  20.084  16.660
97166W        W98031  27.992  18.370  15.780
97167W        W98032  27.123  21.801  16.283
97168W        W98033  28.337  21.263  17.220
97169W        W98034  27.921  21.412  16.331
97170W        W98035  27.940  20.392  15.925
97171W        W98036  27.402  18.617  14.996
97172W        W98037  29.083  18.245  15.718
97173W        W98038  26.771  19.880  14.881
97174W        W98039  28.937  19.217  15.871
97175W        W98040  27.629  20.387  14.748
97176W        W98041  28.565  20.587  17.496
97177W        W98042  28.219  21.288  14.963
97178W        W98043  26.834  18.963  17.869
97179W        W98044  26.654  19.547  17.110
97180W        W98045  28.746  21.042  17.387
97181W        W98046  27.846  18.992  17.764
97182W        W98047  25.690  19.463  17.541
97183W        W98048  27.450  19.940  17.267
97184W        W98049  25.807  20.698  15.924
97185W        W98050  25.954  19.995  16.814
97186W        W98051  28.271  20.281  17.164
97187W        W98052  28.043  21.661  17.975
97188W        W98053  27.939  19.400  17.528
97189W        W98054  28.216  21.454  15.933
97190W        W98055  27.218  21.174  17.256
97191W        W98056  26.703  21.529  16.525
97192W        W98057  28.508  20.700  16.944
97193W        W98058  27.558  20.772  18.081
97194W        W98059  26.163  20.725  16.420
97195W        W98060  28.509  20.484  16.065
97196W        W98061  28.150  21.550  16.816
97197W        W98062  26.128  21.279  16.686
97198W        W98063  27.149  19.331  17.896
97199W        W98064  27.600  21.497  15.407
97200W        W98065  26.908  20.752  18.045
97201W        W98066  27.034  20.990  15.422
97202W        W98067  26.255  19.730  14.681
97203W        W98068  25.594  21.816  21.580
97204W        W98069  25.970  20.709  21.103
97205W        W98070  28.675  20.439  18.873
97206W        W98071  28.805  21.524  20.900
97207W        W98072  26.723  21.515  18.426
97208W        W98073  26.806  19.667  19.409
97209W        W98074  26.321  19.515  19.573
97210W        W98075  27.312  20.330  19.007
97211W        W98076  26.987  21.422  21.362
97212W        W98077  25.636  18.983  21.325
97213W        W98078  26.398  18.263  21.127
97214W        W98079  28.092  18.651  20.014
97215W        W98080  27.741  19.522  18.584
97216W        W98081  28.311  18.956  21.675
97217W        W98082  25.677  18.748  20.800
97218W        W98083  25.776  21.367  21.821
97219W        W98084  27.298  20.757  18.553
97220W        W98085  25.730  19.540  20.246
97221W        W98086  26.623  19.431  21.483
97222W        W98087  29.082  19.290  19.982
97223W        W98088  28.846  20.333  20.841
97224W        W98089  27.154  19.666  19.868
97225W        W98090  27.700  21.005  20.237
97226W        W98091  26.200  20.439  20.469
97227W        W98092  25.559  19.967  20.040
97228W        W98093  26.595  19.939  21.232
97229W        W98094  28.866  19.722  21.486
97230W        W98095  26.482  21.166  19.931
97231W        W98096  27.603  20.855  21.065
97232W        W98097  26.823  19.495  20.290
97233W        W98098  27.115  20.279  19.933
97234W        W98099  28.112  21.052  21.781
97235W        W98100  27.191  20.372  21.791
97236W        W98101  27.172  20.088  21.269
97237W        W98102  25.581  19.479  21.791
97238W        W98103  28.413  21.014  21.390
97239W        W98104  25.994  18.596  19.388
97240W        W98105  26.521  20.854  20.387
97241W        W98106  28.984  20.637  19.677
97242W        W98107  28.397  19.037  20.244
97243W        W98108  28.682  18.990  18.339
97244W        W98109  29.147  19.791  20.645
97245W        W98110  27.114  21.498  20.398
97246W        W98111  28.888  20.964  18.836
97247W        W98112  26.017  21.750  18.590
97248W        W98113  26.410  21.796  19.266
97249W        W98114  26.207  18.550  20.692
97250W        W98115  28.830  19.568  20.967
97251W        W98116  28.235  19.990  19.426
97252W        W98117  28.201  19.678  18.453
97253W        W98118  27.409  20.822  20.593
97254W        W98119  27.215  19.152  19.792
97255W        W98120  27.815  21.239  20.786
97256W        W98121  28.686  20.030  19.208
97257W        W98122  27.588  18.688  19.224
97258W        W98123  26.245  21.382  18.907
97259W        W98124  25.616  18.881  19.506
97260W        W98125  28.402  19.488  19.980
97261W        W98126  25.860  21.105  19.895
97262W        W98127  27.201  21.455  18.765
97263W        W98128  28.593  19.481  18.229
97264W        W98129  25.616  21.239  20.393
97265W        W98130  26.407  20.811  20.873
97266W        W98131  26.780  20.171  19.492
97267W        W98132  26.802  18.576  20.585
97268W        W98133  29.031  18.338  19.882
97269W        W98134  26.250  20.210  18.350
97270W        W98135  25.905  19.243  18.529
97271W        W98136  25.967  21.199  19.323
97272W        W98137  27.098  20.682  19.571
97273W        W98138  28.430  21.541  21.285
97274W        W98139  27.356  19.183  18.969
97275W        W98140  28.739  21.581  19.741
97276W        W98141  28.416  19.434  21.339
97277W        W98142  29.129  21.090  19.473
97278W        W98143  27.756  20.382  20.957
97279W        W98144  25.522  19.933  19.163
97280W        W98145  26.633  20.348  20.736
97281W        W98146  27.837  19.612  19.114
97282W        W98147  27.714  20.102  19.218
97283W        W98148  26.057  19.522  20.692
97284W        W98149  26.042  19.398  21.614
97285W        W98150  25.932  18.315  19.773
97286W        W98151  27.700  18.662  20.334
97287W        W98152  27.348  18.847  21.497
97288W        W98153  27.703  18.996  18.675
97289W        W98154  28.886  21.389  21.429
97290W        W98155  27.853  18.470  21.468
97291W        W98156  28.872  20.771  21.590
97292W        W98157  28.302  18.938  21.186
97293W        W98158  28.102  18.876  19.456
97294W        W98159  28.495  20.010  21.860
97295W        W98160  26.235  21.586  19.846
97296W        W98161  26.893  19.303  18.832
97297W        W98162  26.462  18.587  21.496
97298W        W98163  28.514  19.071  19.177
97299W        W98164  28.881  19.553  19.122
97300W        W98165  26.624  21.770  21.593
97301W        W98166  26.550  18.306  18.828
97302W        W98167  28.871  18.840  19.863
97303W        W98168  29.021  21.089  18.308
97304W        W98169  25.928  20.292  20.010
97305W        W98170  27.845  18.879  18.240
97306W        W98171  28.979  21.211  19.960
97307W        W98172  29.018  18.405  20.710
97308W        W98173  27.463  19.617  21.264
97309W        W98174  27.556  20.956  18.967
97310W        W98175  27.956  20.250  21.707
97311W        W98176  27.630  18.227  20.016
97312W        W98177  26.242  19.130  20.079
97313W        W98178  25.796  20.330  20.853
97314W        W98179  27.655  21.523  19.559
97315W        W98180  28.849  19.120  20.431
97316W        W98181  27.486  21.467  21.198
97317W        W98182  28.829  20.526  18.403
97318W        W98183  27.264  20.009  19.464
97319W        W98184  29.116  18.520  21.205
97320W        W98185  27.265  20.355  20.799
97321W        W98186  27.482  19.241  20.244
97322W        W98187  28.334  19.539  19.082
97323W        W98188  28.621  19.272  18.724
97324W        W98189  28.430  21.312  19.113
97325W        W98190  28.264  20.915  19.909
97326W        W98191  28.160  19.994  18.887
97327W        W98192  27.593  20.204  19.873
97328W        W98193  28.474  19.992  19.940
97329W        W98194  25.849  19.007  20.364
97330W        W98195  28.627  20.059  21.191
97331W        W98196  28.978  21.677  20.337
97332W        W98197  26.908  21.121  19.739
97333W        W98198  27.915  21.654  21.063
97334W        W98199  27.909  18.984  20.827
97335W        W98200  27.116  21.692  20.888
97336W        W98201  28.813  18.646  19.354
97337W        W98202  28.604  19.965  20.655
97338W        W98203  25.587  19.286  20.693
97339W        W98204  28.447  19.081  19.711
97340W        W98205  28.858  19.232  21.488
97341W        W98206  27.743  20.931  19.706
97342W        W98207  26.999  21.522  19.319
97343W        W98208  26.114  18.702  18.577
97344W        W98209  27.218  18.356  20.387
97345W        W98210  26.246  21.476  18.235
97346W        W98211  26.620  19.942  18.986
97347W        W98212  27.274  20.571  21.299
97348W        W98213  27.104  18.929  19.289
97349W        W98214  28.460  18.526  19.717
97350W        W98215  28.180  21.808  20.045
97351W        W98216  27.592  21.456  20.385
97352W        W98217  26.988  20.493  20.346
97353W        W98218  28.758  21.216  20.472
97354W        W98219  26.452  18.719  19.241
97355W        W98220  26.457  18.947  18.266
97356W        W98221  27.258  19.556  20.660
97357W        W98222  28.106  18.422  20.530
97358W        W98223  25.526  20.265  20.415
97359W        W98224  27.230  20.083  18.573
97360W        W98225  26.498  18.398  18.343
97361W        W98226  27.236  19.479  19.394
97362W        W98227  28.206  18.455  21.093
97363W        W98228  26.794  20.467  21.202
97364W        W98229  27.598  20.249  21.419
97365W        W98230  28.215  20.279  21.312
97366W        W98231  27.499  18.419  21.817
97367W        W98232  26.721  19.035  20.210
97368W        W98233  26.147  18.991  19.608
97369W        W98234  25.933  21.703  19.284
97370W        W98235  27.265  21.033  21.409
97371W        W98236  26.300  20.518  18.768
97372W        W98237  27.980  19.903  19.989
97373W        W98238  28.260  19.702  20.388
97374W        W98239  27.465  20.376  20.322
97375W        W98240  27.935  20.750  18.454
97376W        W98241  27.607  18.771  19.782
97377W        W98242  29.086  19.049  19.050
97378W        W98243  25.580  21.638  21.081
97379W        W98244  25.997  20.864  20.613
97380W        W98245  25.564  21.710  18.845
97381W        W98246  27.463  18.980  20.651
97382W        W98247  26.826  21.003  18.500
97383W        W98248  28.731  21.385  18.686
97384W        W98249  27.706  20.038  18.700
97385W        W98250  26.549  19.229  19.217
97386W        W98251  27.381  19.139  18.269
97387W        W98252  27.965  20.704  21.447
97388W        W98253  28.318  18.610  19.064
97389W        W98254  25.648  18.458  18.512
97390W        W98255  26.934  20.777  20.802
97391W        W98256  26.733  20.693  19.894
97392W        W98257  26.475  20.645  18.292
97393W        W98258  25.716  20.886  19.060
97394W        W98259  26.220  19.956  21.502
97395W        W98260  26.924  18.516  21.688
97396W        W98261  27.633  18.658  21.044
97397W        W98262  26.828  18.426  19.325
97398W        W98263  27.887  18.503  18.830
97399W        W98264  25.832  18.435  20.407
97400W        W98265  25.880  19.398  19.777
97401W        W98266  28.569  18.506  20.183
97402W        W98267  25.991  19.004  18.997
97403W        W98268  28.562  18.692  20.613
97404W        W98269  28.958  19.895  18.298
97405W        W98270  26.250  18.653  20.117
97406W        W98271  27.364  19.225  21.057
97407W        W98272  25.512  18.915  18.535
97408W        W98273  26.298  20.304  21.096
97409W        W98274  27.656  19.702  20.275
97410W        W98275  27.523  21.781  18.571
97411W        W98276  25.669  20.288  18.268
97412W        W98277  26.404  20.699  21.394
97413W        W98278  25.925  19.866  21.025
97414W        W98279  26.916  19.971  20.819
97415W        W98280  28.684  18.330  21.081
97416W        W98281  29.082  19.940  21.072
97417W        W98282  29.070  20.140  18.758
97418W        W98283  27.933  20.472  18.857
97419W        W98284  28.407  21.772  18.552
97420W        W98285  27.584  19.762  21.694
97421W        W98286  25.914  20.729  21.734
97422W        W98287  29.120  18.651  21.686
97423W        W98288  28.838  19.579  20.307
97424W        W98289  27.146  21.709  21.784
97425W        W98290  27.001  18.338  18.511
97426W        W98291  28.540  20.937  18.454
97427W        W98292  26.309  19.030  21.340
97428W        W98293  26.743  21.024  21.202
97429W        W98294  28.869  19.015  21.000
97430W        W98295  28.080  21.674  18.968
97431W        W98296  28.319  20.293  20.335
97432W        W98297  26.569  18.709  21.002
97433W        W98298  27.038  19.778  21.759
97434W        W98299  26.541  20.957  18.953
97435W        W98300  28.296  20.455  19.217
97436W        W98301  26.064  19.081  20.941
97437W        W98302  27.393  21.143  19.405
97438W        W98303  29.143  19.703  19.586
97439W        W98304  27.365  18.336  21.305
97440W        W98305  28.145  21.041  20.384
97441W        W98306  28.448  21.385  20.092
97442W        W98307  27.667  21.187  18.520
97443W        W98308  25.677  21.079  21.362
97444W        W98309  26.420  19.071  20.600
97445W        W98310  26.390  18.419  19.710
97446W        W98311  28.011  19.261  20.402
97447W        W98312  26.809  20.432  18.602
97448W        W98313  28.807  20.374  20.101
97449W        W98314  26.134  21.132  21.524
97450W        W98315  28.521  21.814  19.321
97451W        W98316  26.620  18.834  19.766
97452W        W98317  26.389  20.327  19.856
97453W        W98318  26.702  21.738  20.606
97454W        W98319  28.769  21.834  21.638
97455W        W98320  27.928  20.022  20.571
97456W        W98321  25.777  19.820  18.486
97457W        W98322  28.911  21.478  19.183
97458W        W98323  28.748  18.802  18.802
97459W        W98324  26.887  18.321  21.205
97460W        W98325  28.593  21.123  19.663
97461W        W98326  28.622  19.679  19.568
97462W        W98327  26.739  19.352  19.784
97463W        W98328  26.984  19.614  21.108
97464W        W98329  28.095  20.767  20.971
97465W        W98330  26.745  19.221  21.083
97466W        W98331  26.724  21.687  19.699
97467W        W98332  26.041  21.646  21.333
97468W        W98333  26.153  21.007  18.463
97469W        W98334  28.670  20.765  19.273
97470W        W98335  26.274  19.557  21.159
97471W        W98336  29.047  19.487  18.640
97472W        W98337  26.792  20.544  19.111
97473W        W98338  27.891  19.926  21.192
97474W        W98339  27.782  19.554  20.736
97475W        W98340  26.342  19.926  20.765
97476W        W98341  28.552  21.814  20.594
97477W        W98342  28.343  18.448  21.588
97478W        W98343  26.007  18.598  21.175
97479W        W98344  26.346  19.621  20.228
97480W        W98345  26.715  19.435  18.350
97481W        W98346  25.518  21.194  20.895
97482W        W98347  27.103  19.903  20.338
97483W        W98348  26.926  18.928  18.443
97484W        W98349  26.061  19.744  19.224
97485W        W98350  25.832  21.596  20.661
97486W        W98351  28.627  19.822  18.769
97487W        W98352  28.722  18.738  21.455
97488W        W98353  28.158  20.947  19.418
97489W        W98354  25.756  19.871  21.595
97490W        W98355  28.722  18.335  18.891
97491W        W98356  28.242  20.810  18.902
97492W        W98357  27.144  19.868  18.987
97493W        W98358  28.331  18.672  18.510
97494W        W98359  28.396  19.279  20.696
97495W        W98360  26.105  19.872  19.903
97496W        W98361  26.399  20.811  19.552
97497W        W98362  28.162  19.431  19.517
97498W        W98363  27.185  18.810  20.213
97499W        W98364  29.147  20.721  20.724
97500W        W98365  29.065  18.708  20.285
97501W        W98366  25.604  21.538  19.661
97502W        W98367  26.113  20.725  19.197
97503W        W98368  26.028  18.342  21.750
97504W        W98369  27.147  21.195  21.852
97505W        W98370  28.902  20.163  19.642
97506W        W98371  28.256  20.340  18.522
97507W        W98372  27.551  21.861  20.734
97508W        W98373  28.408  20.583  21.771
97509W        W98374  27.223  18.293  19.051
97510W        W98375  27.936  19.162  19.910
97511W        W98376  25.622  20.749  20.242
97512W        W98377  26.875  18.711  18.883
97513W        W98378  26.679  20.195  21.732
97514W        W98379  27.673  19.176  19.446
97515W        W98380  27.878  20.586  20.568
97516W        W98381  26.032  21.191  21.003
97517W        W98382  26.623  21.174  21.726
97518W        W98383  26.474  18.971  18.740
97519W        W98384  27.991  19.113  19.065
97520W        W98385  27.949  21.221  21.302
97521W        W98386  26.634  19.813  19.901
97522W        W98387  26.289  21.511  20.766
97523W        W98388  29.034  21.628  18.367
97524W        W98389  25.897  20.300  21.363
97525W        W98390  27.892  20.562  20.051
97526W        W98391  26.328  20.211  19.293
97527W        W98392  26.699  21.218  20.688
97528W        W98393  27.077  18.637  19.729
97529W        W98394  25.688  20.621  18.659
97530W        W98395  27.207  19.572  18.529
97531W        W98396  25.853  20.121  19.548
97532W        W98397  27.143  18.763  21.012
97533W        W98398  28.815  18.472  18.439
97534W        W98399  28.908  20.218  21.538
97535W        W98400  27.562  21.475  21.690
97536W        W98401  29.120  20.569  21.212
97537W        W98402  28.528  21.367  21.823
97538W        W98403  26.267  21.823  20.301
97539W        W98404  29.126  20.445  19.175
97540W        W98405  27.656  19.712  19.688
97541W        W98406  27.423  18.324  19.578
97542W        W98407  26.482  21.308  19.415
97543W        W98408  26.981  19.049  20.640
97544W        W98409  26.681  18.418  20.109
97545W        W98410  25.744  21.240  18.657
97546W        W98411  27.560  20.604  19.375
97547W        W98412  26.435  21.399  21.254
97548W        W98413  25.912  20.222  18.950
97549W        W98414  25.797  18.765  19.949
97550W        W98415  27.345  20.730  20.006
97551W        W98416  25.597  18.584  19.026
97552W        W98417  28.261  19.790  20.953
97553W        W98418  28.138  19.176  18.525
97554W        W98419  28.655  20.848  20.173
97555W        W98420  27.316  21.332  20.004
97556W        W98421  26.728  21.436  18.915
97557W        W98422  28.010  18.339  18.345
97558W        W98423  25.810  21.599  20.086
97559W        W98424  28.007  19.357  21.721
97560W        W98425  25.990  18.887  21.720
97561W        W98426  25.721  19.487  19.053
97562W        W98427  26.412  19.476  18.778
97563W        W98428  28.175  19.803  21.595
97564W        W98429  26.518  20.084  20.304
97565W        W98430  27.992  18.370  19.424
97566W        W98431  27.123  21.801  19.927
97567W        W98432  28.337  21.263  20.864
97568W        W98433  27.921  21.412  19.975
97569W        W98434  27.940  20.392  19.569
97570W        W98435  27.402  18.617  18.640
97571W        W98436  29.083  18.245  19.362
97572W        W98437  26.771  19.880  18.525
97573W        W98438  28.937  19.217  19.515
97574W        W98439  27.629  20.387  18.392
97575W        W98440  28.565  20.587  21.140
97576W        W98441  28.219  21.288  18.607
97577W        W98442  26.834  18.963  21.513
97578W        W98443  26.654  19.547  20.754
97579W        W98444  28.746  21.042  21.031
97580W        W98445  27.846  18.992  21.408
97581W        W98446  25.690  19.463  21.185
97582W        W98447  27.450  19.940  20.911
97583W        W98448  25.807  20.698  19.568
97584W        W98449  25.954  19.995  20.458
97585W        W98450  28.271  20.281  20.808
97586W        W98451  28.043  21.661  21.619
97587W        W98452  27.939  19.400  21.172
97588W        W98453  28.216  21.454  19.577
97589W        W98454  27.218  21.174  20.900
97590W        W98455  26.703  21.529  20.169
97591W        W98456  28.508  20.700  20.588
97592W        W98457  27.558  20.772  21.725
97593W        W98458  26.163  20.725  20.064
97594W        W98459  28.509  20.484  19.709
97595W        W98460  28.150  21.550  20.460
97596W        W98461  26.128  21.279  20.330
97597W        W98462  27.149  19.331  21.540
97598W        W98463  27.600  21.497  19.051
97599W        W98464  26.908  20.752  21.689
97600W        W98465  27.034  20.990  19.066
97601W        W98466  26.255  19.730  18.325
97602W        W98467  25.594  21.816  25.225
97603W        W98468  25.970  20.709  24.748
97604W        W98469  28.675  20.439  22.518
97605W        W98470  28.805  21.524  24.545
97606W        W98471  26.723  21.515  22.071
97607W        W98472  26.806  19.667  23.054
97608W        W98473  26.321  19.515  23.218
97609W        W98474  27.312  20.330  22.652
97610W        W98475  26.987  21.422  25.007
97611W        W98476  25.636  18.983  24.970
97612W        W98477  26.398  18.263  24.772
97613W        W98478  28.092  18.651  23.659
97614W        W98479  27.741  19.522  22.229
97615W        W98480  28.311  18.956  25.320
97616W        W98481  25.677  18.748  24.445
97617W        W98482  25.776  21.367  25.466
97618W        W98483  27.298  20.757  22.198
97619W        W98484  25.730  19.540  23.891
97620W        W98485  26.623  19.431  25.128
97621W        W98486  29.082  19.290  23.627
97622W        W98487  28.846  20.333  24.486
97623W        W98488  27.154  19.666  23.513
97624W        W98489  27.700  21.005  23.882
97625W        W98490  26.200  20.439  24.114
97626W        W98491  25.559  19.967  23.685
97627W        W98492  26.595  19.939  24.877
97628W        W98493  28.866  19.722  25.131
97629W        W98494  26.482  21.166  23.576
97630W        W98495  27.603  20.855  24.710
97631W        W98496  26.823  19.495  23.935
97632W        W98497  27.115  20.279  23.578
97633W        W98498  28.112  21.052  25.426
97634W        W98499  27.191  20.372  25.436
97635W        W98500  27.172  20.088  24.914
97636W        W98501  25.581  19.479  25.436
97637W        W98502  28.413  21.014  25.035
97638W        W98503  25.994  18.596  23.033
97639W        W98504  26.521  20.854  24.032
97640W        W98505  28.984  20.637  23.322
97641W        W98506  28.397  19.037  23.889
97642W        W98507  28.682  18.990  21.984
97643W        W98508  29.147  19.791  24.290
97644W        W98509  27.114  21.498  24.043
97645W        W98510  28.888  20.964  22.481
97646W        W98511  26.017  21.750  22.235
97647W        W98512  26.410  21.796  22.911
97648W        W98513  26.207  18.550  24.337
97649W        W98514  28.830  19.568  24.612
97650W        W98515  28.235  19.990  23.071
97651W        W98516  28.201  19.678  22.098
97652W        W98517  27.409  20.822  24.238
97653W        W98518  27.215  19.152  23.437
97654W        W98519  27.815  21.239  24.431
97655W        W98520  28.686  20.030  22.853
97656W        W98521  27.588  18.688  22.869
97657W        W98522  26.245  21.382  22.552
97658W        W98523  25.616  18.881  23.151
97659W        W98524  28.402  19.488  23.625
97660W        W98525  25.860  21.105  23.540
97661W        W98526  27.201  21.455  22.410
97662W        W98527  28.593  19.481  21.874
97663W        W98528  25.616  21.239  24.038
97664W        W98529  26.407  20.811  24.518
97665W        W98530  26.780  20.171  23.137
97666W        W98531  26.802  18.576  24.230
97667W        W98532  29.031  18.338  23.527
97668W        W98533  26.250  20.210  21.995
97669W        W98534  25.905  19.243  22.174
97670W        W98535  25.967  21.199  22.968
97671W        W98536  27.098  20.682  23.216
97672W        W98537  28.430  21.541  24.930
97673W        W98538  27.356  19.183  22.614
97674W        W98539  28.739  21.581  23.386
97675W        W98540  28.416  19.434  24.984
97676W        W98541  29.129  21.090  23.118
97677W        W98542  27.756  20.382  24.602
97678W        W98543  25.522  19.933  22.808
97679W        W98544  26.633  20.348  24.381
97680W        W98545  27.837  19.612  22.759
97681W        W98546  27.714  20.102  22.863
97682W        W98547  26.057  19.522  24.337
97683W        W98548  26.042  19.398  25.259
97684W        W98549  25.932  18.315  23.418
97685W        W98550  27.700  18.662  23.979
97686W        W98551  27.348  18.847  25.142
97687W        W98552  27.703  18.996  22.320
97688W        W98553  28.886  21.389  25.074
97689W        W98554  27.853  18.470  25.113
97690W        W98555  28.872  20.771  25.235
97691W        W98556  28.302  18.938  24.831
97692W        W98557  28.102  18.876  23.101
97693W        W98558  28.495  20.010  25.505
97694W        W98559  26.235  21.586  23.491
97695W        W98560  26.893  19.303  22.477
97696W        W98561  26.462  18.587  25.141
97697W        W98562  28.514  19.071  22.822
97698W        W98563  28.881  19.553  22.767
97699W        W98564  26.624  21.770  25.238
97700W        W98565  26.550  18.306  22.473
97701W        W98566  28.871  18.840  23.508
97702W        W98567  29.021  21.089  21.953
97703W        W98568  25.928  20.292  23.655
97704W        W98569  27.845  18.879  21.885
97705W        W98570  28.979  21.211  23.605
97706W        W98571  29.018  18.405  24.355
97707W        W98572  27.463  19.617  24.909
97708W        W98573  27.556  20.956  22.612
97709W        W98574  27.956  20.250  25.352
97710W        W98575  27.630  18.227  23.661
97711W        W98576  26.242  19.130  23.724
97712W        W98577  25.796  20.330  24.498
97713W        W98578  27.655  21.523  23.204
97714W        W98579  28.849  19.120  24.076
97715W        W98580  27.486  21.467  24.843
97716W        W98581  28.829  20.526  22.048
97717W        W98582  27.264  20.009  23.109
97718W        W98583  29.116  18.520  24.850
97719W        W98584  27.265  20.355  24.444
97720W        W98585  27.482  19.241  23.889
97721W        W98586  28.334  19.539  22.727
97722W        W98587  28.621  19.272  22.369
97723W        W98588  28.430  21.312  22.758
97724W        W98589  28.264  20.915  23.554
97725W        W98590  28.160  19.994  22.532
97726W        W98591  27.593  20.204  23.518
97727W        W98592  28.474  19.992  23.585
97728W        W98593  25.849  19.007  24.009
97729W        W98594  28.627  20.059  24.836
97730W        W98595  28.978  21.677  23.982
97731W        W98596  26.908  21.121  23.384
97732W        W98597  27.915  21.654  24.708
97733W        W98598  27.909  18.984  24.472
97734W        W98599  27.116  21.692  24.533
97735W        W98600  28.813  18.646  22.999
97736W        W98601  28.604  19.965  24.300
97737W        W98602  25.587  19.286  24.338
97738W        W98603  28.447  19.081  23.356
97739W        W98604  28.858  19.232  25.133
97740W        W98605  27.743  20.931  23.351
97741W        W98606  26.999  21.522  22.964
97742W        W98607  26.114  18.702  22.222
97743W        W98608  27.218  18.356  24.032
97744W        W98609  26.246  21.476  21.880
97745W        W98610  26.620  19.942  22.631
97746W        W98611  27.274  20.571  24.944
97747W        W98612  27.104  18.929  22.934
97748W        W98613  28.460  18.526  23.362
97749W        W98614  28.180  21.808  23.690
97750W        W98615  27.592  21.456  24.030
97751W        W98616  26.988  20.493  23.991
97752W        W98617  28.758  21.216  24.117
97753W        W98618  26.452  18.719  22.886
97754W        W98619  26.974  21.016  23.846
97755W        W98620  26.457  18.947  21.911
97756W        W98621  27.258  19.556  24.305
97757W        W98622  28.106  18.422  24.175
97758W        W98623  25.526  20.265  24.060
97759W        W98624  27.230  20.083  22.218
97760W        W98625  26.498  18.398  21.988
97761W        W98626  27.236  19.479  23.039
97762W        W98627  28.206  18.455  24.738
97763W        W98628  26.794  20.467  24.847
97764W        W98629  27.598  20.249  25.064
97765W        W98630  28.215  20.279  24.957
97766W        W98631  27.499  18.419  25.462
97767W        W98632  26.721  19.035  23.855
97768W        W98633  26.147  18.991  23.253
97769W        W98634  25.933  21.703  22.929
97770W        W98635  27.265  21.033  25.054
97771W        W98636  26.300  20.518  22.413
97772W        W98637  27.980  19.903  23.634
97773W        W98638  28.260  19.702  24.033
97774W        W98639  27.465  20.376  23.967
97775W        W98640  27.935  20.750  22.099
97776W        W98641  27.607  18.771  23.427
97777W        W98642  29.086  19.049  22.695
97778W        W98643  25.580  21.638  24.726
97779W        W98644  25.997  20.864  24.258
97780W        W98645  25.564  21.710  22.490
97781W        W98646  27.463  18.980  24.296
97782W        W98647  26.826  21.003  22.145
97783W        W98648  28.731  21.385  22.331
97784W        W98649  27.706  20.038  22.345
97785W        W98650  26.549  19.229  22.862
97786W        W98651  27.381  19.139  21.914
97787W        W98652  27.965  20.704  25.092
97788W        W98653  28.318  18.610  22.709
97789W        W98654  25.648  18.458  22.157
97790W        W98655  26.934  20.777  24.447
97791W        W98656  26.733  20.693  23.539
97792W        W98657  26.475  20.645  21.937
97793W        W98658  25.716  20.886  22.705
97794W        W98659  26.220  19.956  25.147
97795W        W98660  26.924  18.516  25.333
97796W        W98661  27.633  18.658  24.689
97797W        W98662  26.828  18.426  22.970
97798W        W98663  27.887  18.503  22.475
97799W        W98664  25.832  18.435  24.052
97800W        W98665  25.880  19.398  23.422
97801W        W98666  28.569  18.506  23.828
97802W        W98667  25.991  19.004  22.642
97803W        W98668  28.562  18.692  24.258
97804W        W98669  28.958  19.895  21.943
97805W        W98670  26.250  18.653  23.762
97806W        W98671  27.364  19.225  24.702
97807W        W98672  25.512  18.915  22.180
97808W        W98673  26.298  20.304  24.741
97809W        W98674  27.656  19.702  23.920
97810W        W98675  27.523  21.781  22.216
97811W        W98676  25.669  20.288  21.913
97812W        W98677  26.404  20.699  25.039
97813W        W98678  25.925  19.866  24.670
97814W        W98679  26.916  19.971  24.464
97815W        W98680  28.684  18.330  24.726
97816W        W98681  29.082  19.940  24.717
97817W        W98682  29.070  20.140  22.403
97818W        W98683  27.933  20.472  22.502
97819W        W98684  28.407  21.772  22.197
97820W        W98685  27.584  19.762  25.339
97821W        W98686  25.914  20.729  25.379
97822W        W98687  29.120  18.651  25.331
97823W        W98688  28.838  19.579  23.952
97824W        W98689  27.146  21.709  25.429
97825W        W98690  27.001  18.338  22.156
97826W        W98691  28.540  20.937  22.099
97827W        W98692  26.309  19.030  24.985
97828W        W98693  26.743  21.024  24.847
97829W        W98694  28.869  19.015  24.645
97830W        W98695  28.080  21.674  22.613
97831W        W98696  28.319  20.293  23.980
97832W        W98697  26.569  18.709  24.647
97833W        W98698  27.038  19.778  25.404
97834W        W98699  26.541  20.957  22.598
97835W        W98700  28.296  20.455  22.862
97836W        W98701  26.064  19.081  24.586
97837W        W98702  27.393  21.143  23.050
97838W        W98703  29.143  19.703  23.231
97839W        W98704  27.365  18.336  24.950
97840W        W98705  28.145  21.041  24.029
97841W        W98706  28.448  21.385  23.737
97842W        W98707  27.667  21.187  22.165
97843W        W98708  25.677  21.079  25.007
97844W        W98709  26.420  19.071  24.245
97845W        W98710  26.390  18.419  23.355
97846W        W98711  28.011  19.261  24.047
97847W        W98712  26.809  20.432  22.247
97848W        W98713  28.807  20.374  23.746
97849W        W98714  26.134  21.132  25.169
97850W        W98715  28.521  21.814  22.966
97851W        W98716  26.620  18.834  23.411
97852W        W98717  26.389  20.327  23.501
97853W        W98718  26.702  21.738  24.251
97854W        W98719  28.769  21.834  25.283
97855W        W98720  27.928  20.022  24.216
97856W        W98721  25.777  19.820  22.131
97857W        W98722  28.911  21.478  22.828
97858W        W98723  28.748  18.802  22.447
97859W        W98724  26.887  18.321  24.850
97860W        W98725  28.593  21.123  23.308
97861W        W98726  28.622  19.679  23.213
97862W        W98727  26.739  19.352  23.429
97863W        W98728  26.984  19.614  24.753
97864W        W98729  28.095  20.767  24.616
97865W        W98730  26.745  19.221  24.728
97866W        W98731  26.724  21.687  23.344
97867W        W98732  26.041  21.646  24.978
97868W        W98733  26.153  21.007  22.108
97869W        W98734  28.670  20.765  22.918
97870W        W98735  26.274  19.557  24.804
97871W        W98736  29.047  19.487  22.285
97872W        W98737  26.792  20.544  22.756
97873W        W98738  27.891  19.926  24.837
97874W        W98739  27.782  19.554  24.381
97875W        W98740  26.342  19.926  24.410
97876W        W98741  28.552  21.814  24.239
97877W        W98742  28.343  18.448  25.233
97878W        W98743  26.007  18.598  24.820
97879W        W98744  26.346  19.621  23.873
97880W        W98745  26.715  19.435  21.995
97881W        W98746  25.518  21.194  24.540
97882W        W98747  27.103  19.903  23.983
97883W        W98748  26.926  18.928  22.088
97884W        W98749  26.061  19.744  22.869
97885W        W98750  25.832  21.596  24.306
97886W        W98751  28.627  19.822  22.414
97887W        W98752  28.722  18.738  25.100
97888W        W98753  28.158  20.947  23.063
97889W        W98754  25.756  19.871  25.240
97890W        W98755  28.722  18.335  22.536
97891W        W98756  28.242  20.810  22.547
97892W        W98757  27.144  19.868  22.632
97893W        W98758  28.331  18.672  22.155
97894W        W98759  28.396  19.279  24.341
97895W        W98760  26.105  19.872  23.548
97896W        W98761  26.399  20.811  23.197
97897W        W98762  28.162  19.431  23.162
97898W        W98763  27.185  18.810  23.858
97899W        W98764  29.147  20.721  24.369
97900W        W98765  29.065  18.708  23.930
97901W        W98766  25.604  21.538  23.306
97902W        W98767  26.113  20.725  22.842
97903W        W98768  26.028  18.342  25.395
97904W        W98769  27.147  21.195  25.497
97905W        W98770  28.902  20.163  23.287
97906W        W98771  28.256  20.340  22.167
97907W        W98772  27.551  21.861  24.379
97908W        W98773  28.408  20.583  25.416
97909W        W98774  27.223  18.293  22.696
97910W        W98775  27.936  19.162  23.555
97911W        W98776  25.622  20.749  23.887
97912W        W98777  26.875  18.711  22.528
97913W        W98778  26.679  20.195  25.377
97914W        W98779  27.673  19.176  23.091
97915W        W98780  27.878  20.586  24.213
97916W        W98781  26.032  21.191  24.648
97917W        W98782  26.623  21.174  25.371
97918W        W98783  26.474  18.971  22.385
97919W        W98784  27.991  19.113  22.710
97920W        W98785  27.949  21.221  24.947
97921W        W98786  26.634  19.813  23.546
97922W        W98787  26.289  21.511  24.411
97923W        W98788  29.034  21.628  22.012
97924W        W98789  25.897  20.300  25.008
97925W        W98790  27.892  20.562  23.696
97926W        W98791  26.328  20.211  22.938
97927W        W98792  26.699  21.218  24.333
97928W        W98793  27.077  18.637  23.374
97929W        W98794  25.688  20.621  22.304
97930W        W98795  27.207  19.572  22.174
97931W        W98796  25.853  20.121  23.193
97932W        W98797  27.143  18.763  24.657
97933W        W98798  28.815  18.472  22.084
97934W        W98799  28.908  20.218  25.183
97935W        W98800  27.562  21.475  25.335
97936W        W98801  29.120  20.569  24.857
97937W        W98802  28.528  21.367  25.468
97938W        W98803  26.267  21.823  23.946
97939W        W98804  29.126  20.445  22.820
97940W        W98805  27.656  19.712  23.333
97941W        W98806  27.423  18.324  23.223
97942W        W98807  26.482  21.308  23.060
97943W        W98808  26.981  19.049  24.285
97944W        W98809  26.681  18.418  23.754
97945W        W98810  25.744  21.240  22.302
97946W        W98811  27.560  20.604  23.020
97947W        W98812  26.435  21.399  24.899
97948W        W98813  25.912  20.222  22.595
97949W        W98814  25.797  18.765  23.594
97950W        W98815  27.345  20.730  23.651
97951W        W98816  25.597  18.584  22.671
97952W        W98817  28.261  19.790  24.598
97953W        W98818  28.138  19.176  22.170
97954W        W98819  28.655  20.848  23.818
97955W        W98820  27.316  21.332  23.649
97956W        W98821  26.728  21.436  22.560
97957W        W98822  28.010  18.339  21.990
97958W        W98823  25.810  21.599  23.731
97959W        W98824  28.007  19.357  25.366
97960W        W98825  25.990  18.887  25.365
97961W        W98826  25.721  19.487  22.698
97962W        W98827  26.412  19.476  22.423
97963W        W98828  28.175  19.803  25.240
97964W        W98829  26.518  20.084  23.949
97965W        W98830  27.992  18.370  23.069
97966W        W98831  27.123  21.801  23.572
97967W        W98832  28.337  21.263  24.509
97968W        W98833  27.921  21.412  23.620
97969W        W98834  27.940  20.392  23.214
97970W        W98835  27.402  18.617  22.285
97971W        W98836  29.083  18.245  23.007
97972W        W98837  26.771  19.880  22.170
97973W        W98838  28.937  19.217  23.160
97974W        W98839  27.629  20.387  22.037
97975W        W98840  28.565  20.587  24.785
97976W        W98841  28.219  21.288  22.252
97977W        W98842  26.834  18.963  25.158
97978W        W98843  26.654  19.547  24.399
97979W        W98844  28.746  21.042  24.676
97980W        W98845  27.846  18.992  25.053
97981W        W98846  25.690  19.463  24.830
97982W        W98847  27.450  19.940  24.556
97983W        W98848  25.807  20.698  23.213
97984W        W98849  25.954  19.995  24.103
97985W        W98850  28.271  20.281  24.453
97986W        W98851  28.043  21.661  25.264
97987W        W98852  27.939  19.400  24.817
97988W        W98853  28.216  21.454  23.222
97989W        W98854  27.218  21.174  24.545
97990W        W98855  26.703  21.529  23.814
97991W        W98856  28.508  20.700  24.233
97992W        W98857  27.558  20.772  25.370
97993W        W98858  26.163  20.725  23.709
97994W        W98859  28.509  20.484  23.354
97995W        W98860  28.150  21.550  24.105
97996W        W98861  26.128  21.279  23.975
97997W        W98862  27.149  19.331  25.185
97998W        W98863  27.600  21.497  22.696
97999W        W98864  26.908  20.752  25.334
98000W        W98865  27.034  20.990  22.711
98001W        W98866  26.255  19.730  21.970
98002W        W98867  25.594  21.816  28.869
98003W        W98868  25.970  20.709  28.392
98004W        W98869  28.675  20.439  26.162
98005W        W98870  28.805  21.524  28.189
98006W        W98871  26.723  21.515  25.715
98007W        W98872  26.806  19.667  26.698
98008W        W98873  26.321  19.515  26.862
98009W        W98874  27.312  20.330  26.296
98010W        W98875  26.987  21.422  28.651
98011W        W98876  25.636  18.983  28.614
98012W        W98877  26.398  18.263  28.416
98013W        W98878  28.092  18.651  27.303
98014W        W98879  27.741  19.522  25.873
98015W        W98880  28.311  18.956  28.964
98016W        W98881  25.677  18.748  28.089
98017W        W98882  25.776  21.367  29.110
98018W        W98883  27.298  20.757  25.842
98019W        W98884  25.730  19.540  27.535
98020W        W98885  26.623  19.431  28.772
98021W        W98886  29.082  19.290  27.271
98022W        W98887  28.846  20.333  28.130
98023W        W98888  27.154  19.666  27.157
98024W        W98889  27.700  21.005  27.526
98025W        W98890  26.200  20.439  27.758
98026W        W98891  25.559  19.967  27.329
98027W        W98892  26.595  19.939  28.521
98028W        W98893  28.866  19.722  28.775
98029W        W98894  26.482  21.166  27.220
98030W        W98895  27.603  20.855  28.354
98031W        W98896  26.823  19.495  27.579
98032W        W98897  27.115  20.279  27.222
98033W        W98898  28.112  21.052  29.070
98034W        W98899  27.191  20.372  29.080
98035W        W98900  27.172  20.088  28.558
98036W        W98901  25.581  19.479  29.080
98037W        W98902  28.413  21.014  28.679
98038W        W98903  25.994  18.596  26.677
98039W        W98904  26.521  20.854  27.676
98040W        W98905  28.984  20.637  26.966
98041W        W98906  28.397  19.037  27.533
98042W        W98907  28.682  18.990  25.628
98043W        W98908  29.147  19.791  27.934
98044W        W98909  27.114  21.498  27.687
98045W        W98910  28.888  20.964  26.125
98046W        W98911  26.017  21.750  25.879
98047W        W98912  26.410  21.796  26.555
98048W        W98913  26.207  18.550  27.981
98049W        W98914  28.830  19.568  28.256
98050W        W98915  28.235  19.990  26.715
98051W        W98916  28.201  19.678  25.742
98052W        W98917  27.409  20.822  27.882
98053W        W98918  27.215  19.152  27.081
98054W        W98919  27.815  21.239  28.075
98055W        W98920  28.686  20.030  26.497
98056W        W98921  27.588  18.688  26.513
98057W        W98922  26.245  21.382  26.196
98058W        W98923  25.616  18.881  26.795
98059W        W98924  28.402  19.488  27.269
98060W        W98925  25.860  21.105  27.184
98061W        W98926  27.201  21.455  26.054
98062W        W98927  28.593  19.481  25.518
98063W        W98928  25.616  21.239  27.682
98064W        W98929  26.407  20.811  28.162
98065W        W98930  26.780  20.171  26.781
98066W        W98931  26.802  18.576  27.874
98067W        W98932  29.031  18.338  27.171
98068W        W98933  26.250  20.210  25.639
98069W        W98934  25.905  19.243  25.818
98070W        W98935  25.967  21.199  26.612
98071W        W98936  27.098  20.682  26.860
98072W        W98937  28.430  21.541  28.574
98073W        W98938  27.356  19.183  26.258
98074W        W98939  28.739  21.581  27.030
98075W        W98940  28.416  19.434  28.628
98076W        W98941  29.129  21.090  26.762
98077W        W98942  27.756  20.382  28.246
98078W        W98943  25.522  19.933  26.452
98079W        W98944  26.633  20.348  28.025
98080W        W98945  27.837  19.612  26.403
98081W        W98946  27.714  20.102  26.507
98082W        W98947  26.057  19.522  27.981
98083W        W98948  26.042  19.398  28.903
98084W        W98949  25.932  18.315  27.062
98085W        W98950  27.700  18.662  27.623
98086W        W98951  27.348  18.847  28.786
98087W        W98952  27.703  18.996  25.964
98088W        W98953  28.886  21.389  28.718
98089W        W98954  27.853  18.470  28.757
98090W        W98955  28.872  20.771  28.879
98091W        W98956  28.302  18.938  28.475
98092W        W98957  28.102  18.876  26.745
98093W        W98958  28.495  20.010  29.149
98094W        W98959  26.235  21.586  27.135
98095W        W98960  26.893  19.303  26.121
98096W        W98961  26.462  18.587  28.785
98097W        W98962  28.514  19.071  26.466
98098W        W98963  28.881  19.553  26.411
98099W        W98964  26.624  21.770  28.882
98100W        W98965  26.550  18.306  26.117
98101W        W98966  28.871  18.840  27.152
98102W        W98967  29.021  21.089  25.597
98103W        W98968  25.928  20.292  27.299
98104W        W98969  27.845  18.879  25.529
98105W        W98970  28.979  21.211  27.249
98106W        W98971  29.018  18.405  27.999
98107W        W98972  27.463  19.617  28.553
98108W        W98973  27.556  20.956  26.256
98109W        W98974  27.956  20.250  28.996
98110W        W98975  27.630  18.227  27.305
98111W        W98976  26.242  19.130  27.368
98112W        W98977  25.796  20.330  28.142
98113W        W98978  27.655  21.523  26.848
98114W        W98979  28.849  19.120  27.720
98115W        W98980  27.486  21.467  28.487
98116W        W98981  28.829  20.526  25.692
98117W        W98982  27.264  20.009  26.753
98118W        W98983  29.116  18.520  28.494
98119W        W98984  27.265  20.355  28.088
98120W        W98985  27.482  19.241  27.533
98121W        W98986  28.334  19.539  26.371
98122W        W98987  28.621  19.272  26.013
98123W        W98988  28.430  21.312  26.402
98124W        W98989  28.264  20.915  27.198
98125W        W98990  28.160  19.994  26.176
98126W        W98991  27.593  20.204  27.162
98127W        W98992  28.474  19.992  27.229
98128W        W98993  25.849  19.007  27.653
98129W        W98994  28.627  20.059  28.480
98130W        W98995  28.978  21.677  27.626
98131W        W98996  26.908  21.121  27.028
98132W        W98997  27.915  21.654  28.352
98133W        W98998  27.909  18.984  28.116
98134W        W98999  27.116  21.692  28.177
98135W        W99000  28.813  18.646  26.643
98136W        W99001  28.604  19.965  27.944
98137W        W99002  25.587  19.286  27.982
98138W        W99003  28.447  19.081  27.000
98139W        W99004  28.858  19.232  28.777
98140W        W99005  27.743  20.931  26.995
98141W        W99006  26.999  21.522  26.608
98142W        W99007  26.114  18.702  25.866
98143W        W99008  27.218  18.356  27.676
98144W        W99009  26.246  21.476  25.524
98145W        W99010  26.620  19.942  26.275
98146W        W99011  27.274  20.571  28.588
98147W        W99012  27.104  18.929  26.578
98148W        W99013  28.460  18.526  27.006
98149W        W99014  28.180  21.808  27.334
98150W        W99015  27.592  21.456  27.674
98151W        W99016  26.988  20.493  27.635
98152W        W99017  28.758  21.216  27.761
98153W        W99018  26.452  18.719  26.530
98154W        W99019  26.974  21.016  27.490
98155W        W99020  26.457  18.947  25.555
98156W        W99021  27.258  19.556  27.949
98157W        W99022  28.106  18.422  27.819
98158W        W99023  25.526  20.265  27.704
98159W        W99024  27.230  20.083  25.862
98160W        W99025  26.498  18.398  25.632
98161W        W99026  27.236  19.479  26.683
98162W        W99027  28.206  18.455  28.382
98163W        W99028  26.794  20.467  28.491
98164W        W99029  27.598  20.249  28.708
98165W        W99030  28.215  20.279  28.601
98166W        W99031  27.499  18.419  29.106
98167W        W99032  26.721  19.035  27.499
98168W        W99033  26.147  18.991  26.897
98169W        W99034  25.933  21.703  26.573
98170W        W99035  27.265  21.033  28.698
98171W        W99036  26.300  20.518  26.057
98172W        W99037  27.980  19.903  27.278
98173W        W99038  28.260  19.702  27.677
98174W        W99039  27.465  20.376  27.611
98175W        W99040  27.935  20.750  25.743
98176W        W99041  27.607  18.771  27.071
98177W        W99042  29.086  19.049  26.339
98178W        W99043  25.580  21.638  28.370
98179W        W99044  25.997  20.864  27.902
98180W        W99045  25.564  21.710  26.134
98181W        W99046  27.463  18.980  27.940
98182W        W99047  26.826  21.003  25.789
98183W        W99048  28.731  21.385  25.975
98184W        W99049  27.706  20.038  25.989
98185W        W99050  26.549  19.229  26.506
98186W        W99051  27.381  19.139  25.558
98187W        W99052  27.965  20.704  28.736
98188W        W99053  28.318  18.610  26.353
98189W        W99054  25.648  18.458  25.801
98190W        W99055  26.934  20.777  28.091
98191W        W99056  26.733  20.693  27.183
98192W        W99057  26.475  20.645  25.581
98193W        W99058  25.716  20.886  26.349
98194W        W99059  26.220  19.956  28.791
98195W        W99060  26.924  18.516  28.977
98196W        W99061  27.633  18.658  28.333
98197W        W99062  26.828  18.426  26.614
98198W        W99063  27.887  18.503  26.119
98199W        W99064  25.832  18.435  27.696
98200W        W99065  25.880  19.398  27.066
98201W        W99066  28.569  18.506  27.472
98202W        W99067  25.991  19.004  26.286
98203W        W99068  28.562  18.692  27.902
98204W        W99069  28.958  19.895  25.587
98205W        W99070  26.250  18.653  27.406
98206W        W99071  27.364  19.225  28.346
98207W        W99072  25.512  18.915  25.824
98208W        W99073  26.298  20.304  28.385
98209W        W99074  27.656  19.702  27.564
98210W        W99075  27.523  21.781  25.860
98211W        W99076  25.669  20.288  25.557
98212W        W99077  26.404  20.699  28.683
98213W        W99078  25.925  19.866  28.314
98214W        W99079  26.916  19.971  28.108
98215W        W99080  28.684  18.330  28.370
98216W        W99081  29.082  19.940  28.361
98217W        W99082  29.070  20.140  26.047
98218W        W99083  27.933  20.472  26.146
98219W        W99084  28.407  21.772  25.841
98220W        W99085  27.584  19.762  28.983
98221W        W99086  25.914  20.729  29.023
98222W        W99087  29.120  18.651  28.975
98223W        W99088  28.838  19.579  27.596
98224W        W99089  27.146  21.709  29.073
98225W        W99090  27.001  18.338  25.800
98226W        W99091  28.540  20.937  25.743
98227W        W99092  26.309  19.030  28.629
98228W        W99093  26.743  21.024  28.491
98229W        W99094  28.869  19.015  28.289
98230W        W99095  28.080  21.674  26.257
98231W        W99096  28.319  20.293  27.624
98232W        W99097  26.569  18.709  28.291
98233W        W99098  27.038  19.778  29.048
98234W        W99099  26.541  20.957  26.242
98235W        W99100  28.296  20.455  26.506
98236W        W99101  26.064  19.081  28.230
98237W        W99102  27.393  21.143  26.694
98238W        W99103  29.143  19.703  26.875
98239W        W99104  27.365  18.336  28.594
98240W        W99105  28.145  21.041  27.673
98241W        W99106  28.448  21.385  27.381
98242W        W99107  27.667  21.187  25.809
98243W        W99108  25.677  21.079  28.651
98244W        W99109  26.420  19.071  27.889
98245W        W99110  26.390  18.419  26.999
98246W        W99111  28.011  19.261  27.691
98247W        W99112  26.809  20.432  25.891
98248W        W99113  28.807  20.374  27.390
98249W        W99114  26.134  21.132  28.813
98250W        W99115  28.521  21.814  26.610
98251W        W99116  26.620  18.834  27.055
98252W        W99117  26.389  20.327  27.145
98253W        W99118  26.702  21.738  27.895
98254W        W99119  28.769  21.834  28.927
98255W        W99120  27.928  20.022  27.860
98256W        W99121  25.777  19.820  25.775
98257W        W99122  28.911  21.478  26.472
98258W        W99123  28.748  18.802  26.091
98259W        W99124  26.887  18.321  28.494
98260W        W99125  28.593  21.123  26.952
98261W        W99126  28.622  19.679  26.857
98262W        W99127  26.739  19.352  27.073
98263W        W99128  26.984  19.614  28.397
98264W        W99129  28.095  20.767  28.260
98265W        W99130  26.745  19.221  28.372
98266W        W99131  26.724  21.687  26.988
98267W        W99132  26.041  21.646  28.622
98268W        W99133  26.153  21.007  25.752
98269W        W99134  28.670  20.765  26.562
98270W        W99135  26.274  19.557  28.448
98271W        W99136  29.047  19.487  25.929
98272W        W99137  26.792  20.544  26.400
98273W        W99138  27.891  19.926  28.481
98274W        W99139  27.782  19.554  28.025
98275W        W99140  26.342  19.926  28.054
98276W        W99141  28.552  21.814  27.883
98277W        W99142  28.343  18.448  28.877
98278W        W99143  26.007  18.598  28.464
98279W        W99144  26.346  19.621  27.517
98280W        W99145  26.715  19.435  25.639
98281W        W99146  25.518  21.194  28.184
98282W        W99147  27.103  19.903  27.627
98283W        W99148  26.926  18.928  25.732
98284W        W99149  26.061  19.744  26.513
98285W        W99150  25.832  21.596  27.950
98286W        W99151  28.627  19.822  26.058
98287W        W99152  28.722  18.738  28.744
98288W        W99153  28.158  20.947  26.707
98289W        W99154  25.756  19.871  28.884
98290W        W99155  28.722  18.335  26.180
98291W        W99156  28.242  20.810  26.191
98292W        W99157  27.144  19.868  26.276
98293W        W99158  28.331  18.672  25.799
98294W        W99159  28.396  19.279  27.985
98295W        W99160  26.105  19.872  27.192
98296W        W99161  26.399  20.811  26.841
98297W        W99162  28.162  19.431  26.806
98298W        W99163  27.185  18.810  27.502
98299W        W99164  29.147  20.721  28.013
98300W        W99165  29.065  18.708  27.574
98301W        W99166  25.604  21.538  26.950
98302W        W99167  26.113  20.725  26.486
98303W        W99168  26.028  18.342  29.039
98304W        W99169  27.147  21.195  29.141
98305W        W99170  28.902  20.163  26.931
98306W        W99171  28.256  20.340  25.811
98307W        W99172  27.551  21.861  28.023
98308W        W99173  28.408  20.583  29.060
98309W        W99174  27.223  18.293  26.340
98310W        W99175  27.936  19.162  27.199
98311W        W99176  25.622  20.749  27.531
98312W        W99177  26.875  18.711  26.172
98313W        W99178  26.679  20.195  29.021
98314W        W99179  27.673  19.176  26.735
98315W        W99180  27.878  20.586  27.857
98316W        W99181  26.032  21.191  28.292
98317W        W99182  26.623  21.174  29.015
98318W        W99183  26.474  18.971  26.029
98319W        W99184  27.991  19.113  26.354
98320W        W99185  27.949  21.221  28.591
98321W        W99186  26.634  19.813  27.190
98322W        W99187  26.289  21.511  28.055
98323W        W99188  29.034  21.628  25.656
98324W        W99189  25.897  20.300  28.652
98325W        W99190  27.892  20.562  27.340
98326W        W99191  26.328  20.211  26.582
98327W        W99192  26.699  21.218  27.977
98328W        W99193  27.077  18.637  27.018
98329W        W99194  25.688  20.621  25.948
98330W        W99195  27.207  19.572  25.818
98331W        W99196  25.853  20.121  26.837
98332W        W99197  27.143  18.763  28.301
98333W        W99198  28.815  18.472  25.728
98334W        W99199  28.908  20.218  28.827
98335W        W99200  27.562  21.475  28.979
98336W        W99201  29.120  20.569  28.501
98337W        W99202  28.528  21.367  29.112
98338W        W99203  26.267  21.823  27.590
98339W        W99204  29.126  20.445  26.464
98340W        W99205  27.656  19.712  26.977
98341W        W99206  27.423  18.324  26.867
98342W        W99207  26.482  21.308  26.704
98343W        W99208  26.981  19.049  27.929
98344W        W99209  26.681  18.418  27.398
98345W        W99210  25.744  21.240  25.946
98346W        W99211  27.560  20.604  26.664
98347W        W99212  26.435  21.399  28.543
98348W        W99213  25.912  20.222  26.239
98349W        W99214  25.797  18.765  27.238
98350W        W99215  27.345  20.730  27.295
98351W        W99216  25.597  18.584  26.315
98352W        W99217  28.261  19.790  28.242
98353W        W99218  28.138  19.176  25.814
98354W        W99219  28.655  20.848  27.462
98355W        W99220  27.316  21.332  27.293
98356W        W99221  26.728  21.436  26.204
98357W        W99222  28.010  18.339  25.634
98358W        W99223  25.810  21.599  27.375
98359W        W99224  28.007  19.357  29.010
98360W        W99225  25.990  18.887  29.009
98361W        W99226  25.721  19.487  26.342
98362W        W99227  26.412  19.476  26.067
98363W        W99228  28.175  19.803  28.884
98364W        W99229  26.518  20.084  27.593
98365W        W99230  27.992  18.370  26.713
98366W        W99231  27.123  21.801  27.216
98367W        W99232  28.337  21.263  28.153
98368W        W99233  27.921  21.412  27.264
98369W        W99234  27.940  20.392  26.858
98370W        W99235  27.402  18.617  25.929
98371W        W99236  29.083  18.245  26.651
98372W        W99237  26.771  19.880  25.814
98373W        W99238  28.937  19.217  26.804
98374W        W99239  27.629  20.387  25.681
98375W        W99240  28.565  20.587  28.429
98376W        W99241  28.219  21.288  25.896
98377W        W99242  26.834  18.963  28.802
98378W        W99243  26.654  19.547  28.043
98379W        W99244  28.746  21.042  28.320
98380W        W99245  27.846  18.992  28.697
98381W        W99246  25.690  19.463  28.474
98382W        W99247  27.450  19.940  28.200
98383W        W99248  25.807  20.698  26.857
98384W        W99249  25.954  19.995  27.747
98385W        W99250  28.271  20.281  28.097
98386W        W99251  28.043  21.661  28.908
98387W        W99252  27.939  19.400  28.461
98388W        W99253  28.216  21.454  26.866
98389W        W99254  27.218  21.174  28.189
98390W        W99255  26.703  21.529  27.458
98391W        W99256  28.508  20.700  27.877
98392W        W99257  27.558  20.772  29.014
98393W        W99258  26.163  20.725  27.353
98394W        W99259  28.509  20.484  26.998
98395W        W99260  28.150  21.550  27.749
98396W        W99261  26.128  21.279  27.619
98397W        W99262  27.149  19.331  28.829
98398W        W99263  27.600  21.497  26.340
98399W        W99264  26.908  20.752  28.978
98400W        W99265  27.034  20.990  26.355
98401W        W99266  26.255  19.730  25.614
98402W        W99267  25.594  25.461   3.359
98403W        W99268  25.970  24.354   2.882
98404W        W99269  28.675  24.084   0.652
98405W        W99270  28.805  25.169   2.679
98406W        W99271  26.723  25.160   0.205
98407W        W99272  26.806  23.312   1.188
98408W        W99273  26.321  23.160   1.352
98409W        W99274  27.312  23.975   0.786
98410W        W99275  26.987  25.067   3.141
98411W        W99276  25.636  22.628   3.104
98412W        W99277  26.398  21.908   2.906
98413W        W99278  28.092  22.296   1.793
98414W        W99279  27.741  23.167   0.363
98415W        W99280  28.311  22.601   3.454
98416W        W99281  25.677  22.393   2.579
98417W        W99282  25.776  25.012   3.600
98418W        W99283  27.298  24.402   0.332
98419W        W99284  25.730  23.185   2.025
98420W        W99285  26.623  23.076   3.262
98421W        W99286  29.082  22.935   1.761
98422W        W99287  28.846  23.978   2.620
98423W        W99288  27.154  23.311   1.647
98424W        W99289  27.700  24.650   2.016
98425W        W99290  26.200  24.084   2.248
98426W        W99291  25.559  23.612   1.819
98427W        W99292  26.595  23.584   3.011
98428W        W99293  28.866  23.367   3.265
98429W        W99294  26.482  24.811   1.710
98430W        W99295  27.603  24.500   2.844
98431W        W99296  26.823  23.140   2.069
98432W        W99297  27.115  23.924   1.712
98433W        W99298  28.112  24.697   3.560
98434W        W99299  27.191  24.017   3.570
98435W        W99300  27.172  23.733   3.048
98436W        W99301  25.581  23.124   3.570
98437W        W99302  28.413  24.659   3.169
98438W        W99303  25.994  22.241   1.167
98439W        W99304  26.521  24.499   2.166
98440W        W99305  28.984  24.282   1.456
98441W        W99306  28.397  22.682   2.023
98442W        W99307  28.682  22.635   0.118
98443W        W99308  29.147  23.436   2.424
98444W        W99309  27.114  25.143   2.177
98445W        W99310  28.888  24.609   0.615
98446W        W99311  26.017  25.395   0.369
98447W        W99312  26.410  25.441   1.045
98448W        W99313  26.207  22.195   2.471
98449W        W99314  28.830  23.213   2.746
98450W        W99315  28.235  23.635   1.205
98451W        W99316  28.201  23.323   0.232
98452W        W99317  27.409  24.467   2.372
98453W        W99318  27.215  22.797   1.571
98454W        W99319  27.815  24.884   2.565
98455W        W99320  28.686  23.675   0.987
98456W        W99321  27.588  22.333   1.003
98457W        W99322  26.245  25.027   0.686
98458W        W99323  25.616  22.526   1.285
98459W        W99324  28.402  23.133   1.759
98460W        W99325  25.860  24.750   1.674
98461W        W99326  27.201  25.100   0.544
98462W        W99327  28.593  23.126   0.008
98463W        W99328  25.616  24.884   2.172
98464W        W99329  26.407  24.456   2.652
98465W        W99330  26.780  23.816   1.271
98466W        W99331  26.802  22.221   2.364
98467W        W99332  29.031  21.983   1.661
98468W        W99333  26.250  23.855   0.129
98469W        W99334  25.905  22.888   0.308
98470W        W99335  25.967  24.844   1.102
98471W        W99336  27.098  24.327   1.350
98472W        W99337  28.430  25.186   3.064
98473W        W99338  27.356  22.828   0.748
98474W        W99339  28.739  25.226   1.520
98475W        W99340  28.416  23.079   3.118
98476W        W99341  29.129  24.735   1.252
98477W        W99342  27.756  24.027   2.736
98478W        W99343  25.522  23.578   0.942
98479W        W99344  26.633  23.993   2.515
98480W        W99345  27.837  23.257   0.893
98481W        W99346  27.714  23.747   0.997
98482W        W99347  26.057  23.167   2.471
98483W        W99348  26.042  23.043   3.393
98484W        W99349  25.932  21.960   1.552
98485W        W99350  27.700  22.307   2.113
98486W        W99351  27.348  22.492   3.276
98487W        W99352  27.703  22.641   0.454
98488W        W99353  28.886  25.034   3.208
98489W        W99354  27.853  22.115   3.247
98490W        W99355  28.872  24.416   3.369
98491W        W99356  28.302  22.583   2.965
98492W        W99357  28.102  22.521   1.235
98493W        W99358  28.495  23.655   3.639
98494W        W99359  26.235  25.231   1.625
98495W        W99360  26.893  22.948   0.611
98496W        W99361  26.462  22.232   3.275
98497W        W99362  28.514  22.716   0.956
98498W        W99363  28.881  23.198   0.901
98499W        W99364  26.624  25.415   3.372
98500W        W99365  26.550  21.951   0.607
98501W        W99366  28.871  22.485   1.642
98502W        W99367  29.021  24.734   0.087
98503W        W99368  25.928  23.937   1.789
98504W        W99369  27.845  22.524   0.019
98505W        W99370  28.979  24.856   1.739
98506W        W99371  29.018  22.050   2.489
98507W        W99372  27.463  23.262   3.043
98508W        W99373  27.556  24.601   0.746
98509W        W99374  27.956  23.895   3.486
98510W        W99375  27.630  21.872   1.795
98511W        W99376  26.242  22.775   1.858
98512W        W99377  25.796  23.975   2.632
98513W        W99378  27.655  25.168   1.338
98514W        W99379  28.849  22.765   2.210
98515W        W99380  27.486  25.112   2.977
98516W        W99381  28.829  24.171   0.182
98517W        W99382  27.264  23.654   1.243
98518W        W99383  29.116  22.165   2.984
98519W        W99384  27.265  24.000   2.578
98520W        W99385  27.482  22.886   2.023
98521W        W99386  28.334  23.184   0.861
98522W        W99387  28.621  22.917   0.503
98523W        W99388  28.430  24.957   0.892
98524W        W99389  28.264  24.560   1.688
98525W        W99390  28.160  23.639   0.666
98526W        W99391  27.593  23.849   1.652
98527W        W99392  28.474  23.637   1.719
98528W        W99393  25.849  22.652   2.143
98529W        W99394  28.627  23.704   2.970
98530W        W99395  28.978  25.322   2.116
98531W        W99396  26.908  24.766   1.518
98532W        W99397  27.915  25.299   2.842
98533W        W99398  27.909  22.629   2.606
98534W        W99399  27.116  25.337   2.667
98535W        W99400  28.813  22.291   1.133
98536W        W99401  28.604  23.610   2.434
98537W        W99402  25.587  22.931   2.472
98538W        W99403  28.447  22.726   1.490
98539W        W99404  28.858  22.877   3.267
98540W        W99405  27.743  24.576   1.485
98541W        W99406  26.999  25.167   1.098
98542W        W99407  26.114  22.347   0.356
98543W        W99408  27.218  22.001   2.166
98544W        W99409  26.246  25.121   0.014
98545W        W99410  26.620  23.587   0.765
98546W        W99411  27.274  24.216   3.078
98547W        W99412  27.104  22.574   1.068
98548W        W99413  28.460  22.171   1.496
98549W        W99414  28.180  25.453   1.824
98550W        W99415  27.592  25.101   2.164
98551W        W99416  26.988  24.138   2.125
98552W        W99417  28.758  24.861   2.251
98553W        W99418  26.452  22.364   1.020
98554W        W99419  26.974  24.661   1.980
98555W        W99420  26.457  22.592   0.045
98556W        W99421  27.258  23.201   2.439
98557W        W99422  28.106  22.067   2.309
98558W        W99423  25.526  23.910   2.194
98559W        W99424  27.230  23.728   0.352
98560W        W99425  26.498  22.043   0.122
98561W        W99426  27.236  23.124   1.173
98562W        W99427  28.206  22.100   2.872
98563W        W99428  26.794  24.112   2.981
98564W        W99429  27.598  23.894   3.198
98565W        W99430  28.215  23.924   3.091
98566W        W99431  27.499  22.064   3.596
98567W        W99432  26.721  22.680   1.989
98568W        W99433  26.147  22.636   1.387
98569W        W99434  25.933  25.348   1.063
98570W        W99435  27.265  24.678   3.188
98571W        W99436  26.300  24.163   0.547
98572W        W99437  27.980  23.548   1.768
98573W        W99438  28.260  23.347   2.167
98574W        W99439  27.465  24.021   2.101
98575W        W99440  27.935  24.395   0.233
98576W        W99441  27.607  22.416   1.561
98577W        W99442  29.086  22.694   0.829
98578W        W99443  25.580  25.283   2.860
98579W        W99444  25.997  24.509   2.392
98580W        W99445  25.564  25.355   0.624
98581W        W99446  27.463  22.625   2.430
98582W        W99447  26.826  24.648   0.279
98583W        W99448  28.731  25.030   0.465
98584W        W99449  27.706  23.683   0.479
98585W        W99450  26.549  22.874   0.996
98586W        W99451  27.381  22.784   0.048
98587W        W99452  27.965  24.349   3.226
98588W        W99453  28.318  22.255   0.843
98589W        W99454  25.648  22.103   0.291
98590W        W99455  26.934  24.422   2.581
98591W        W99456  26.733  24.338   1.673
98592W        W99457  26.475  24.290   0.071
98593W        W99458  25.716  24.531   0.839
98594W        W99459  26.220  23.601   3.281
98595W        W99460  26.924  22.161   3.467
98596W        W99461  27.633  22.303   2.823
98597W        W99462  26.828  22.071   1.104
98598W        W99463  27.887  22.148   0.609
98599W        W99464  25.832  22.080   2.186
98600W        W99465  25.880  23.043   1.556
98601W        W99466  28.569  22.151   1.962
98602W        W99467  25.991  22.649   0.776
98603W        W99468  28.562  22.337   2.392
98604W        W99469  28.958  23.540   0.077
98605W        W99470  26.250  22.298   1.896
98606W        W99471  27.364  22.870   2.836
98607W        W99472  25.512  22.560   0.314
98608W        W99473  26.298  23.949   2.875
98609W        W99474  27.656  23.347   2.054
98610W        W99475  27.523  25.426   0.350
98611W        W99476  25.669  23.933   0.047
98612W        W99477  26.404  24.344   3.173
98613W        W99478  25.925  23.511   2.804
98614W        W99479  26.916  23.616   2.598
98615W        W99480  28.684  21.975   2.860
98616W        W99481  29.082  23.585   2.851
98617W        W99482  29.070  23.785   0.537
98618W        W99483  27.933  24.117   0.636
98619W        W99484  28.407  25.417   0.331
98620W        W99485  27.584  23.407   3.473
98621W        W99486  25.914  24.374   3.513
98622W        W99487  29.120  22.296   3.465
98623W        W99488  28.838  23.224   2.086
98624W        W99489  27.146  25.354   3.563
98625W        W99490  27.001  21.983   0.290
98626W        W99491  28.540  24.582   0.233
98627W        W99492  26.309  22.675   3.119
98628W        W99493  26.743  24.669   2.981
98629W        W99494  28.869  22.660   2.779
98630W        W99495  28.080  25.319   0.747
98631W        W99496  28.319  23.938   2.114
98632W        W99497  26.569  22.354   2.781
98633W        W99498  27.038  23.423   3.538
98634W        W99499  26.541  24.602   0.732
98635W        W99500  28.296  24.100   0.996
98636W        W99501  26.064  22.726   2.720
98637W        W99502  27.393  24.788   1.184
98638W        W99503  29.143  23.348   1.365
98639W        W99504  27.365  21.981   3.084
98640W        W99505  28.145  24.686   2.163
98641W        W99506  28.448  25.030   1.871
98642W        W99507  27.667  24.832   0.299
98643W        W99508  25.677  24.724   3.141
98644W        W99509  26.420  22.716   2.379
98645W        W99510  26.390  22.064   1.489
98646W        W99511  28.011  22.906   2.181
98647W        W99512  26.809  24.077   0.381
98648W        W99513  28.807  24.019   1.880
98649W        W99514  26.134  24.777   3.303
98650W        W99515  28.521  25.459   1.100
98651W        W99516  26.620  22.479   1.545
98652W        W99517  26.389  23.972   1.635
98653W        W99518  26.702  25.383   2.385
98654W        W99519  28.769  25.479   3.417
98655W        W99520  27.928  23.667   2.350
98656W        W99521  25.777  23.465   0.265
98657W        W99522  28.911  25.123   0.962
98658W        W99523  28.748  22.447   0.581
98659W        W99524  26.887  21.966   2.984
98660W        W99525  28.593  24.768   1.442
98661W        W99526  28.622  23.324   1.347
98662W        W99527  26.739  22.997   1.563
98663W        W99528  26.984  23.259   2.887
98664W        W99529  28.095  24.412   2.750
98665W        W99530  26.745  22.866   2.862
98666W        W99531  26.724  25.332   1.478
98667W        W99532  26.041  25.291   3.112
98668W        W99533  26.153  24.652   0.242
98669W        W99534  28.670  24.410   1.052
98670W        W99535  26.274  23.202   2.938
98671W        W99536  29.047  23.132   0.419
98672W        W99537  26.792  24.189   0.890
98673W        W99538  27.891  23.571   2.971
98674W        W99539  27.782  23.199   2.515
98675W        W99540  26.342  23.571   2.544
98676W        W99541  28.552  25.459   2.373
98677W        W99542  28.343  22.093   3.367
98678W        W99543  26.007  22.243   2.954
98679W        W99544  26.346  23.266   2.007
98680W        W99545  26.715  23.080   0.129
98681W        W99546  25.518  24.839   2.674
98682W        W99547  27.103  23.548   2.117
98683W        W99548  26.926  22.573   0.222
98684W        W99549  26.061  23.389   1.003
98685W        W99550  25.832  25.241   2.440
98686W        W99551  28.627  23.467   0.548
98687W        W99552  28.722  22.383   3.234
98688W        W99553  28.158  24.592   1.197
98689W        W99554  25.756  23.516   3.374
98690W        W99555  28.722  21.980   0.670
98691W        W99556  28.242  24.455   0.681
98692W        W99557  27.144  23.513   0.766
98693W        W99558  28.331  22.317   0.289
98694W        W99559  28.396  22.924   2.475
98695W        W99560  26.105  23.517   1.682
98696W        W99561  26.399  24.456   1.331
98697W        W99562  28.162  23.076   1.296
98698W        W99563  27.185  22.455   1.992
98699W        W99564  29.147  24.366   2.503
98700W        W99565  29.065  22.353   2.064
98701W        W99566  25.604  25.183   1.440
98702W        W99567  26.113  24.370   0.976
98703W        W99568  26.028  21.987   3.529
98704W        W99569  27.147  24.840   3.631
98705W        W99570  28.902  23.808   1.421
98706W        W99571  28.256  23.985   0.301
98707W        W99572  27.551  25.506   2.513
98708W        W99573  28.408  24.228   3.550
98709W        W99574  27.223  21.938   0.830
98710W        W99575  27.936  22.807   1.689
98711W        W99576  25.622  24.394   2.021
98712W        W99577  26.875  22.356   0.662
98713W        W99578  26.679  23.840   3.511
98714W        W99579  27.673  22.821   1.225
98715W        W99580  27.878  24.231   2.347
98716W        W99581  26.032  24.836   2.782
98717W        W99582  26.623  24.819   3.505
98718W        W99583  26.474  22.616   0.519
98719W        W99584  27.991  22.758   0.844
98720W        W99585  27.949  24.866   3.081
98721W        W99586  26.634  23.458   1.680
98722W        W99587  26.289  25.156   2.545
98723W        W99588  29.034  25.273   0.146
98724W        W99589  25.897  23.945   3.142
98725W        W99590  27.892  24.207   1.830
98726W        W99591  26.328  23.856   1.072
98727W        W99592  26.699  24.863   2.467
98728W        W99593  27.077  22.282   1.508
98729W        W99594  25.688  24.266   0.438
98730W        W99595  27.207  23.217   0.308
98731W        W99596  25.853  23.766   1.327
98732W        W99597  27.143  22.408   2.791
98733W        W99598  28.815  22.117   0.218
98734W        W99599  28.908  23.863   3.317
98735W        W99600  27.562  25.120   3.469
98736W        W99601  29.120  24.214   2.991
98737W        W99602  28.528  25.012   3.602
98738W        W99603  26.267  25.468   2.080
98739W        W99604  29.126  24.090   0.954
98740W        W99605  27.656  23.357   1.467
98741W        W99606  27.423  21.969   1.357
98742W        W99607  26.482  24.953   1.194
98743W        W99608  26.981  22.694   2.419
98744W        W99609  26.681  22.063   1.888
98745W        W99610  25.744  24.885   0.436
98746W        W99611  27.560  24.249   1.154
98747W        W99612  26.435  25.044   3.033
98748W        W99613  25.912  23.867   0.729
98749W        W99614  25.797  22.410   1.728
98750W        W99615  27.345  24.375   1.785
98751W        W99616  25.597  22.229   0.805
98752W        W99617  28.261  23.435   2.732
98753W        W99618  28.138  22.821   0.304
98754W        W99619  28.655  24.493   1.952
98755W        W99620  27.316  24.977   1.783
98756W        W99621  26.728  25.081   0.694
98757W        W99622  28.010  21.984   0.124
98758W        W99623  25.810  25.244   1.865
98759W        W99624  28.007  23.002   3.500
98760W        W99625  25.990  22.532   3.499
98761W        W99626  25.721  23.132   0.832
98762W        W99627  26.412  23.121   0.557
98763W        W99628  28.175  23.448   3.374
98764W        W99629  26.518  23.729   2.083
98765W        W99630  27.992  22.015   1.203
98766W        W99631  27.123  25.446   1.706
98767W        W99632  28.337  24.908   2.643
98768W        W99633  27.921  25.057   1.754
98769W        W99634  27.940  24.037   1.348
98770W        W99635  27.402  22.262   0.419
98771W        W99636  29.083  21.890   1.141
98772W        W99637  26.771  23.525   0.304
98773W        W99638  28.937  22.862   1.294
98774W        W99639  27.629  24.032   0.171
98775W        W99640  28.565  24.232   2.919
98776W        W99641  28.219  24.933   0.386
98777W        W99642  26.834  22.608   3.292
98778W        W99643  26.654  23.192   2.533
98779W        W99644  28.746  24.687   2.810
98780W        W99645  27.846  22.637   3.187
98781W        W99646  25.690  23.108   2.964
98782W        W99647  27.450  23.585   2.690
98783W        W99648  25.807  24.343   1.347
98784W        W99649  25.954  23.640   2.237
98785W        W99650  28.271  23.926   2.587
98786W        W99651  28.043  25.306   3.398
98787W        W99652  27.939  23.045   2.951
98788W        W99653  28.216  25.099   1.356
98789W        W99654  27.218  24.819   2.679
98790W        W99655  26.703  25.174   1.948
98791W        W99656  28.508  24.345   2.367
98792W        W99657  27.558  24.417   3.504
98793W        W99658  26.163  24.370   1.843
98794W        W99659  28.509  24.129   1.488
98795W        W99660  28.150  25.195   2.239
98796W        W99661  26.128  24.924   2.109
98797W        W99662  27.149  22.976   3.319
98798W        W99663  27.600  25.142   0.830
98799W        W99664  26.908  24.397   3.468
98800W        W99665  27.034  24.635   0.845
98801W        W99666  26.255  23.375   0.104
98802W        W99667  25.594  25.461   7.003
98803W        W99668  25.970  24.354   6.526
98804W        W99669  28.675  24.084   4.296
98805W        W99670  28.805  25.169   6.323
98806W        W99671  26.723  25.160   3.849
98807W        W99672  26.806  23.312   4.832
98808W        W99673  26.321  23.160   4.996
98809W        W99674  27.312  23.975   4.430
98810W        W99675  26.987  25.067   6.785
98811W        W99676  25.636  22.628   6.748
98812W        W99677  26.398  21.908   6.550
98813W        W99678  28.092  22.296   5.437
98814W        W99679  27.741  23.167   4.007
98815W        W99680  28.311  22.601   7.098
98816W        W99681  25.677  22.393   6.223
98817W        W99682  25.776  25.012   7.244
98818W        W99683  27.298  24.402   3.976
98819W        W99684  25.730  23.185   5.669
98820W        W99685  26.623  23.076   6.906
98821W        W99686  29.082  22.935   5.405
98822W        W99687  28.846  23.978   6.264
98823W        W99688  27.154  23.311   5.291
98824W        W99689  27.700  24.650   5.660
98825W        W99690  26.200  24.084   5.892
98826W        W99691  25.559  23.612   5.463
98827W        W99692  26.595  23.584   6.655
98828W        W99693  28.866  23.367   6.909
98829W        W99694  26.482  24.811   5.354
98830W        W99695  27.603  24.500   6.488
98831W        W99696  26.823  23.140   5.713
98832W        W99697  27.115  23.924   5.356
98833W        W99698  28.112  24.697   7.204
98834W        W99699  27.191  24.017   7.214
98835W        W99700  27.172  23.733   6.692
98836W        W99701  25.581  23.124   7.214
98837W        W99702  28.413  24.659   6.813
98838W        W99703  25.994  22.241   4.811
98839W        W99704  26.521  24.499   5.810
98840W        W99705  28.984  24.282   5.100
98841W        W99706  28.397  22.682   5.667
98842W        W99707  28.682  22.635   3.762
98843W        W99708  29.147  23.436   6.068
98844W        W99709  27.114  25.143   5.821
98845W        W99710  28.888  24.609   4.259
98846W        W99711  26.017  25.395   4.013
98847W        W99712  26.410  25.441   4.689
98848W        W99713  26.207  22.195   6.115
98849W        W99714  28.830  23.213   6.390
98850W        W99715  28.235  23.635   4.849
98851W        W99716  28.201  23.323   3.876
98852W        W99717  27.409  24.467   6.016
98853W        W99718  27.215  22.797   5.215
98854W        W99719  27.815  24.884   6.209
98855W        W99720  28.686  23.675   4.631
98856W        W99721  27.588  22.333   4.647
98857W        W99722  26.245  25.027   4.330
98858W        W99723  25.616  22.526   4.929
98859W        W99724  28.402  23.133   5.403
98860W        W99725  25.860  24.750   5.318
98861W        W99726  27.201  25.100   4.188
98862W        W99727  28.593  23.126   3.652
98863W        W99728  25.616  24.884   5.816
98864W        W99729  26.407  24.456   6.296
98865W        W99730  26.780  23.816   4.915
98866W        W99731  26.802  22.221   6.008
98867W        W99732  29.031  21.983   5.305
98868W        W99733  26.250  23.855   3.773
98869W        W99734  25.905  22.888   3.952
98870W        W99735  25.967  24.844   4.746
98871W        W99736  27.098  24.327   4.994
98872W        W99737  28.430  25.186   6.708
98873W        W99738  27.356  22.828   4.392
98874W        W99739  28.739  25.226   5.164
98875W        W99740  28.416  23.079   6.762
98876W        W99741  29.129  24.735   4.896
98877W        W99742  27.756  24.027   6.380
98878W        W99743  25.522  23.578   4.586
98879W        W99744  26.633  23.993   6.159
98880W        W99745  27.837  23.257   4.537
98881W        W99746  27.714  23.747   4.641
98882W        W99747  26.057  23.167   6.115
98883W        W99748  26.042  23.043   7.037
98884W        W99749  25.932  21.960   5.196
98885W        W99750  27.700  22.307   5.757
98886W        W99751  27.348  22.492   6.920
98887W        W99752  27.703  22.641   4.098
98888W        W99753  28.886  25.034   6.852
98889W        W99754  27.853  22.115   6.891
98890W        W99755  28.872  24.416   7.013
98891W        W99756  28.302  22.583   6.609
98892W        W99757  28.102  22.521   4.879
98893W        W99758  28.495  23.655   7.283
98894W        W99759  26.235  25.231   5.269
98895W        W99760  26.893  22.948   4.255
98896W        W99761  26.462  22.232   6.919
98897W        W99762  28.514  22.716   4.600
98898W        W99763  28.881  23.198   4.545
98899W        W99764  26.624  25.415   7.016
98900W        W99765  26.550  21.951   4.251
98901W        W99766  28.871  22.485   5.286
98902W        W99767  29.021  24.734   3.731
98903W        W99768  25.928  23.937   5.433
98904W        W99769  27.845  22.524   3.663
98905W        W99770  28.979  24.856   5.383
98906W        W99771  29.018  22.050   6.133
98907W        W99772  27.463  23.262   6.687
98908W        W99773  27.556  24.601   4.390
98909W        W99774  27.956  23.895   7.130
98910W        W99775  27.630  21.872   5.439
98911W        W99776  26.242  22.775   5.502
98912W        W99777  25.796  23.975   6.276
98913W        W99778  27.655  25.168   4.982
98914W        W99779  28.849  22.765   5.854
98915W        W99780  27.486  25.112   6.621
98916W        W99781  28.829  24.171   3.826
98917W        W99782  27.264  23.654   4.887
98918W        W99783  29.116  22.165   6.628
98919W        W99784  27.265  24.000   6.222
98920W        W99785  27.482  22.886   5.667
98921W        W99786  28.334  23.184   4.505
98922W        W99787  28.621  22.917   4.147
98923W        W99788  28.430  24.957   4.536
98924W        W99789  28.264  24.560   5.332
98925W        W99790  28.160  23.639   4.310
98926W        W99791  27.593  23.849   5.296
98927W        W99792  28.474  23.637   5.363
98928W        W99793  25.849  22.652   5.787
98929W        W99794  28.627  23.704   6.614
98930W        W99795  28.978  25.322   5.760
98931W        W99796  26.908  24.766   5.162
98932W        W99797  27.915  25.299   6.486
98933W        W99798  27.909  22.629   6.250
98934W        W99799  27.116  25.337   6.311
98935W        W99800  28.813  22.291   4.777
98936W        W99801  28.604  23.610   6.078
98937W        W99802  25.587  22.931   6.116
98938W        W99803  28.447  22.726   5.134
98939W        W99804  28.858  22.877   6.911
98940W        W99805  27.743  24.576   5.129
98941W        W99806  26.999  25.167   4.742
98942W        W99807  26.114  22.347   4.000
98943W        W99808  27.218  22.001   5.810
98944W        W99809  26.246  25.121   3.658
98945W        W99810  26.620  23.587   4.409
98946W        W99811  27.274  24.216   6.722
98947W        W99812  27.104  22.574   4.712
98948W        W99813  28.460  22.171   5.140
98949W        W99814  28.180  25.453   5.468
98950W        W99815  27.592  25.101   5.808
98951W        W99816  26.988  24.138   5.769
98952W        W99817  28.758  24.861   5.895
98953W        W99818  26.452  22.364   4.664
98954W        W99819  26.974  24.661   5.624
98955W        W99820  26.457  22.592   3.689
98956W        W99821  27.258  23.201   6.083
98957W        W99822  28.106  22.067   5.953
98958W        W99823  25.526  23.910   5.838
98959W        W99824  27.230  23.728   3.996
98960W        W99825  26.498  22.043   3.766
98961W        W99826  27.236  23.124   4.817
98962W        W99827  28.206  22.100   6.516
98963W        W99828  26.794  24.112   6.625
98964W        W99829  27.598  23.894   6.842
98965W        W99830  28.215  23.924   6.735
98966W        W99831  27.499  22.064   7.240
98967W        W99832  26.721  22.680   5.633
98968W        W99833  26.147  22.636   5.031
98969W        W99834  25.933  25.348   4.707
98970W        W99835  27.265  24.678   6.832
98971W        W99836  26.300  24.163   4.191
98972W        W99837  27.980  23.548   5.412
98973W        W99838  28.260  23.347   5.811
98974W        W99839  27.465  24.021   5.745
98975W        W99840  27.935  24.395   3.877
98976W        W99841  27.607  22.416   5.205
98977W        W99842  29.086  22.694   4.473
98978W        W99843  25.580  25.283   6.504
98979W        W99844  25.997  24.509   6.036
98980W        W99845  25.564  25.355   4.268
98981W        W99846  27.463  22.625   6.074
98982W        W99847  26.826  24.648   3.923
98983W        W99848  28.731  25.030   4.109
98984W        W99849  27.706  23.683   4.123
98985W        W99850  26.549  22.874   4.640
98986W        W99851  27.381  22.784   3.692
98987W        W99852  27.965  24.349   6.870
98988W        W99853  28.318  22.255   4.487
98989W        W99854  25.648  22.103   3.935
98990W        W99855  26.934  24.422   6.225
98991W        W99856  26.733  24.338   5.317
98992W        W99857  26.475  24.290   3.715
98993W        W99858  25.716  24.531   4.483
98994W        W99859  26.220  23.601   6.925
98995W        W99860  26.924  22.161   7.111
98996W        W99861  27.633  22.303   6.467
98997W        W99862  26.828  22.071   4.748
98998W        W99863  27.887  22.148   4.253
98999W        W99864  25.832  22.080   5.830
99000W        W99865  25.880  23.043   5.200
99001W        W99866  28.569  22.151   5.606
99002W        W99867  25.991  22.649   4.420
99003W        W99868  28.562  22.337   6.036
99004W        W99869  28.958  23.540   3.721
99005W        W99870  26.250  22.298   5.540
99006W        W99871  27.364  22.870   6.480
99007W        W99872  25.512  22.560   3.958
99008W        W99873  26.298  23.949   6.519
99009W        W99874  27.656  23.347   5.698
99010W        W99875  27.523  25.426   3.994
99011W        W99876  25.669  23.933   3.691
99012W        W99877  26.404  24.344   6.817
99013W        W99878  25.925  23.511   6.448
99014W        W99879  26.916  23.616   6.242
99015W        W99880  28.684  21.975   6.504
99016W        W99881  29.082  23.585   6.495
99017W        W99882  29.070  23.785   4.181
99018W        W99883  27.933  24.117   4.280
99019W        W99884  28.407  25.417   3.975
99020W        W99885  27.584  23.407   7.117
99021W        W99886  25.914  24.374   7.157
99022W        W99887  29.120  22.296   7.109
99023W        W99888  28.838  23.224   5.730
99024W        W99889  27.146  25.354   7.207
99025W        W99890  27.001  21.983   3.934
99026W        W99891  28.540  24.582   3.877
99027W        W99892  26.309  22.675   6.763
99028W        W99893  26.743  24.669   6.625
99029W        W99894  28.869  22.660   6.423
99030W        W99895  28.080  25.319   4.391
99031W        W99896  28.319  23.938   5.758
99032W        W99897  26.569  22.354   6.425
99033W        W99898  27.038  23.423   7.182
99034W        W99899  26.541  24.602   4.376
99035W        W99900  28.296  24.100   4.640
99036W        W99901  26.064  22.726   6.364
99037W        W99902  27.393  24.788   4.828
99038W        W99903  29.143  23.348   5.009
99039W        W99904  27.365  21.981   6.728
99040W        W99905  28.145  24.686   5.807
99041W        W99906  28.448  25.030   5.515
99042W        W99907  27.667  24.832   3.943
99043W        W99908  25.677  24.724   6.785
99044W        W99909  26.420  22.716   6.023
99045W        W99910  26.390  22.064   5.133
99046W        W99911  28.011  22.906   5.825
99047W        W99912  26.809  24.077   4.025
99048W        W99913  28.807  24.019   5.524
99049W        W99914  26.134  24.777   6.947
99050W        W99915  28.521  25.459   4.744
99051W        W99916  26.620  22.479   5.189
99052W        W99917  26.389  23.972   5.279
99053W        W99918  26.702  25.383   6.029
99054W        W99919  28.769  25.479   7.061
99055W        W99920  27.928  23.667   5.994
99056W        W99921  25.777  23.465   3.909
99057W        W99922  28.911  25.123   4.606
99058W        W99923  28.748  22.447   4.225
99059W        W99924  26.887  21.966   6.628
99060W        W99925  28.593  24.768   5.086
99061W        W99926  28.622  23.324   4.991
99062W        W99927  26.739  22.997   5.207
99063W        W99928  26.984  23.259   6.531
99064W        W99929  28.095  24.412   6.394
99065W        W99930  26.745  22.866   6.506
99066W        W99931  26.724  25.332   5.122
99067W        W99932  26.041  25.291   6.756
99068W        W99933  26.153  24.652   3.886
99069W        W99934  28.670  24.410   4.696
99070W        W99935  26.274  23.202   6.582
99071W        W99936  29.047  23.132   4.063
99072W        W99937  26.792  24.189   4.534
99073W        W99938  27.891  23.571   6.615
99074W        W99939  27.782  23.199   6.159
99075W        W99940  26.342  23.571   6.188
99076W        W99941  28.552  25.459   6.017
99077W        W99942  28.343  22.093   7.011
99078W        W99943  26.007  22.243   6.598
99079W        W99944  26.346  23.266   5.651
99080W        W99945  26.715  23.080   3.773
99081W        W99946  25.518  24.839   6.318
99082W        W99947  27.103  23.548   5.761
99083W        W99948  26.926  22.573   3.866
99084W        W99949  26.061  23.389   4.647
99085W        W99950  25.832  25.241   6.084
99086W        W99951  28.627  23.467   4.192
99087W        W99952  28.722  22.383   6.878
99088W        W99953  28.158  24.592   4.841
99089W        W99954  25.756  23.516   7.018
99090W        W99955  28.722  21.980   4.314
99091W        W99956  28.242  24.455   4.325
99092W        W99957  27.144  23.513   4.410
99093W        W99958  28.331  22.317   3.933
99094W        W99959  28.396  22.924   6.119
99095W        W99960  26.105  23.517   5.326
99096W        W99961  26.399  24.456   4.975
99097W        W99962  28.162  23.076   4.940
99098W        W99963  27.185  22.455   5.636
99099W        W99964  29.147  24.366   6.147
99100W        W99965  29.065  22.353   5.708
99101W        W99966  25.604  25.183   5.084
99102W        W99967  26.113  24.370   4.620
99103W        W99968  26.028  21.987   7.173
99104W        W99969  27.147  24.840   7.275
99105W        W99970  28.902  23.808   5.065
99106W        W99971  28.256  23.985   3.945
99107W        W99972  27.551  25.506   6.157
99108W        W99973  28.408  24.228   7.194
99109W        W99974  27.223  21.938   4.474
99110W        W99975  27.936  22.807   5.333
99111W        W99976  25.622  24.394   5.665
99112W        W99977  26.875  22.356   4.306
99113W        W99978  26.679  23.840   7.155
99114W        W99979  27.673  22.821   4.869
99115W        W99980  27.878  24.231   5.991
99116W        W99981  26.032  24.836   6.426
99117W        W99982  26.623  24.819   7.149
99118W        W99983  26.474  22.616   4.163
99119W        W99984  27.991  22.758   4.488
99120W        W99985  27.949  24.866   6.725
99121W        W99986  26.634  23.458   5.324
99122W        W99987  26.289  25.156   6.189
99123W        W99988  29.034  25.273   3.790
99124W        W99989  25.897  23.945   6.786
99125W        W99990  27.892  24.207   5.474
99126W        W99991  26.328  23.856   4.716
99127W        W99992  26.699  24.863   6.111
99128W        W99993  27.077  22.282   5.152
99129W        W99994  25.688  24.266   4.082
99130W        W99995  27.207  23.217   3.952
99131W        W99996  25.853  23.766   4.971
99132W        W99997  27.143  22.408   6.435
99133W        W99998  28.815  22.117   3.862
99134W        W99999  28.908  23.863   6.961
99135W        W    0  27.562  25.120   7.113
99136W        W    1  29.120  24.214   6.635
99137W        W    2  28.528  25.012   7.246
99138W        W    3  26.267  25.468   5.724
99139W        W    4  29.126  24.090   4.598
99140W        W    5  27.656  23.357   5.111
99141W        W    6  27.423  21.969   5.001
99142W        W    7  26.482  24.953   4.838
99143W        W    8  26.981  22.694   6.063
99144W        W    9  26.681  22.063   5.532
99145W        W   10  25.744  24.885   4.080
99146W        W   11  27.560  24.249   4.798
99147W        W   12  26.435  25.044   6.677
99148W        W   13  25.912  23.867   4.373
99149W        W   14  25.797  22.410   5.372
99150W        W   15  27.345  24.375   5.429
99151W        W   16  25.597  22.229   4.449
99152W        W   17  28.261  23.435   6.376
99153W        W   18  28.138  22.821   3.948
99154W        W   19  28.655  24.493   5.596
99155W        W   20  27.316  24.977   5.427
99156W        W   21  26.728  25.081   4.338
99157W        W   22  28.010  21.984   3.768
99158W        W   23  25.810  25.244   5.509
99159W        W   24  28.007  23.002   7.144
99160W        W   25  25.990  22.532   7.143
99161W        W   26  25.721  23.132   4.476
99162W        W   27  26.412  23.121   4.201
99163W        W   28  28.175  23.448   7.018
99164W        W   29  26.518  23.729   5.727
99165W        W   30  27.992  22.015   4.847
99166W        W   31  27.123  25.446   5.350
99167W        W   32  28.337  24.908   6.287
99168W        W   33  27.921  25.057   5.398
99169W        W   34  27.940  24.037   4.992
99170W        W   35  27.402  22.262   4.063
99171W        W   36  29.083  21.890   4.785
99172W        W   37  26.771  23.525   3.948
99173W        W   38  28.937  22.862   4.938
99174W        W   39  27.629  24.032   3.815
99175W        W   40  28.565  24.232   6.563
99176W        W   41  28.219  24.933   4.030
99177W        W   42  26.834  22.608   6.936
99178W        W   43  26.654  23.192   6.177
99179W        W   44  28.746  24.687   6.454
99180W        W   45  27.846  22.637   6.831
99181W        W   46  25.690  23.108   6.608
99182W        W   47  27.450  23.585   6.334
99183W        W   48  25.807  24.343   4.991
99184W        W   49  25.954  23.640   5.881
99185W        W   50  28.271  23.926   6.231
99186W        W   51  28.043  25.306   7.042
99187W        W   52  27.939  23.045   6.595
99188W        W   53  28.216  25.099   5.000
99189W        W   54  27.218  24.819   6.323
99190W        W   55  26.703  25.174   5.592
99191W        W   56  28.508  24.345   6.011
99192W        W   57  27.558  24.417   7.148
99193W        W   58  26.163  24.370   5.487
99194W        W   59  28.509  24.129   5.132
99195W        W   60  28.150  25.195   5.883
99196W        W   61  26.128  24.924   5.753
99197W        W   62  27.149  22.976   6.963
99198W        W   63  27.600  25.142   4.474
99199W        W   64  26.908  24.397   7.112
99200W        W   65  27.034  24.635   4.489
99201W        W   66  26.255  23.375   3.748
99202W        W   67  25.594  25.461  10.648
99203W        W   68  25.970  24.354  10.171
99204W        W   69  28.675  24.084   7.941
99205W        W   70  28.805  25.169   9.968
99206W        W   71  26.723  25.160   7.494
99207W        W   72  26.806  23.312   8.477
99208W        W   73  26.321  23.160   8.641
99209W        W   74  27.312  23.975   8.075
99210W        W   75  26.987  25.067  10.430
99211W        W   76  25.636  22.628  10.393
99212W        W   77  26.398  21.908  10.195
99213W        W   78  28.092  22.296   9.082
99214W        W   79  27.741  23.167   7.652
99215W        W   80  28.311  22.601  10.743
99216W        W   81  25.677  22.393   9.868
99217W        W   82  25.776  25.012  10.889
99218W        W   83  27.298  24.402   7.621
99219W        W   84  25.730  23.185   9.314
99220W        W   85  26.623  23.076  10.551
99221W        W   86  29.082  22.935   9.050
99222W        W   87  28.846  23.978   9.909
99223W        W   88  27.154  23.311   8.936
99224W        W   89  27.700  24.650   9.305
99225W        W   90  26.200  24.084   9.537
99226W        W   91  25.559  23.612   9.108
99227W        W   92  26.595  23.584  10.300
99228W        W   93  28.866  23.367  10.554
99229W        W   94  26.482  24.811   8.999
99230W        W   95  27.603  24.500  10.133
99231W        W   96  26.823  23.140   9.358
99232W        W   97  27.115  23.924   9.001
99233W        W   98  28.112  24.697  10.849
99234W        W   99  27.191  24.017  10.859
99235W        W  100  27.172  23.733  10.337
99236W        W  101  25.581  23.124  10.859
99237W        W  102  28.413  24.659  10.458
99238W        W  103  25.994  22.241   8.456
99239W        W  104  26.521  24.499   9.455
99240W        W  105  28.984  24.282   8.745
99241W        W  106  28.397  22.682   9.312
99242W        W  107  28.682  22.635   7.407
99243W        W  108  29.147  23.436   9.713
99244W        W  109  27.114  25.143   9.466
99245W        W  110  28.888  24.609   7.904
99246W        W  111  26.017  25.395   7.658
99247W        W  112  26.410  25.441   8.334
99248W        W  113  26.207  22.195   9.760
99249W        W  114  28.830  23.213  10.035
99250W        W  115  28.235  23.635   8.494
99251W        W  116  28.201  23.323   7.521
99252W        W  117  27.409  24.467   9.661
99253W        W  118  27.215  22.797   8.860
99254W        W  119  27.815  24.884   9.854
99255W        W  120  28.686  23.675   8.276
99256W        W  121  27.588  22.333   8.292
99257W        W  122  26.245  25.027   7.975
99258W        W  123  25.616  22.526   8.574
99259W        W  124  28.402  23.133   9.048
99260W        W  125  25.860  24.750   8.963
99261W        W  126  27.201  25.100   7.833
99262W        W  127  28.593  23.126   7.297
99263W        W  128  25.616  24.884   9.461
99264W        W  129  26.407  24.456   9.941
99265W        W  130  26.780  23.816   8.560
99266W        W  131  26.802  22.221   9.653
99267W        W  132  29.031  21.983   8.950
99268W        W  133  26.250  23.855   7.418
99269W        W  134  25.905  22.888   7.597
99270W        W  135  25.967  24.844   8.391
99271W        W  136  27.098  24.327   8.639
99272W        W  137  28.430  25.186  10.353
99273W        W  138  27.356  22.828   8.037
99274W        W  139  28.739  25.226   8.809
99275W        W  140  28.416  23.079  10.407
99276W        W  141  29.129  24.735   8.541
99277W        W  142  27.756  24.027  10.025
99278W        W  143  25.522  23.578   8.231
99279W        W  144  26.633  23.993   9.804
99280W        W  145  27.837  23.257   8.182
99281W        W  146  27.714  23.747   8.286
99282W        W  147  26.057  23.167   9.760
99283W        W  148  26.042  23.043  10.682
99284W        W  149  25.932  21.960   8.841
99285W        W  150  27.700  22.307   9.402
99286W        W  151  27.348  22.492  10.565
99287W        W  152  27.703  22.641   7.743
99288W        W  153  28.886  25.034  10.497
99289W        W  154  27.853  22.115  10.536
99290W        W  155  28.872  24.416  10.658
99291W        W  156  28.302  22.583  10.254
99292W        W  157  28.102  22.521   8.524
99293W        W  158  28.495  23.655  10.928
99294W        W  159  26.235  25.231   8.914
99295W        W  160  26.893  22.948   7.900
99296W        W  161  26.462  22.232  10.564
99297W        W  162  28.514  22.716   8.245
99298W        W  163  28.881  23.198   8.190
99299W        W  164  26.624  25.415  10.661
99300W        W  165  26.550  21.951   7.896
99301W        W  166  28.871  22.485   8.931
99302W        W  167  29.021  24.734   7.376
99303W        W  168  25.928  23.937   9.078
99304W        W  169  27.845  22.524   7.308
99305W        W  170  28.979  24.856   9.028
99306W        W  171  29.018  22.050   9.778
99307W        W  172  27.463  23.262  10.332
99308W        W  173  27.556  24.601   8.035
99309W        W  174  27.956  23.895  10.775
99310W        W  175  27.630  21.872   9.084
99311W        W  176  26.242  22.775   9.147
99312W        W  177  25.796  23.975   9.921
99313W        W  178  27.655  25.168   8.627
99314W        W  179  28.849  22.765   9.499
99315W        W  180  27.486  25.112  10.266
99316W        W  181  28.829  24.171   7.471
99317W        W  182  27.264  23.654   8.532
99318W        W  183  29.116  22.165  10.273
99319W        W  184  27.265  24.000   9.867
99320W        W  185  27.482  22.886   9.312
99321W        W  186  28.334  23.184   8.150
99322W        W  187  28.621  22.917   7.792
99323W        W  188  28.430  24.957   8.181
99324W        W  189  28.264  24.560   8.977
99325W        W  190  28.160  23.639   7.955
99326W        W  191  27.593  23.849   8.941
99327W        W  192  28.474  23.637   9.008
99328W        W  193  25.849  22.652   9.432
99329W        W  194  28.627  23.704  10.259
99330W        W  195  28.978  25.322   9.405
99331W        W  196  26.908  24.766   8.807
99332W        W  197  27.915  25.299  10.131
99333W        W  198  27.909  22.629   9.895
99334W        W  199  27.116  25.337   9.956
99335W        W  200  28.813  22.291   8.422
99336W        W  201  28.604  23.610   9.723
99337W        W  202  25.587  22.931   9.761
99338W        W  203  28.447  22.726   8.779
99339W        W  204  28.858  22.877  10.556
99340W        W  205  27.743  24.576   8.774
99341W        W  206  26.999  25.167   8.387
99342W        W  207  26.114  22.347   7.645
99343W        W  208  27.218  22.001   9.455
99344W        W  209  26.246  25.121   7.303
99345W        W  210  26.620  23.587   8.054
99346W        W  211  27.274  24.216  10.367
99347W        W  212  27.104  22.574   8.357
99348W        W  213  28.460  22.171   8.785
99349W        W  214  28.180  25.453   9.113
99350W        W  215  27.592  25.101   9.453
99351W        W  216  26.988  24.138   9.414
99352W        W  217  28.758  24.861   9.540
99353W        W  218  26.452  22.364   8.309
99354W        W  219  26.974  24.661   9.269
99355W        W  220  26.457  22.592   7.334
99356W        W  221  27.258  23.201   9.728
99357W        W  222  28.106  22.067   9.598
99358W        W  223  25.526  23.910   9.483
99359W        W  224  27.230  23.728   7.641
99360W        W  225  26.498  22.043   7.411
99361W        W  226  27.236  23.124   8.462
99362W        W  227  28.206  22.100  10.161
99363W        W  228  26.794  24.112  10.270
99364W        W  229  27.598  23.894  10.487
99365W        W  230  28.215  23.924  10.380
99366W        W  231  27.499  22.064  10.885
99367W        W  232  26.721  22.680   9.278
99368W        W  233  26.147  22.636   8.676
99369W        W  234  25.933  25.348   8.352
99370W        W  235  27.265  24.678  10.477
99371W        W  236  26.300  24.163   7.836
99372W        W  237  27.980  23.548   9.057
99373W        W  238  28.260  23.347   9.456
99374W        W  239  27.465  24.021   9.390
99375W        W  240  27.935  24.395   7.522
99376W        W  241  27.607  22.416   8.850
99377W        W  242  29.086  22.694   8.118
99378W        W  243  25.580  25.283  10.149
99379W        W  244  25.997  24.509   9.681
99380W        W  245  25.564  25.355   7.913
99381W        W  246  27.463  22.625   9.719
99382W        W  247  26.826  24.648   7.568
99383W        W  248  28.731  25.030   7.754
99384W        W  249  27.706  23.683   7.768
99385W        W  250  26.549  22.874   8.285
99386W        W  251  27.381  22.784   7.337
99387W        W  252  27.965  24.349  10.515
99388W        W  253  28.318  22.255   8.132
99389W        W  254  25.648  22.103   7.580
99390W        W  255  26.934  24.422   9.870
99391W        W  256  26.733  24.338   8.962
99392W        W  257  26.475  24.290   7.360
99393W        W  258  25.716  24.531   8.128
99394W        W  259  26.220  23.601  10.570
99395W        W  260  26.924  22.161  10.756
99396W        W  261  27.633  22.303  10.112
99397W        W  262  26.828  22.071   8.393
99398W        W  263  27.887  22.148   7.898
99399W        W  264  25.832  22.080   9.475
99400W        W  265  25.880  23.043   8.845
99401W        W  266  28.569  22.151   9.251
99402W        W  267  25.991  22.649   8.065
99403W        W  268  28.562  22.337   9.681
99404W        W  269  28.958  23.540   7.366
99405W        W  270  26.250  22.298   9.185
99406W        W  271  27.364  22.870  10.125
99407W        W  272  25.512  22.560   7.603
99408W        W  273  26.298  23.949  10.164
99409W        W  274  27.656  23.347   9.343
99410W        W  275  27.523  25.426   7.639
99411W        W  276  25.669  23.933   7.336
99412W        W  277  26.404  24.344  10.462
99413W        W  278  25.925  23.511  10.093
99414W        W  279  26.916  23.616   9.887
99415W        W  280  28.684  21.975  10.149
99416W        W  281  29.082  23.585  10.140
99417W        W  282  29.070  23.785   7.826
99418W        W  283  27.933  24.117   7.925
99419W        W  284  28.407  25.417   7.620
99420W        W  285  27.584  23.407  10.762
99421W        W  286  25.914  24.374  10.802
99422W        W  287  29.120  22.296  10.754
99423W        W  288  28.838  23.224   9.375
99424W        W  289  27.146  25.354  10.852
99425W        W  290  27.001  21.983   7.579
99426W        W  291  28.540  24.582   7.522
99427W        W  292  26.309  22.675  10.408
99428W        W  293  26.743  24.669  10.270
99429W        W  294  28.869  22.660  10.068
99430W        W  295  28.080  25.319   8.036
99431W        W  296  28.319  23.938   9.403
99432W        W  297  26.569  22.354  10.070
99433W        W  298  27.038  23.423  10.827
99434W        W  299  26.541  24.602   8.021
99435W        W  300  28.296  24.100   8.285
99436W        W  301  26.064  22.726  10.009
99437W        W  302  27.393  24.788   8.473
99438W        W  303  29.143  23.348   8.654
99439W        W  304  27.365  21.981  10.373
99440W        W  305  28.145  24.686   9.452
99441W        W  306  28.448  25.030   9.160
99442W        W  307  27.667  24.832   7.588
99443W        W  308  25.677  24.724  10.430
99444W        W  309  26.420  22.716   9.668
99445W        W  310  26.390  22.064   8.778
99446W        W  311  28.011  22.906   9.470
99447W        W  312  26.809  24.077   7.670
99448W        W  313  28.807  24.019   9.169
99449W        W  314  26.134  24.777  10.592
99450W        W  315  28.521  25.459   8.389
99451W        W  316  26.620  22.479   8.834
99452W        W  317  26.389  23.972   8.924
99453W        W  318  26.702  25.383   9.674
99454W        W  319  28.769  25.479  10.706
99455W        W  320  27.928  23.667   9.639
99456W        W  321  25.777  23.465   7.554
99457W        W  322  28.911  25.123   8.251
99458W        W  323  28.748  22.447   7.870
99459W        W  324  26.887  21.966  10.273
99460W        W  325  28.593  24.768   8.731
99461W        W  326  28.622  23.324   8.636
99462W        W  327  26.739  22.997   8.852
99463W        W  328  26.984  23.259  10.176
99464W        W  329  28.095  24.412  10.039
99465W        W  330  26.745  22.866  10.151
99466W        W  331  26.724  25.332   8.767
99467W        W  332  26.041  25.291  10.401
99468W        W  333  26.153  24.652   7.531
99469W        W  334  28.670  24.410   8.341
99470W        W  335  26.274  23.202  10.227
99471W        W  336  29.047  23.132   7.708
99472W        W  337  26.792  24.189   8.179
99473W        W  338  27.891  23.571  10.260
99474W        W  339  27.782  23.199   9.804
99475W        W  340  26.342  23.571   9.833
99476W        W  341  28.552  25.459   9.662
99477W        W  342  28.343  22.093  10.656
99478W        W  343  26.007  22.243  10.243
99479W        W  344  26.346  23.266   9.296
99480W        W  345  26.715  23.080   7.418
99481W        W  346  25.518  24.839   9.963
99482W        W  347  27.103  23.548   9.406
99483W        W  348  26.926  22.573   7.511
99484W        W  349  26.061  23.389   8.292
99485W        W  350  25.832  25.241   9.729
99486W        W  351  28.627  23.467   7.837
99487W        W  352  28.722  22.383  10.523
99488W        W  353  28.158  24.592   8.486
99489W        W  354  25.756  23.516  10.663
99490W        W  355  28.722  21.980   7.959
99491W        W  356  28.242  24.455   7.970
99492W        W  357  27.144  23.513   8.055
99493W        W  358  28.331  22.317   7.578
99494W        W  359  28.396  22.924   9.764
99495W        W  360  26.105  23.517   8.971
99496W        W  361  26.399  24.456   8.620
99497W        W  362  28.162  23.076   8.585
99498W        W  363  27.185  22.455   9.281
99499W        W  364  29.147  24.366   9.792
99500W        W  365  29.065  22.353   9.353
99501W        W  366  25.604  25.183   8.729
99502W        W  367  26.113  24.370   8.265
99503W        W  368  26.028  21.987  10.818
99504W        W  369  27.147  24.840  10.920
99505W        W  370  28.902  23.808   8.710
99506W        W  371  28.256  23.985   7.590
99507W        W  372  27.551  25.506   9.802
99508W        W  373  28.408  24.228  10.839
99509W        W  374  27.223  21.938   8.119
99510W        W  375  27.936  22.807   8.978
99511W        W  376  25.622  24.394   9.310
99512W        W  377  26.875  22.356   7.951
99513W        W  378  26.679  23.840  10.800
99514W        W  379  27.673  22.821   8.514
99515W        W  380  27.878  24.231   9.636
99516W        W  381  26.032  24.836  10.071
99517W        W  382  26.623  24.819  10.794
99518W        W  383  26.474  22.616   7.808
99519W        W  384  27.991  22.758   8.133
99520W        W  385  27.949  24.866  10.370
99521W        W  386  26.634  23.458   8.969
99522W        W  387  26.289  25.156   9.834
99523W        W  388  29.034  25.273   7.435
99524W        W  389  25.897  23.945  10.431
99525W        W  390  27.892  24.207   9.119
99526W        W  391  26.328  23.856   8.361
99527W        W  392  26.699  24.863   9.756
99528W        W  393  27.077  22.282   8.797
99529W        W  394  25.688  24.266   7.727
99530W        W  395  27.207  23.217   7.597
99531W        W  396  25.853  23.766   8.616
99532W        W  397  27.143  22.408  10.080
99533W        W  398  28.815  22.117   7.507
99534W        W  399  28.908  23.863  10.606
99535W        W  400  27.562  25.120  10.758
99536W        W  401  29.120  24.214  10.280
99537W        W  402  28.528  25.012  10.891
99538W        W  403  26.267  25.468   9.369
99539W        W  404  29.126  24.090   8.243
99540W        W  405  27.656  23.357   8.756
99541W        W  406  27.423  21.969   8.646
99542W        W  407  26.482  24.953   8.483
99543W        W  408  26.981  22.694   9.708
99544W        W  409  26.681  22.063   9.177
99545W        W  410  25.744  24.885   7.725
99546W        W  411  27.560  24.249   8.443
99547W        W  412  26.435  25.044  10.322
99548W        W  413  25.912  23.867   8.018
99549W        W  414  25.797  22.410   9.017
99550W        W  415  27.345  24.375   9.074
99551W        W  416  25.597  22.229   8.094
99552W        W  417  28.261  23.435  10.021
99553W        W  418  28.138  22.821   7.593
99554W        W  419  28.655  24.493   9.241
99555W        W  420  27.316  24.977   9.072
99556W        W  421  26.728  25.081   7.983
99557W        W  422  28.010  21.984   7.413
99558W        W  423  25.810  25.244   9.154
99559W        W  424  28.007  23.002  10.789
99560W        W  425  25.990  22.532  10.788
99561W        W  426  25.721  23.132   8.121
99562W        W  427  26.412  23.121   7.846
99563W        W  428  28.175  23.448  10.663
99564W        W  429  26.518  23.729   9.372
99565W        W  430  27.992  22.015   8.492
99566W        W  431  27.123  25.446   8.995
99567W        W  432  28.337  24.908   9.932
99568W        W  433  27.921  25.057   9.043
99569W        W  434  27.940  24.037   8.637
99570W        W  435  27.402  22.262   7.708
99571W        W  436  29.083  21.890   8.430
99572W        W  437  26.771  23.525   7.593
99573W        W  438  28.937  22.862   8.583
99574W        W  439  27.629  24.032   7.460
99575W        W  440  28.565  24.232  10.208
99576W        W  441  28.219  24.933   7.675
99577W        W  442  26.834  22.608  10.581
99578W        W  443  26.654  23.192   9.822
99579W        W  444  28.746  24.687  10.099
99580W        W  445  27.846  22.637  10.476
99581W        W  446  25.690  23.108  10.253
99582W        W  447  27.450  23.585   9.979
99583W        W  448  25.807  24.343   8.636
99584W        W  449  25.954  23.640   9.526
99585W        W  450  28.271  23.926   9.876
99586W        W  451  28.043  25.306  10.687
99587W        W  452  27.939  23.045  10.240
99588W        W  453  28.216  25.099   8.645
99589W        W  454  27.218  24.819   9.968
99590W        W  455  26.703  25.174   9.237
99591W        W  456  28.508  24.345   9.656
99592W        W  457  27.558  24.417  10.793
99593W        W  458  26.163  24.370   9.132
99594W        W  459  28.509  24.129   8.777
99595W        W  460  28.150  25.195   9.528
99596W        W  461  26.128  24.924   9.398
99597W        W  462  27.149  22.976  10.608
99598W        W  463  27.600  25.142   8.119
99599W        W  464  26.908  24.397  10.757
99600W        W  465  27.034  24.635   8.134
99601W        W  466  26.255  23.375   7.393
99602W        W  467  25.594  25.461  14.292
99603W        W  468  25.970  24.354  13.815
99604W        W  469  28.675  24.084  11.585
99605W        W  470  28.805  25.169  13.612
99606W        W  471  26.723  25.160  11.138
99607W        W  472  26.806  23.312  12.121
99608W        W  473  26.321  23.160  12.285
99609W        W  474  27.312  23.975  11.719
99610W        W  475  26.987  25.067  14.074
99611W        W  476  25.636  22.628  14.037
99612W        W  477  26.398  21.908  13.839
99613W        W  478  28.092  22.296  12.726
99614W        W  479  27.741  23.167  11.296
99615W        W  480  28.311  22.601  14.387
99616W        W  481  25.677  22.393  13.512
99617W        W  482  25.776  25.012  14.533
99618W        W  483  27.298  24.402  11.265
99619W        W  484  25.730  23.185  12.958
99620W        W  485  26.623  23.076  14.195
99621W        W  486  29.082  22.935  12.694
99622W        W  487  28.846  23.978  13.553
99623W        W  488  27.154  23.311  12.580
99624W        W  489  27.700  24.650  12.949
99625W        W  490  26.200  24.084  13.181
99626W        W  491  25.559  23.612  12.752
99627W        W  492  26.595  23.584  13.944
99628W        W  493  28.866  23.367  14.198
99629W        W  494  26.482  24.811  12.643
99630W        W  495  27.603  24.500  13.777
99631W        W  496  26.823  23.140  13.002
99632W        W  497  27.115  23.924  12.645
99633W        W  498  28.112  24.697  14.493
99634W        W  499  27.191  24.017  14.503
99635W        W  500  27.172  23.733  13.981
99636W        W  501  25.581  23.124  14.503
99637W        W  502  28.413  24.659  14.102
99638W        W  503  25.994  22.241  12.100
99639W        W  504  26.521  24.499  13.099
99640W        W  505  28.984  24.282  12.389
99641W        W  506  28.397  22.682  12.956
99642W        W  507  28.682  22.635  11.051
99643W        W  508  29.147  23.436  13.357
99644W        W  509  27.114  25.143  13.110
99645W        W  510  28.888  24.609  11.548
99646W        W  511  26.017  25.395  11.302
99647W        W  512  26.410  25.441  11.978
99648W        W  513  26.207  22.195  13.404
99649W        W  514  28.830  23.213  13.679
99650W        W  515  28.235  23.635  12.138
99651W        W  516  28.201  23.323  11.165
99652W        W  517  27.409  24.467  13.305
99653W        W  518  27.215  22.797  12.504
99654W        W  519  27.815  24.884  13.498
99655W        W  520  28.686  23.675  11.920
99656W        W  521  27.588  22.333  11.936
99657W        W  522  26.245  25.027  11.619
99658W        W  523  25.616  22.526  12.218
99659W        W  524  28.402  23.133  12.692
99660W        W  525  25.860  24.750  12.607
99661W        W  526  27.201  25.100  11.477
99662W        W  527  28.593  23.126  10.941
99663W        W  528  25.616  24.884  13.105
99664W        W  529  26.407  24.456  13.585
99665W        W  530  26.780  23.816  12.204
99666W        W  531  26.802  22.221  13.297
99667W        W  532  29.031  21.983  12.594
99668W        W  533  26.250  23.855  11.062
99669W        W  534  25.905  22.888  11.241
99670W        W  535  25.967  24.844  12.035
99671W        W  536  27.098  24.327  12.283
99672W        W  537  28.430  25.186  13.997
99673W        W  538  27.356  22.828  11.681
99674W        W  539  28.739  25.226  12.453
99675W        W  540  28.416  23.079  14.051
99676W        W  541  29.129  24.735  12.185
99677W        W  542  27.756  24.027  13.669
99678W        W  543  25.522  23.578  11.875
99679W        W  544  26.633  23.993  13.448
99680W        W  545  27.837  23.257  11.826
99681W        W  546  27.714  23.747  11.930
99682W        W  547  26.057  23.167  13.404
99683W        W  548  26.042  23.043  14.326
99684W        W  549  25.932  21.960  12.485
99685W        W  550  27.700  22.307  13.046
99686W        W  551  27.348  22.492  14.209
99687W        W  552  27.703  22.641  11.387
99688W        W  553  28.886  25.034  14.141
99689W        W  554  27.853  22.115  14.180
99690W        W  555  28.872  24.416  14.302
99691W        W  556  28.302  22.583  13.898
99692W        W  557  28.102  22.521  12.168
99693W        W  558  28.495  23.655  14.572
99694W        W  559  26.235  25.231  12.558
99695W        W  560  26.893  22.948  11.544
99696W        W  561  26.462  22.232  14.208
99697W        W  562  28.514  22.716  11.889
99698W        W  563  28.881  23.198  11.834
99699W        W  564  26.624  25.415  14.305
99700W        W  565  26.550  21.951  11.540
99701W        W  566  28.871  22.485  12.575
99702W        W  567  29.021  24.734  11.020
99703W        W  568  25.928  23.937  12.722
99704W        W  569  27.845  22.524  10.952
99705W        W  570  28.979  24.856  12.672
99706W        W  571  29.018  22.050  13.422
99707W        W  572  27.463  23.262  13.976
99708W        W  573  27.556  24.601  11.679
99709W        W  574  27.956  23.895  14.419
99710W        W  575  27.630  21.872  12.728
99711W        W  576  26.242  22.775  12.791
99712W        W  577  25.796  23.975  13.565
99713W        W  578  27.655  25.168  12.271
99714W        W  579  28.849  22.765  13.143
99715W        W  580  27.486  25.112  13.910
99716W        W  581  28.829  24.171  11.115
99717W        W  582  27.264  23.654  12.176
99718W        W  583  29.116  22.165  13.917
99719W        W  584  27.265  24.000  13.511
99720W        W  585  27.482  22.886  12.956
99721W        W  586  28.334  23.184  11.794
99722W        W  587  28.621  22.917  11.436
99723W        W  588  28.430  24.957  11.825
99724W        W  589  28.264  24.560  12.621
99725W        W  590  28.160  23.639  11.599
99726W        W  591  27.593  23.849  12.585
99727W        W  592  28.474  23.637  12.652
99728W        W  593  25.849  22.652  13.076
99729W        W  594  28.627  23.704  13.903
99730W        W  595  28.978  25.322  13.049
99731W        W  596  26.908  24.766  12.451
99732W        W  597  27.915  25.299  13.775
99733W        W  598  27.909  22.629  13.539
99734W        W  599  27.116  25.337  13.600
99735W        W  600  28.813  22.291  12.066
99736W        W  601  28.604  23.610  13.367
99737W        W  602  25.587  22.931  13.405
99738W        W  603  28.447  22.726  12.423
99739W        W  604  28.858  22.877  14.200
99740W        W  605  27.743  24.576  12.418
99741W        W  606  26.999  25.167  12.031
99742W        W  607  26.114  22.347  11.289
99743W        W  608  27.218  22.001  13.099
99744W        W  609  26.246  25.121  10.947
99745W        W  610  26.620  23.587  11.698
99746W        W  611  27.274  24.216  14.011
99747W        W  612  27.104  22.574  12.001
99748W        W  613  28.460  22.171  12.429
99749W        W  614  28.180  25.453  12.757
99750W        W  615  27.592  25.101  13.097
99751W        W  616  26.988  24.138  13.058
99752W        W  617  28.758  24.861  13.184
99753W        W  618  26.452  22.364  11.953
99754W        W  619  26.974  24.661  12.913
99755W        W  620  26.457  22.592  10.978
99756W        W  621  27.258  23.201  13.372
99757W        W  622  28.106  22.067  13.242
99758W        W  623  25.526  23.910  13.127
99759W        W  624  27.230  23.728  11.285
99760W        W  625  26.498  22.043  11.055
99761W        W  626  27.236  23.124  12.106
99762W        W  627  28.206  22.100  13.805
99763W        W  628  26.794  24.112  13.914
99764W        W  629  27.598  23.894  14.131
99765W        W  630  28.215  23.924  14.024
99766W        W  631  27.499  22.064  14.529
99767W        W  632  26.721  22.680  12.922
99768W        W  633  26.147  22.636  12.320
99769W        W  634  25.933  25.348  11.996
99770W        W  635  27.265  24.678  14.121
99771W        W  636  26.300  24.163  11.480
99772W        W  637  27.980  23.548  12.701
99773W        W  638  28.260  23.347  13.100
99774W        W  639  27.465  24.021  13.034
99775W        W  640  27.935  24.395  11.166
99776W        W  641  27.607  22.416  12.494
99777W        W  642  29.086  22.694  11.762
99778W        W  643  25.580  25.283  13.793
99779W        W  644  25.997  24.509  13.325
99780W        W  645  25.564  25.355  11.557
99781W        W  646  27.463  22.625  13.363
99782W        W  647  26.826  24.648  11.212
99783W        W  648  28.731  25.030  11.398
99784W        W  649  27.706  23.683  11.412
99785W        W  650  26.549  22.874  11.929
99786W        W  651  27.381  22.784  10.981
99787W        W  652  27.965  24.349  14.159
99788W        W  653  28.318  22.255  11.776
99789W        W  654  25.648  22.103  11.224
99790W        W  655  26.934  24.422  13.514
99791W        W  656  26.733  24.338  12.606
99792W        W  657  26.475  24.290  11.004
99793W        W  658  25.716  24.531  11.772
99794W        W  659  26.220  23.601  14.214
99795W        W  660  26.924  22.161  14.400
99796W        W  661  27.633  22.303  13.756
99797W        W  662  26.828  22.071  12.037
99798W        W  663  27.887  22.148  11.542
99799W        W  664  25.832  22.080  13.119
99800W        W  665  25.880  23.043  12.489
99801W        W  666  28.569  22.151  12.895
99802W        W  667  25.991  22.649  11.709
99803W        W  668  28.562  22.337  13.325
99804W        W  669  28.958  23.540  11.010
99805W        W  670  26.250  22.298  12.829
99806W        W  671  27.364  22.870  13.769
99807W        W  672  25.512  22.560  11.247
99808W        W  673  26.298  23.949  13.808
99809W        W  674  27.656  23.347  12.987
99810W        W  675  27.523  25.426  11.283
99811W        W  676  25.669  23.933  10.980
99812W        W  677  26.404  24.344  14.106
99813W        W  678  25.925  23.511  13.737
99814W        W  679  26.916  23.616  13.531
99815W        W  680  28.684  21.975  13.793
99816W        W  681  29.082  23.585  13.784
99817W        W  682  29.070  23.785  11.470
99818W        W  683  27.933  24.117  11.569
99819W        W  684  28.407  25.417  11.264
99820W        W  685  27.584  23.407  14.406
99821W        W  686  25.914  24.374  14.446
99822W        W  687  29.120  22.296  14.398
99823W        W  688  28.838  23.224  13.019
99824W        W  689  27.146  25.354  14.496
99825W        W  690  27.001  21.983  11.223
99826W        W  691  28.540  24.582  11.166
99827W        W  692  26.309  22.675  14.052
99828W        W  693  26.743  24.669  13.914
99829W        W  694  28.869  22.660  13.712
99830W        W  695  28.080  25.319  11.680
99831W        W  696  28.319  23.938  13.047
99832W        W  697  26.569  22.354  13.714
99833W        W  698  27.038  23.423  14.471
99834W        W  699  26.541  24.602  11.665
99835W        W  700  28.296  24.100  11.929
99836W        W  701  26.064  22.726  13.653
99837W        W  702  27.393  24.788  12.117
99838W        W  703  29.143  23.348  12.298
99839W        W  704  27.365  21.981  14.017
99840W        W  705  28.145  24.686  13.096
99841W        W  706  28.448  25.030  12.804
99842W        W  707  27.667  24.832  11.232
99843W        W  708  25.677  24.724  14.074
99844W        W  709  26.420  22.716  13.312
99845W        W  710  26.390  22.064  12.422
99846W        W  711  28.011  22.906  13.114
99847W        W  712  26.809  24.077  11.314
99848W        W  713  28.807  24.019  12.813
99849W        W  714  26.134  24.777  14.236
99850W        W  715  28.521  25.459  12.033
99851W        W  716  26.620  22.479  12.478
99852W        W  717  26.389  23.972  12.568
99853W        W  718  26.702  25.383  13.318
99854W        W  719  28.769  25.479  14.350
99855W        W  720  27.928  23.667  13.283
99856W        W  721  25.777  23.465  11.198
99857W        W  722  28.911  25.123  11.895
99858W        W  723  28.748  22.447  11.514
99859W        W  724  26.887  21.966  13.917
99860W        W  725  28.593  24.768  12.375
99861W        W  726  28.622  23.324  12.280
99862W        W  727  26.739  22.997  12.496
99863W        W  728  26.984  23.259  13.820
99864W        W  729  28.095  24.412  13.683
99865W        W  730  26.745  22.866  13.795
99866W        W  731  26.724  25.332  12.411
99867W        W  732  26.041  25.291  14.045
99868W        W  733  26.153  24.652  11.175
99869W        W  734  28.670  24.410  11.985
99870W        W  735  26.274  23.202  13.871
99871W        W  736  29.047  23.132  11.352
99872W        W  737  26.792  24.189  11.823
99873W        W  738  27.891  23.571  13.904
99874W        W  739  27.782  23.199  13.448
99875W        W  740  26.342  23.571  13.477
99876W        W  741  28.552  25.459  13.306
99877W        W  742  28.343  22.093  14.300
99878W        W  743  26.007  22.243  13.887
99879W        W  744  26.346  23.266  12.940
99880W        W  745  26.715  23.080  11.062
99881W        W  746  25.518  24.839  13.607
99882W        W  747  27.103  23.548  13.050
99883W        W  748  26.926  22.573  11.155
99884W        W  749  26.061  23.389  11.936
99885W        W  750  25.832  25.241  13.373
99886W        W  751  28.627  23.467  11.481
99887W        W  752  28.722  22.383  14.167
99888W        W  753  28.158  24.592  12.130
99889W        W  754  25.756  23.516  14.307
99890W        W  755  28.722  21.980  11.603
99891W        W  756  28.242  24.455  11.614
99892W        W  757  27.144  23.513  11.699
99893W        W  758  28.331  22.317  11.222
99894W        W  759  28.396  22.924  13.408
99895W        W  760  26.105  23.517  12.615
99896W        W  761  26.399  24.456  12.264
99897W        W  762  28.162  23.076  12.229
99898W        W  763  27.185  22.455  12.925
99899W        W  764  29.147  24.366  13.436
99900W        W  765  29.065  22.353  12.997
99901W        W  766  25.604  25.183  12.373
99902W        W  767  26.113  24.370  11.909
99903W        W  768  26.028  21.987  14.462
99904W        W  769  27.147  24.840  14.564
99905W        W  770  28.902  23.808  12.354
99906W        W  771  28.256  23.985  11.234
99907W        W  772  27.551  25.506  13.446
99908W        W  773  28.408  24.228  14.483
99909W        W  774  27.223  21.938  11.763
99910W        W  775  27.936  22.807  12.622
99911W        W  776  25.622  24.394  12.954
99912W        W  777  26.875  22.356  11.595
99913W        W  778  26.679  23.840  14.444
99914W        W  779  27.673  22.821  12.158
99915W        W  780  27.878  24.231  13.280
99916W        W  781  26.032  24.836  13.715
99917W        W  782  26.623  24.819  14.438
99918W        W  783  26.474  22.616  11.452
99919W        W  784  27.991  22.758  11.777
99920W        W  785  27.949  24.866  14.014
99921W        W  786  26.634  23.458  12.613
99922W        W  787  26.289  25.156  13.478
99923W        W  788  29.034  25.273  11.079
99924W        W  789  25.897  23.945  14.075
99925W        W  790  27.892  24.207  12.763
99926W        W  791  26.328  23.856  12.005
99927W        W  792  26.699  24.863  13.400
99928W        W  793  27.077  22.282  12.441
99929W        W  794  25.688  24.266  11.371
99930W        W  795  27.207  23.217  11.241
99931W        W  796  25.853  23.766  12.260
99932W        W  797  27.143  22.408  13.724
99933W        W  798  28.815  22.117  11.151
99934W        W  799  28.908  23.863  14.250
99935W        W  800  27.562  25.120  14.402
99936W        W  801  29.120  24.214  13.924
99937W        W  802  28.528  25.012  14.535
99938W        W  803  26.267  25.468  13.013
99939W        W  804  29.126  24.090  11.887
99940W        W  805  27.656  23.357  12.400
99941W        W  806  27.423  21.969  12.290
99942W        W  807  26.482  24.953  12.127
99943W        W  808  26.981  22.694  13.352
99944W        W  809  26.681  22.063  12.821
99945W        W  810  25.744  24.885  11.369
99946W        W  811  27.560  24.249  12.087
99947W        W  812  26.435  25.044  13.966
99948W        W  813  25.912  23.867  11.662
99949W        W  814  25.797  22.410  12.661
99950W        W  815  27.345  24.375  12.718
99951W        W  816  25.597  22.229  11.738
99952W        W  817  28.261  23.435  13.665
99953W        W  818  28.138  22.821  11.237
99954W        W  819  28.655  24.493  12.885
99955W        W  820  27.316  24.977  12.716
99956W        W  821  26.728  25.081  11.627
99957W        W  822  28.010  21.984  11.057
99958W        W  823  25.810  25.244  12.798
99959W        W  824  28.007  23.002  14.433
99960W        W  825  25.990  22.532  14.432
99961W        W  826  25.721  23.132  11.765
99962W        W  827  26.412  23.121  11.490
99963W        W  828  28.175  23.448  14.307
99964W        W  829  26.518  23.729  13.016
99965W        W  830  27.992  22.015  12.136
99966W        W  831  27.123  25.446  12.639
99967W        W  832  28.337  24.908  13.576
99968W        W  833  27.921  25.057  12.687
99969W        W  834  27.940  24.037  12.281
99970W        W  835  27.402  22.262  11.352
99971W        W  836  29.083  21.890  12.074
99972W        W  837  26.771  23.525  11.237
99973W        W  838  28.937  22.862  12.227
99974W        W  839  27.629  24.032  11.104
99975W        W  840  28.565  24.232  13.852
99976W        W  841  28.219  24.933  11.319
99977W        W  842  26.834  22.608  14.225
99978W        W  843  26.654  23.192  13.466
99979W        W  844  28.746  24.687  13.743
99980W        W  845  27.846  22.637  14.120
99981W        W  846  25.690  23.108  13.897
99982W        W  847  27.450  23.585  13.623
99983W        W  848  25.807  24.343  12.280
99984W        W  849  25.954  23.640  13.170
99985W        W  850  28.271  23.926  13.520
99986W        W  851  28.043  25.306  14.331
99987W        W  852  27.939  23.045  13.884
99988W        W  853  28.216  25.099  12.289
99989W        W  854  27.218  24.819  13.612
99990W        W  855  26.703  25.174  12.881
99991W        W  856  28.508  24.345  13.300
99992W        W  857  27.558  24.417  14.437
99993W        W  858  26.163  24.370  12.776
99994W        W  859  28.509  24.129  12.421
99995W        W  860  28.150  25.195  13.172
99996W        W  861  26.128  24.924  13.042
99997W        W  862  27.149  22.976  14.252
99998W        W  863  27.600  25.142  11.763
99999W        W  864  26.908  24.397  14.401
    0W        W  865  27.034  24.635  11.778
    1W        W  866  26.255  23.375  11.037
    2W        W  867  25.594  25.461  17.936
    3W        W  868  25.970  24.354  17.459
    4W        W  869  28.675  24.084  15.229
    5W        W  870  28.805  25.169  17.256
    6W        W  871  26.723  25.160  14.782
    7W        W  872  26.806  23.312  15.765
    8W        W  873  26.321  23.160  15.929
    9W        W  874  27.312  23.975  15.363
   10W        W  875  26.987  25.067  17.718
   11W        W  876  25.636  22.628  17.681
   12W        W  877  26.398  21.908  17.483
   13W        W  878  28.092  22.296  16.370
   14W        W  879  27.741  23.167  14.940
   15W        W  880  28.311  22.601  18.031
   16W        W  881  25.677  22.393  17.156
   17W        W  882  25.776  25.012  18.177
   18W        W  883  27.298  24.402  14.909
   19W        W  884  25.730  23.185  16.602
   20W        W  885  26.623  23.076  17.839
   21W        W  886  29.082  22.935  16.338
   22W        W  887  28.846  23.978  17.197
   23W        W  888  27.154  23.311  16.224
   24W        W  889  27.700  24.650  16.593
   25W        W  890  26.200  24.084  16.825
   26W        W  891  25.559  23.612  16.396
   27W        W  892  26.595  23.584  17.588
   28W        W  893  28.866  23.367  17.842
   29W        W  894  26.482  24.811  16.287
   30W        W  895  27.603  24.500  17.421
   31W        W  896  26.823  23.140  16.646
   32W        W  897  27.115  23.924  16.289
   33W        W  898  28.112  24.697  18.137
   34W        W  899  27.191  24.017  18.147
   35W        W  900  27.172  23.733  17.625
   36W        W  901  25.581  23.124  18.147
   37W        W  902  28.413  24.659  17.746
   38W        W  903  25.994  22.241  15.744
   39W        W  904  26.521  24.499  16.743
   40W        W  905  28.984  24.282  16.033
   41W        W  906  28.397  22.682  16.600
   42W        W  907  28.682  22.635  14.695
   43W        W  908  29.147  23.436  17.001
   44W        W  909  27.114  25.143  16.754
   45W        W  910  28.888  24.609  15.192
   46W        W  911  26.017  25.395  14.946
   47W        W  912  26.410  25.441  15.622
   48W        W  913  26.207  22.195  17.048
   49W        W  914  28.830  23.213  17.323
   50W        W  915  28.235  23.635  15.782
   51W        W  916  28.201  23.323  14.809
   52W        W  917  27.409  24.467  16.949
   53W        W  918  27.215  22.797  16.148
   54W        W  919  27.815  24.884  17.142
   55W        W  920  28.686  23.675  15.564
   56W        W  921  27.588  22.333  15.580
   57W        W  922  26.245  25.027  15.263
   58W        W  923  25.616  22.526  15.862
   59W        W  924  28.402  23.133  16.336
   60W        W  925  25.860  24.750  16.251
   61W        W  926  27.201  25.100  15.121
   62W        W  927  28.593  23.126  14.585
   63W        W  928  25.616  24.884  16.749
   64W        W  929  26.407  24.456  17.229
   65W        W  930  26.780  23.816  15.848
   66W        W  931  26.802  22.221  16.941
   67W        W  932  29.031  21.983  16.238
   68W        W  933  26.250  23.855  14.706
   69W        W  934  25.905  22.888  14.885
   70W        W  935  25.967  24.844  15.679
   71W        W  936  27.098  24.327  15.927
   72W        W  937  28.430  25.186  17.641
   73W        W  938  27.356  22.828  15.325
   74W        W  939  28.739  25.226  16.097
   75W        W  940  28.416  23.079  17.695
   76W        W  941  29.129  24.735  15.829
   77W        W  942  27.756  24.027  17.313
   78W        W  943  25.522  23.578  15.519
   79W        W  944  26.633  23.993  17.092
   80W        W  945  27.837  23.257  15.470
   81W        W  946  27.714  23.747  15.574
   82W        W  947  26.057  23.167  17.048
   83W        W  948  26.042  23.043  17.970
   84W        W  949  25.932  21.960  16.129
   85W        W  950  27.700  22.307  16.690
   86W        W  951  27.348  22.492  17.853
   87W        W  952  27.703  22.641  15.031
   88W        W  953  28.886  25.034  17.785
   89W        W  954  27.853  22.115  17.824
   90W        W  955  28.872  24.416  17.946
   91W        W  956  28.302  22.583  17.542
   92W        W  957  28.102  22.521  15.812
   93W        W  958  28.495  23.655  18.216
   94W        W  959  26.235  25.231  16.202
   95W        W  960  26.893  22.948  15.188
   96W        W  961  26.462  22.232  17.852
   97W        W  962  28.514  22.716  15.533
   98W        W  963  28.881  23.198  15.478
   99W        W  964  26.624  25.415  17.949
  100W        W  965  26.550  21.951  15.184
  101W        W  966  28.871  22.485  16.219
  102W        W  967  29.021  24.734  14.664
  103W        W  968  25.928  23.937  16.366
  104W        W  969  27.845  22.524  14.596
  105W        W  970  28.979  24.856  16.316
  106W        W  971  29.018  22.050  17.066
  107W        W  972  27.463  23.262  17.620
  108W        W  973  27.556  24.601  15.323
  109W        W  974  27.956  23.895  18.063
  110W        W  975  27.630  21.872  16.372
  111W        W  976  26.242  22.775  16.435
  112W        W  977  25.796  23.975  17.209
  113W        W  978  27.655  25.168  15.915
  114W        W  979  28.849  22.765  16.787
  115W        W  980  27.486  25.112  17.554
  116W        W  981  28.829  24.171  14.759
  117W        W  982  27.264  23.654  15.820
  118W        W  983  29.116  22.165  17.561
  119W        W  984  27.265  24.000  17.155
  120W        W  985  27.482  22.886  16.600
  121W        W  986  28.334  23.184  15.438
  122W        W  987  28.621  22.917  15.080
  123W        W  988  28.430  24.957  15.469
  124W        W  989  28.264  24.560  16.265
  125W        W  990  28.160  23.639  15.243
  126W        W  991  27.593  23.849  16.229
  127W        W  992  28.474  23.637  16.296
  128W        W  993  25.849  22.652  16.720
  129W        W  994  28.627  23.704  17.547
  130W        W  995  28.978  25.322  16.693
  131W        W  996  26.908  24.766  16.095
  132W        W  997  27.915  25.299  17.419
  133W        W  998  27.909  22.629  17.183
  134W        W  999  27.116  25.337  17.244
  135W        W 1000  28.813  22.291  15.710
  136W        W 1001  28.604  23.610  17.011
  137W        W 1002  25.587  22.931  17.049
  138W        W 1003  28.447  22.726  16.067
  139W        W 1004  28.858  22.877  17.844
  140W        W 1005  27.743  24.576  16.062
  141W        W 1006  26.999  25.167  15.675
  142W        W 1007  26.114  22.347  14.933
  143W        W 1008  27.218  22.001  16.743
  144W        W 1009  26.246  25.121  14.591
  145W        W 1010  26.620  23.587  15.342
  146W        W 1011  27.274  24.216  17.655
  147W        W 1012  27.104  22.574  15.645
  148W        W 1013  28.460  22.171  16.073
  149W        W 1014  28.180  25.453  16.401
  150W        W 1015  27.592  25.101  16.741
  151W        W 1016  26.988  24.138  16.702
  152W        W 1017  28.758  24.861  16.828
  153W        W 1018  26.452  22.364  15.597
  154W        W 1019  26.974  24.661  16.557
  155W        W 1020  26.457  22.592  14.622
  156W        W 1021  27.258  23.201  17.016
  157W        W 1022  28.106  22.067  16.886
  158W        W 1023  25.526  23.910  16.771
  159W        W 1024  27.230  23.728  14.929
  160W        W 1025  26.498  22.043  14.699
  161W        W 1026  27.236  23.124  15.750
  162W        W 1027  28.206  22.100  17.449
  163W        W 1028  26.794  24.112  17.558
  164W        W 1029  27.598  23.894  17.775
  165W        W 1030  28.215  23.924  17.668
  166W        W 1031  27.499  22.064  18.173
  167W        W 1032  26.721  22.680  16.566
  168W        W 1033  26.147  22.636  15.964
  169W        W 1034  25.933  25.348  15.640
  170W        W 1035  27.265  24.678  17.765
  171W        W 1036  26.300  24.163  15.124
  172W        W 1037  27.980  23.548  16.345
  173W        W 1038  28.260  23.347  16.744
  174W        W 1039  27.465  24.021  16.678
  175W        W 1040  27.935  24.395  14.810
  176W        W 1041  27.607  22.416  16.138
  177W        W 1042  29.086  22.694  15.406
  178W        W 1043  25.580  25.283  17.437
  179W        W 1044  25.997  24.509  16.969
  180W        W 1045  25.564  25.355  15.201
  181W        W 1046  27.463  22.625  17.007
  182W        W 1047  26.826  24.648  14.856
  183W        W 1048  28.731  25.030  15.042
  184W        W 1049  27.706  23.683  15.056
  185W        W 1050  26.549  22.874  15.573
  186W        W 1051  27.381  22.784  14.625
  187W        W 1052  27.965  24.349  17.803
  188W        W 1053  28.318  22.255  15.420
  189W        W 1054  25.648  22.103  14.868
  190W        W 1055  26.934  24.422  17.158
  191W        W 1056  26.733  24.338  16.250
  192W        W 1057  26.475  24.290  14.648
  193W        W 1058  25.716  24.531  15.416
  194W        W 1059  26.220  23.601  17.858
  195W        W 1060  26.924  22.161  18.044
  196W        W 1061  27.633  22.303  17.400
  197W        W 1062  26.828  22.071  15.681
  198W        W 1063  27.887  22.148  15.186
  199W        W 1064  25.832  22.080  16.763
  200W        W 1065  25.880  23.043  16.133
  201W        W 1066  28.569  22.151  16.539
  202W        W 1067  25.991  22.649  15.353
  203W        W 1068  28.562  22.337  16.969
  204W        W 1069  28.958  23.540  14.654
  205W        W 1070  26.250  22.298  16.473
  206W        W 1071  27.364  22.870  17.413
  207W        W 1072  25.512  22.560  14.891
  208W        W 1073  26.298  23.949  17.452
  209W        W 1074  27.656  23.347  16.631
  210W        W 1075  27.523  25.426  14.927
  211W        W 1076  25.669  23.933  14.624
  212W        W 1077  26.404  24.344  17.750
  213W        W 1078  25.925  23.511  17.381
  214W        W 1079  26.916  23.616  17.175
  215W        W 1080  28.684  21.975  17.437
  216W        W 1081  29.082  23.585  17.428
  217W        W 1082  29.070  23.785  15.114
  218W        W 1083  27.933  24.117  15.213
  219W        W 1084  28.407  25.417  14.908
  220W        W 1085  27.584  23.407  18.050
  221W        W 1086  25.914  24.374  18.090
  222W        W 1087  29.120  22.296  18.042
  223W        W 1088  28.838  23.224  16.663
  224W        W 1089  27.146  25.354  18.140
  225W        W 1090  27.001  21.983  14.867
  226W        W 1091  28.540  24.582  14.810
  227W        W 1092  26.309  22.675  17.696
  228W        W 1093  26.743  24.669  17.558
  229W        W 1094  28.869  22.660  17.356
  230W        W 1095  28.080  25.319  15.324
  231W        W 1096  28.319  23.938  16.691
  232W        W 1097  26.569  22.354  17.358
  233W        W 1098  27.038  23.423  18.115
  234W        W 1099  26.541  24.602  15.309
  235W        W 1100  28.296  24.100  15.573
  236W        W 1101  26.064  22.726  17.297
  237W        W 1102  27.393  24.788  15.761
  238W        W 1103  29.143  23.348  15.942
  239W        W 1104  27.365  21.981  17.661
  240W        W 1105  28.145  24.686  16.740
  241W        W 1106  28.448  25.030  16.448
  242W        W 1107  27.667  24.832  14.876
  243W        W 1108  25.677  24.724  17.718
  244W        W 1109  26.420  22.716  16.956
  245W        W 1110  26.390  22.064  16.066
  246W        W 1111  28.011  22.906  16.758
  247W        W 1112  26.809  24.077  14.958
  248W        W 1113  28.807  24.019  16.457
  249W        W 1114  26.134  24.777  17.880
  250W        W 1115  28.521  25.459  15.677
  251W        W 1116  26.620  22.479  16.122
  252W        W 1117  26.389  23.972  16.212
  253W        W 1118  26.702  25.383  16.962
  254W        W 1119  28.769  25.479  17.994
  255W        W 1120  27.928  23.667  16.927
  256W        W 1121  25.777  23.465  14.842
  257W        W 1122  28.911  25.123  15.539
  258W        W 1123  28.748  22.447  15.158
  259W        W 1124  26.887  21.966  17.561
  260W        W 1125  28.593  24.768  16.019
  261W        W 1126  28.622  23.324  15.924
  262W        W 1127  26.739  22.997  16.140
  263W        W 1128  26.984  23.259  17.464
  264W        W 1129  28.095  24.412  17.327
  265W        W 1130  26.745  22.866  17.439
  266W        W 1131  26.724  25.332  16.055
  267W        W 1132  26.041  25.291  17.689
  268W        W 1133  26.153  24.652  14.819
  269W        W 1134  28.670  24.410  15.629
  270W        W 1135  26.274  23.202  17.515
  271W        W 1136  29.047  23.132  14.996
  272W        W 1137  26.792  24.189  15.467
  273W        W 1138  27.891  23.571  17.548
  274W        W 1139  27.782  23.199  17.092
  275W        W 1140  26.342  23.571  17.121
  276W        W 1141  28.552  25.459  16.950
  277W        W 1142  28.343  22.093  17.944
  278W        W 1143  26.007  22.243  17.531
  279W        W 1144  26.346  23.266  16.584
  280W        W 1145  26.715  23.080  14.706
  281W        W 1146  25.518  24.839  17.251
  282W        W 1147  27.103  23.548  16.694
  283W        W 1148  26.926  22.573  14.799
  284W        W 1149  26.061  23.389  15.580
  285W        W 1150  25.832  25.241  17.017
  286W        W 1151  28.627  23.467  15.125
  287W        W 1152  28.722  22.383  17.811
  288W        W 1153  28.158  24.592  15.774
  289W        W 1154  25.756  23.516  17.951
  290W        W 1155  28.722  21.980  15.247
  291W        W 1156  28.242  24.455  15.258
  292W        W 1157  27.144  23.513  15.343
  293W        W 1158  28.331  22.317  14.866
  294W        W 1159  28.396  22.924  17.052
  295W        W 1160  26.105  23.517  16.259
  296W        W 1161  26.399  24.456  15.908
  297W        W 1162  28.162  23.076  15.873
  298W        W 1163  27.185  22.455  16.569
  299W        W 1164  29.147  24.366  17.080
  300W        W 1165  29.065  22.353  16.641
  301W        W 1166  25.604  25.183  16.017
  302W        W 1167  26.113  24.370  15.553
  303W        W 1168  26.028  21.987  18.106
  304W        W 1169  27.147  24.840  18.208
  305W        W 1170  28.902  23.808  15.998
  306W        W 1171  28.256  23.985  14.878
  307W        W 1172  27.551  25.506  17.090
  308W        W 1173  28.408  24.228  18.127
  309W        W 1174  27.223  21.938  15.407
  310W        W 1175  27.936  22.807  16.266
  311W        W 1176  25.622  24.394  16.598
  312W        W 1177  26.875  22.356  15.239
  313W        W 1178  26.679  23.840  18.088
  314W        W 1179  27.673  22.821  15.802
  315W        W 1180  27.878  24.231  16.924
  316W        W 1181  26.032  24.836  17.359
  317W        W 1182  26.623  24.819  18.082
  318W        W 1183  26.474  22.616  15.096
  319W        W 1184  27.991  22.758  15.421
  320W        W 1185  27.949  24.866  17.658
  321W        W 1186  26.634  23.458  16.257
  322W        W 1187  26.289  25.156  17.122
  323W        W 1188  29.034  25.273  14.723
  324W        W 1189  25.897  23.945  17.719
  325W        W 1190  27.892  24.207  16.407
  326W        W 1191  26.328  23.856  15.649
  327W        W 1192  26.699  24.863  17.044
  328W        W 1193  27.077  22.282  16.085
  329W        W 1194  25.688  24.266  15.015
  330W        W 1195  27.207  23.217  14.885
  331W        W 1196  25.853  23.766  15.904
  332W        W 1197  27.143  22.408  17.368
  333W        W 1198  28.815  22.117  14.795
  334W        W 1199  28.908  23.863  17.894
  335W        W 1200  27.562  25.120  18.046
  336W        W 1201  29.120  24.214  17.568
  337W        W 1202  28.528  25.012  18.179
  338W        W 1203  26.267  25.468  16.657
  339W        W 1204  29.126  24.090  15.531
  340W        W 1205  27.656  23.357  16.044
  341W        W 1206  27.423  21.969  15.934
  342W        W 1207  26.482  24.953  15.771
  343W        W 1208  26.981  22.694  16.996
  344W        W 1209  26.681  22.063  16.465
  345W        W 1210  25.744  24.885  15.013
  346W        W 1211  27.560  24.249  15.731
  347W        W 1212  26.435  25.044  17.610
  348W        W 1213  25.912  23.867  15.306
  349W        W 1214  25.797  22.410  16.305
  350W        W 1215  27.345  24.375  16.362
  351W        W 1216  25.597  22.229  15.382
  352W        W 1217  28.261  23.435  17.309
  353W        W 1218  28.138  22.821  14.881
  354W        W 1219  28.655  24.493  16.529
  355W        W 1220  27.316  24.977  16.360
  356W        W 1221  26.728  25.081  15.271
  357W        W 1222  28.010  21.984  14.701
  358W        W 1223  25.810  25.244  16.442
  359W        W 1224  28.007  23.002  18.077
  360W        W 1225  25.990  22.532  18.076
  361W        W 1226  25.721  23.132  15.409
  362W        W 1227  26.412  23.121  15.134
  363W        W 1228  28.175  23.448  17.951
  364W        W 1229  26.518  23.729  16.660
  365W        W 1230  27.992  22.015  15.780
  366W        W 1231  27.123  25.446  16.283
  367W        W 1232  28.337  24.908  17.220
  368W        W 1233  27.921  25.057  16.331
  369W        W 1234  27.940  24.037  15.925
  370W        W 1235  27.402  22.262  14.996
  371W        W 1236  29.083  21.890  15.718
  372W        W 1237  26.771  23.525  14.881
  373W        W 1238  28.937  22.862  15.871
  374W        W 1239  27.629  24.032  14.748
  375W        W 1240  28.565  24.232  17.496
  376W        W 1241  28.219  24.933  14.963
  377W        W 1242  26.834  22.608  17.869
  378W        W 1243  26.654  23.192  17.110
  379W        W 1244  28.746  24.687  17.387
  380W        W 1245  27.846  22.637  17.764
  381W        W 1246  25.690  23.108  17.541
  382W        W 1247  27.450  23.585  17.267
  383W        W 1248  25.807  24.343  15.924
  384W        W 1249  25.954  23.640  16.814
  385W        W 1250  28.271  23.926  17.164
  386W        W 1251  28.043  25.306  17.975
  387W        W 1252  27.939  23.045  17.528
  388W        W 1253  28.216  25.099  15.933
  389W        W 1254  27.218  24.819  17.256
  390W        W 1255  26.703  25.174  16.525
  391W        W 1256  28.508  24.345  16.944
  392W        W 1257  27.558  24.417  18.081
  393W        W 1258  26.163  24.370  16.420
  394W        W 1259  28.509  24.129  16.065
  395W        W 1260  28.150  25.195  16.816
  396W        W 1261  26.128  24.924  16.686
  397W        W 1262  27.149  22.976  17.896
  398W        W 1263  27.600  25.142  15.407
  399W        W 1264  26.908  24.397  18.045
  400W        W 1265  27.034  24.635  15.422
  401W        W 1266  26.255  23.375  14.681
  402W        W 1267  25.594  25.461  21.580
  403W        W 1268  25.970  24.354  21.103
  404W        W 1269  28.675  24.084  18.873
  405W        W 1270  28.805  25.169  20.900
  406W        W 1271  26.723  25.160  18.426
  407W        W 1272  26.806  23.312  19.409
  408W        W 1273  26.321  23.160  19.573
  409W        W 1274  27.312  23.975  19.007
  410W        W 1275  26.987  25.067  21.362
  411W        W 1276  25.636  22.628  21.325
  412W        W 1277  26.398  21.908  21.127
  413W        W 1278  28.092  22.296  20.014
  414W        W 1279  27.741  23.167  18.584
  415W        W 1280  28.311  22.601  21.675
  416W        W 1281  25.677  22.393  20.800
  417W        W 1282  25.776  25.012  21.821
  418W        W 1283  27.298  24.402  18.553
  419W        W 1284  25.730  23.185  20.246
  420W        W 1285  26.623  23.076  21.483
  421W        W 1286  29.082  22.935  19.982
  422W        W 1287  28.846  23.978  20.841
  423W        W 1288  27.154  23.311  19.868
  424W        W 1289  27.700  24.650  20.237
  425W        W 1290  26.200  24.084  20.469
  426W        W 1291  25.559  23.612  20.040
  427W        W 1292  26.595  23.584  21.232
  428W        W 1293  28.866  23.367  21.486
  429W        W 1294  26.482  24.811  19.931
  430W        W 1295  27.603  24.500  21.065
  431W        W 1296  26.823  23.140  20.290
  432W        W 1297  27.115  23.924  19.933
  433W        W 1298  28.112  24.697  21.781
  434W        W 1299  27.191  24.017  21.791
  435W        W 1300  27.172  23.733  21.269
  436W        W 1301  25.581  23.124  21.791
  437W        W 1302  28.413  24.659  21.390
  438W        W 1303  25.994  22.241  19.388
  439W        W 1304  26.521  24.499  20.387
  440W        W 1305  28.984  24.282  19.677
  441W        W 1306  28.397  22.682  20.244
  442W        W 1307  28.682  22.635  18.339
  443W        W 1308  29.147  23.436  20.645
  444W        W 1309  27.114  25.143  20.398
  445W        W 1310  28.888  24.609  18.836
  446W        W 1311  26.017  25.395  18.590
  447W        W 1312  26.410  25.441  19.266
  448W        W 1313  26.207  22.195  20.692
  449W        W 1314  28.830  23.213  20.967
  450W        W 1315  28.235  23.635  19.426
  451W        W 1316  28.201  23.323  18.453
  452W        W 1317  27.409  24.467  20.593
  453W        W 1318  27.215  22.797  19.792
  454W        W 1319  27.815  24.884  20.786
  455W        W 1320  28.686  23.675  19.208
  456W        W 1321  27.588  22.333  19.224
  457W        W 1322  26.245  25.027  18.907
  458W        W 1323  25.616  22.526  19.506
  459W        W 1324  28.402  23.133  19.980
  460W        W 1325  25.860  24.750  19.895
  461W        W 1326  27.201  25.100  18.765
  462W        W 1327  28.593  23.126  18.229
  463W        W 1328  25.616  24.884  20.393
  464W        W 1329  26.407  24.456  20.873
  465W        W 1330  26.780  23.816  19.492
  466W        W 1331  26.802  22.221  20.585
  467W        W 1332  29.031  21.983  19.882
  468W        W 1333  26.250  23.855  18.350
  469W        W 1334  25.905  22.888  18.529
  470W        W 1335  25.967  24.844  19.323
  471W        W 1336  27.098  24.327  19.571
  472W        W 1337  28.430  25.186  21.285
  473W        W 1338  27.356  22.828  18.969
  474W        W 1339  28.739  25.226  19.741
  475W        W 1340  28.416  23.079  21.339
  476W        W 1341  29.129  24.735  19.473
  477W        W 1342  27.756  24.027  20.957
  478W        W 1343  25.522  23.578  19.163
  479W        W 1344  26.633  23.993  20.736
  480W        W 1345  27.837  23.257  19.114
  481W        W 1346  27.714  23.747  19.218
  482W        W 1347  26.057  23.167  20.692
  483W        W 1348  26.042  23.043  21.614
  484W        W 1349  25.932  21.960  19.773
  485W        W 1350  27.700  22.307  20.334
  486W        W 1351  27.348  22.492  21.497
  487W        W 1352  27.703  22.641  18.675
  488W        W 1353  28.886  25.034  21.429
  489W        W 1354  27.853  22.115  21.468
  490W        W 1355  28.872  24.416  21.590
  491W        W 1356  28.302  22.583  21.186
  492W        W 1357  28.102  22.521  19.456
  493W        W 1358  28.495  23.655  21.860
  494W        W 1359  26.235  25.231  19.846
  495W        W 1360  26.893  22.948  18.832
  496W        W 1361  26.462  22.232  21.496
  497W        W 1362  28.514  22.716  19.177
  498W        W 1363  28.881  23.198  19.122
  499W        W 1364  26.624  25.415  21.593
  500W        W 1365  26.550  21.951  18.828
  501W        W 1366  28.871  22.485  19.863
  502W        W 1367  29.021  24.734  18.308
  503W        W 1368  25.928  23.937  20.010
  504W        W 1369  27.845  22.524  18.240
  505W        W 1370  28.979  24.856  19.960
  506W        W 1371  29.018  22.050  20.710
  507W        W 1372  27.463  23.262  21.264
  508W        W 1373  27.556  24.601  18.967
  509W        W 1374  27.956  23.895  21.707
  510W        W 1375  27.630  21.872  20.016
  511W        W 1376  26.242  22.775  20.079
  512W        W 1377  25.796  23.975  20.853
  513W        W 1378  27.655  25.168  19.559
  514W        W 1379  28.849  22.765  20.431
  515W        W 1380  27.486  25.112  21.198
  516W        W 1381  28.829  24.171  18.403
  517W        W 1382  27.264  23.654  19.464
  518W        W 1383  29.116  22.165  21.205
  519W        W 1384  27.265  24.000  20.799
  520W        W 1385  27.482  22.886  20.244
  521W        W 1386  28.334  23.184  19.082
  522W        W 1387  28.621  22.917  18.724
  523W        W 1388  28.430  24.957  19.113
  524W        W 1389  28.264  24.560  19.909
  525W        W 1390  28.160  23.639  18.887
  526W        W 1391  27.593  23.849  19.873
  527W        W 1392  28.474  23.637  19.940
  528W        W 1393  25.849  22.652  20.364
  529W        W 1394  28.627  23.704  21.191
  530W        W 1395  28.978  25.322  20.337
  531W        W 1396  26.908  24.766  19.739
  532W        W 1397  27.915  25.299  21.063
  533W        W 1398  27.909  22.629  20.827
  534W        W 1399  27.116  25.337  20.888
  535W        W 1400  28.813  22.291  19.354
  536W        W 1401  28.604  23.610  20.655
  537W        W 1402  25.587  22.931  20.693
  538W        W 1403  28.447  22.726  19.711
  539W        W 1404  27.743  24.576  19.706
  540W        W 1405  26.999  25.167  19.319
  541W        W 1406  26.114  22.347  18.577
  542W        W 1407  27.218  22.001  20.387
  543W        W 1408  26.246  25.121  18.235
  544W        W 1409  26.620  23.587  18.986
  545W        W 1410  27.274  24.216  21.299
  546W        W 1411  27.104  22.574  19.289
  547W        W 1412  28.460  22.171  19.717
  548W        W 1413  28.180  25.453  20.045
  549W        W 1414  27.592  25.101  20.385
  550W        W 1415  26.988  24.138  20.346
  551W        W 1416  28.758  24.861  20.472
  552W        W 1417  26.452  22.364  19.241
  553W        W 1418  26.974  24.661  20.201
  554W        W 1419  26.457  22.592  18.266
  555W        W 1420  27.258  23.201  20.660
  556W        W 1421  28.106  22.067  20.530
  557W        W 1422  25.526  23.910  20.415
  558W        W 1423  27.230  23.728  18.573
  559W        W 1424  26.498  22.043  18.343
  560W        W 1425  27.236  23.124  19.394
  561W        W 1426  28.206  22.100  21.093
  562W        W 1427  26.794  24.112  21.202
  563W        W 1428  27.598  23.894  21.419
  564W        W 1429  28.215  23.924  21.312
  565W        W 1430  27.499  22.064  21.817
  566W        W 1431  26.721  22.680  20.210
  567W        W 1432  26.147  22.636  19.608
  568W        W 1433  25.933  25.348  19.284
  569W        W 1434  27.265  24.678  21.409
  570W        W 1435  26.300  24.163  18.768
  571W        W 1436  27.980  23.548  19.989
  572W        W 1437  28.260  23.347  20.388
  573W        W 1438  27.465  24.021  20.322
  574W        W 1439  27.935  24.395  18.454
  575W        W 1440  27.607  22.416  19.782
  576W        W 1441  29.086  22.694  19.050
  577W        W 1442  25.580  25.283  21.081
  578W        W 1443  25.997  24.509  20.613
  579W        W 1444  25.564  25.355  18.845
  580W        W 1445  27.463  22.625  20.651
  581W        W 1446  26.826  24.648  18.500
  582W        W 1447  28.731  25.030  18.686
  583W        W 1448  27.706  23.683  18.700
  584W        W 1449  26.549  22.874  19.217
  585W        W 1450  27.381  22.784  18.269
  586W        W 1451  27.965  24.349  21.447
  587W        W 1452  28.318  22.255  19.064
  588W        W 1453  25.648  22.103  18.512
  589W        W 1454  26.934  24.422  20.802
  590W        W 1455  26.733  24.338  19.894
  591W        W 1456  26.475  24.290  18.292
  592W        W 1457  25.716  24.531  19.060
  593W        W 1458  26.220  23.601  21.502
  594W        W 1459  26.924  22.161  21.688
  595W        W 1460  27.633  22.303  21.044
  596W        W 1461  26.828  22.071  19.325
  597W        W 1462  27.887  22.148  18.830
  598W        W 1463  25.832  22.080  20.407
  599W        W 1464  25.880  23.043  19.777
  600W        W 1465  28.569  22.151  20.183
  601W        W 1466  25.991  22.649  18.997
  602W        W 1467  28.562  22.337  20.613
  603W        W 1468  28.958  23.540  18.298
  604W        W 1469  26.250  22.298  20.117
  605W        W 1470  27.364  22.870  21.057
  606W        W 1471  25.512  22.560  18.535
  607W        W 1472  26.298  23.949  21.096
  608W        W 1473  27.656  23.347  20.275
  609W        W 1474  27.523  25.426  18.571
  610W        W 1475  25.669  23.933  18.268
  611W        W 1476  26.404  24.344  21.394
  612W        W 1477  25.925  23.511  21.025
  613W        W 1478  26.916  23.616  20.819
  614W        W 1479  28.684  21.975  21.081
  615W        W 1480  29.082  23.585  21.072
  616W        W 1481  29.070  23.785  18.758
  617W        W 1482  27.933  24.117  18.857
  618W        W 1483  28.407  25.417  18.552
  619W        W 1484  27.584  23.407  21.694
  620W        W 1485  25.914  24.374  21.734
  621W        W 1486  29.120  22.296  21.686
  622W        W 1487  28.838  23.224  20.307
  623W        W 1488  27.146  25.354  21.784
  624W        W 1489  27.001  21.983  18.511
  625W        W 1490  28.540  24.582  18.454
  626W        W 1491  26.309  22.675  21.340
  627W        W 1492  26.743  24.669  21.202
  628W        W 1493  28.869  22.660  21.000
  629W        W 1494  28.080  25.319  18.968
  630W        W 1495  28.319  23.938  20.335
  631W        W 1496  26.569  22.354  21.002
  632W        W 1497  27.038  23.423  21.759
  633W        W 1498  26.541  24.602  18.953
  634W        W 1499  28.296  24.100  19.217
  635W        W 1500  26.064  22.726  20.941
  636W        W 1501  27.393  24.788  19.405
  637W        W 1502  29.143  23.348  19.586
  638W        W 1503  27.365  21.981  21.305
  639W        W 1504  28.145  24.686  20.384
  640W        W 1505  28.448  25.030  20.092
  641W        W 1506  27.667  24.832  18.520
  642W        W 1507  25.677  24.724  21.362
  643W        W 1508  26.420  22.716  20.600
  644W        W 1509  26.390  22.064  19.710
  645W        W 1510  28.011  22.906  20.402
  646W        W 1511  26.809  24.077  18.602
  647W        W 1512  28.807  24.019  20.101
  648W        W 1513  26.134  24.777  21.524
  649W        W 1514  28.521  25.459  19.321
  650W        W 1515  26.620  22.479  19.766
  651W        W 1516  26.389  23.972  19.856
  652W        W 1517  26.702  25.383  20.606
  653W        W 1518  28.769  25.479  21.638
  654W        W 1519  27.928  23.667  20.571
  655W        W 1520  25.777  23.465  18.486
  656W        W 1521  28.911  25.123  19.183
  657W        W 1522  28.748  22.447  18.802
  658W        W 1523  26.887  21.966  21.205
  659W        W 1524  28.593  24.768  19.663
  660W        W 1525  28.622  23.324  19.568
  661W        W 1526  26.739  22.997  19.784
  662W        W 1527  26.984  23.259  21.108
  663W        W 1528  28.095  24.412  20.971
  664W        W 1529  26.745  22.866  21.083
  665W        W 1530  26.724  25.332  19.699
  666W        W 1531  26.041  25.291  21.333
  667W        W 1532  26.153  24.652  18.463
  668W        W 1533  28.670  24.410  19.273
  669W        W 1534  26.274  23.202  21.159
  670W        W 1535  29.047  23.132  18.640
  671W        W 1536  26.792  24.189  19.111
  672W        W 1537  27.891  23.571  21.192
  673W        W 1538  27.782  23.199  20.736
  674W        W 1539  26.342  23.571  20.765
  675W        W 1540  28.552  25.459  20.594
  676W        W 1541  28.343  22.093  21.588
  677W        W 1542  26.007  22.243  21.175
  678W        W 1543  26.346  23.266  20.228
  679W        W 1544  26.715  23.080  18.350
  680W        W 1545  25.518  24.839  20.895
  681W        W 1546  27.103  23.548  20.338
  682W        W 1547  26.926  22.573  18.443
  683W        W 1548  26.061  23.389  19.224
  684W        W 1549  25.832  25.241  20.661
  685W        W 1550  28.627  23.467  18.769
  686W        W 1551  28.722  22.383  21.455
  687W        W 1552  28.158  24.592  19.418
  688W        W 1553  25.756  23.516  21.595
  689W        W 1554  28.722  21.980  18.891
  690W        W 1555  28.242  24.455  18.902
  691W        W 1556  27.144  23.513  18.987
  692W        W 1557  28.331  22.317  18.510
  693W        W 1558  28.396  22.924  20.696
  694W        W 1559  26.105  23.517  19.903
  695W        W 1560  26.399  24.456  19.552
  696W        W 1561  28.162  23.076  19.517
  697W        W 1562  27.185  22.455  20.213
  698W        W 1563  29.147  24.366  20.724
  699W        W 1564  29.065  22.353  20.285
  700W        W 1565  25.604  25.183  19.661
  701W        W 1566  26.113  24.370  19.197
  702W        W 1567  26.028  21.987  21.750
  703W        W 1568  27.147  24.840  21.852
  704W        W 1569  28.902  23.808  19.642
  705W        W 1570  28.256  23.985  18.522
  706W        W 1571  27.551  25.506  20.734
  707W        W 1572  28.408  24.228  21.771
  708W        W 1573  27.223  21.938  19.051
  709W        W 1574  27.936  22.807  19.910
  710W        W 1575  25.622  24.394  20.242
  711W        W 1576  26.875  22.356  18.883
  712W        W 1577  26.679  23.840  21.732
  713W        W 1578  27.673  22.821  19.446
  714W        W 1579  27.878  24.231  20.568
  715W        W 1580  26.032  24.836  21.003
  716W        W 1581  26.623  24.819  21.726
  717W        W 1582  26.474  22.616  18.740
  718W        W 1583  27.991  22.758  19.065
  719W        W 1584  27.949  24.866  21.302
  720W        W 1585  26.634  23.458  19.901
  721W        W 1586  26.289  25.156  20.766
  722W        W 1587  29.034  25.273  18.367
  723W        W 1588  25.897  23.945  21.363
  724W        W 1589  27.892  24.207  20.051
  725W        W 1590  26.328  23.856  19.293
  726W        W 1591  26.699  24.863  20.688
  727W        W 1592  27.077  22.282  19.729
  728W        W 1593  25.688  24.266  18.659
  729W        W 1594  27.207  23.217  18.529
  730W        W 1595  25.853  23.766  19.548
  731W        W 1596  27.143  22.408  21.012
  732W        W 1597  28.815  22.117  18.439
  733W        W 1598  28.908  23.863  21.538
  734W        W 1599  27.562  25.120  21.690
  735W        W 1600  29.120  24.214  21.212
  736W        W 1601  28.528  25.012  21.823
  737W        W 1602  26.267  25.468  20.301
  738W        W 1603  29.126  24.090  19.175
  739W        W 1604  27.656  23.357  19.688
  740W        W 1605  27.423  21.969  19.578
  741W        W 1606  26.482  24.953  19.415
  742W        W 1607  26.981  22.694  20.640
  743W        W 1608  26.681  22.063  20.109
  744W        W 1609  25.744  24.885  18.657
  745W        W 1610  27.560  24.249  19.375
  746W        W 1611  26.435  25.044  21.254
  747W        W 1612  25.912  23.867  18.950
  748W        W 1613  25.797  22.410  19.949
  749W        W 1614  27.345  24.375  20.006
  750W        W 1615  25.597  22.229  19.026
  751W        W 1616  28.261  23.435  20.953
  752W        W 1617  28.138  22.821  18.525
  753W        W 1618  28.655  24.493  20.173
  754W        W 1619  27.316  24.977  20.004
  755W        W 1620  26.728  25.081  18.915
  756W        W 1621  28.010  21.984  18.345
  757W        W 1622  25.810  25.244  20.086
  758W        W 1623  28.007  23.002  21.721
  759W        W 1624  25.990  22.532  21.720
  760W        W 1625  25.721  23.132  19.053
  761W        W 1626  26.412  23.121  18.778
  762W        W 1627  28.175  23.448  21.595
  763W        W 1628  26.518  23.729  20.304
  764W        W 1629  27.992  22.015  19.424
  765W        W 1630  27.123  25.446  19.927
  766W        W 1631  28.337  24.908  20.864
  767W        W 1632  27.921  25.057  19.975
  768W        W 1633  27.940  24.037  19.569
  769W        W 1634  27.402  22.262  18.640
  770W        W 1635  29.083  21.890  19.362
  771W        W 1636  26.771  23.525  18.525
  772W        W 1637  28.937  22.862  19.515
  773W        W 1638  27.629  24.032  18.392
  774W        W 1639  28.565  24.232  21.140
  775W        W 1640  28.219  24.933  18.607
  776W        W 1641  26.834  22.608  21.513
  777W        W 1642  26.654  23.192  20.754
  778W        W 1643  28.746  24.687  21.031
  779W        W 1644  27.846  22.637  21.408
  780W        W 1645  25.690  23.108  21.185
  781W        W 1646  27.450  23.585  20.911
  782W        W 1647  25.807  24.343  19.568
  783W        W 1648  25.954  23.640  20.458
  784W        W 1649  28.271  23.926  20.808
  785W        W 1650  28.043  25.306  21.619
  786W        W 1651  27.939  23.045  21.172
  787W        W 1652  28.216  25.099  19.577
  788W        W 1653  27.218  24.819  20.900
  789W        W 1654  26.703  25.174  20.169
  790W        W 1655  28.508  24.345  20.588
  791W        W 1656  27.558  24.417  21.725
  792W        W 1657  26.163  24.370  20.064
  793W        W 1658  28.509  24.129  19.709
  794W        W 1659  28.150  25.195  20.460
  795W        W 1660  26.128  24.924  20.330
  796W        W 1661  27.149  22.976  21.540
  797W        W 1662  27.600  25.142  19.051
  798W        W 1663  26.908  24.397  21.689
  799W        W 1664  27.034  24.635  19.066
  800W        W 1665  26.255  23.375  18.325
  801W        W 1666  25.594  25.461  25.225
  802W        W 1667  25.970  24.354  24.748
  803W        W 1668  28.675  24.084  22.518
  804W        W 1669  28.805  25.169  24.545
  805W        W 1670  26.723  25.160  22.071
  806W        W 1671  26.806  23.312  23.054
  807W        W 1672  26.321  23.160  23.218
  808W        W 1673  27.312  23.975  22.652
  809W        W 1674  26.987  25.067  25.007
  810W        W 1675  25.636  22.628  24.970
  811W        W 1676  26.398  21.908  24.772
  812W        W 1677  28.092  22.296  23.659
  813W        W 1678  27.741  23.167  22.229
  814W        W 1679  28.311  22.601  25.320
  815W        W 1680  25.677  22.393  24.445
  816W        W 1681  25.776  25.012  25.466
  817W        W 1682  27.298  24.402  22.198
  818W        W 1683  25.730  23.185  23.891
  819W        W 1684  26.623  23.076  25.128
  820W        W 1685  29.082  22.935  23.627
  821W        W 1686  28.846  23.978  24.486
  822W        W 1687  27.154  23.311  23.513
  823W        W 1688  27.700  24.650  23.882
  824W        W 1689  26.200  24.084  24.114
  825W        W 1690  25.559  23.612  23.685
  826W        W 1691  26.595  23.584  24.877
  827W        W 1692  28.866  23.367  25.131
  828W        W 1693  26.482  24.811  23.576
  829W        W 1694  27.603  24.500  24.710
  830W        W 1695  26.823  23.140  23.935
  831W        W 1696  27.115  23.924  23.578
  832W        W 1697  28.112  24.697  25.426
  833W        W 1698  27.191  24.017  25.436
  834W        W 1699  27.172  23.733  24.914
  835W        W 1700  25.581  23.124  25.436
  836W        W 1701  28.413  24.659  25.035
  837W        W 1702  25.994  22.241  23.033
  838W        W 1703  26.521  24.499  24.032
  839W        W 1704  28.984  24.282  23.322
  840W        W 1705  28.397  22.682  23.889
  841W        W 1706  28.682  22.635  21.984
  842W        W 1707  29.147  23.436  24.290
  843W        W 1708  27.114  25.143  24.043
  844W        W 1709  28.888  24.609  22.481
  845W        W 1710  26.017  25.395  22.235
  846W        W 1711  26.410  25.441  22.911
  847W        W 1712  26.207  22.195  24.337
  848W        W 1713  28.830  23.213  24.612
  849W        W 1714  28.235  23.635  23.071
  850W        W 1715  28.201  23.323  22.098
  851W        W 1716  27.409  24.467  24.238
  852W        W 1717  27.215  22.797  23.437
  853W        W 1718  27.815  24.884  24.431
  854W        W 1719  28.686  23.675  22.853
  855W        W 1720  27.588  22.333  22.869
  856W        W 1721  26.245  25.027  22.552
  857W        W 1722  25.616  22.526  23.151
  858W        W 1723  28.402  23.133  23.625
  859W        W 1724  25.860  24.750  23.540
  860W        W 1725  27.201  25.100  22.410
  861W        W 1726  28.593  23.126  21.874
  862W        W 1727  25.616  24.884  24.038
  863W        W 1728  26.407  24.456  24.518
  864W        W 1729  26.780  23.816  23.137
  865W        W 1730  26.802  22.221  24.230
  866W        W 1731  29.031  21.983  23.527
  867W        W 1732  26.250  23.855  21.995
  868W        W 1733  25.905  22.888  22.174
  869W        W 1734  25.967  24.844  22.968
  870W        W 1735  27.098  24.327  23.216
  871W        W 1736  28.430  25.186  24.930
  872W        W 1737  27.356  22.828  22.614
  873W        W 1738  28.739  25.226  23.386
  874W        W 1739  28.416  23.079  24.984
  875W        W 1740  29.129  24.735  23.118
  876W        W 1741  27.756  24.027  24.602
  877W        W 1742  25.522  23.578  22.808
  878W        W 1743  26.633  23.993  24.381
  879W        W 1744  27.837  23.257  22.759
  880W        W 1745  27.714  23.747  22.863
  881W        W 1746  26.057  23.167  24.337
  882W        W 1747  26.042  23.043  25.259
  883W        W 1748  25.932  21.960  23.418
  884W        W 1749  27.700  22.307  23.979
  885W        W 1750  27.348  22.492  25.142
  886W        W 1751  27.703  22.641  22.320
  887W        W 1752  28.886  25.034  25.074
  888W        W 1753  27.853  22.115  25.113
  889W        W 1754  28.872  24.416  25.235
  890W        W 1755  28.302  22.583  24.831
  891W        W 1756  28.102  22.521  23.101
  892W        W 1757  28.495  23.655  25.505
  893W        W 1758  26.235  25.231  23.491
  894W        W 1759  26.893  22.948  22.477
  895W        W 1760  26.462  22.232  25.141
  896W        W 1761  28.514  22.716  22.822
  897W        W 1762  28.881  23.198  22.767
  898W        W 1763  26.624  25.415  25.238
  899W        W 1764  26.550  21.951  22.473
  900W        W 1765  28.871  22.485  23.508
  901W        W 1766  29.021  24.734  21.953
  902W        W 1767  25.928  23.937  23.655
  903W        W 1768  27.845  22.524  21.885
  904W        W 1769  28.979  24.856  23.605
  905W        W 1770  29.018  22.050  24.355
  906W        W 1771  27.463  23.262  24.909
  907W        W 1772  27.556  24.601  22.612
  908W        W 1773  27.956  23.895  25.352
  909W        W 1774  27.630  21.872  23.661
  910W        W 1775  26.242  22.775  23.724
  911W        W 1776  25.796  23.975  24.498
  912W        W 1777  27.655  25.168  23.204
  913W        W 1778  28.849  22.765  24.076
  914W        W 1779  27.486  25.112  24.843
  915W        W 1780  28.829  24.171  22.048
  916W        W 1781  27.264  23.654  23.109
  917W        W 1782  29.116  22.165  24.850
  918W        W 1783  27.265  24.000  24.444
  919W        W 1784  27.482  22.886  23.889
  920W        W 1785  28.334  23.184  22.727
  921W        W 1786  28.621  22.917  22.369
  922W        W 1787  28.430  24.957  22.758
  923W        W 1788  28.264  24.560  23.554
  924W        W 1789  28.160  23.639  22.532
  925W        W 1790  27.593  23.849  23.518
  926W        W 1791  28.474  23.637  23.585
  927W        W 1792  25.849  22.652  24.009
  928W        W 1793  28.627  23.704  24.836
  929W        W 1794  28.978  25.322  23.982
  930W        W 1795  26.908  24.766  23.384
  931W        W 1796  27.915  25.299  24.708
  932W        W 1797  27.909  22.629  24.472
  933W        W 1798  27.116  25.337  24.533
  934W        W 1799  28.813  22.291  22.999
  935W        W 1800  28.604  23.610  24.300
  936W        W 1801  25.587  22.931  24.338
  937W        W 1802  28.447  22.726  23.356
  938W        W 1803  28.858  22.877  25.133
  939W        W 1804  27.743  24.576  23.351
  940W        W 1805  26.999  25.167  22.964
  941W        W 1806  26.114  22.347  22.222
  942W        W 1807  27.218  22.001  24.032
  943W        W 1808  26.246  25.121  21.880
  944W        W 1809  26.620  23.587  22.631
  945W        W 1810  27.274  24.216  24.944
  946W        W 1811  27.104  22.574  22.934
  947W        W 1812  28.460  22.171  23.362
  948W        W 1813  28.180  25.453  23.690
  949W        W 1814  27.592  25.101  24.030
  950W        W 1815  26.988  24.138  23.991
  951W        W 1816  28.758  24.861  24.117
  952W        W 1817  26.452  22.364  22.886
  953W        W 1818  26.974  24.661  23.846
  954W        W 1819  26.457  22.592  21.911
  955W        W 1820  27.258  23.201  24.305
  956W        W 1821  28.106  22.067  24.175
  957W        W 1822  25.526  23.910  24.060
  958W        W 1823  27.230  23.728  22.218
  959W        W 1824  26.498  22.043  21.988
  960W        W 1825  27.236  23.124  23.039
  961W        W 1826  28.206  22.100  24.738
  962W        W 1827  26.794  24.112  24.847
  963W        W 1828  27.598  23.894  25.064
  964W        W 1829  28.215  23.924  24.957
  965W        W 1830  27.499  22.064  25.462
  966W        W 1831  26.721  22.680  23.855
  967W        W 1832  26.147  22.636  23.253
  968W        W 1833  25.933  25.348  22.929
  969W        W 1834  27.265  24.678  25.054
  970W        W 1835  26.300  24.163  22.413
  971W        W 1836  27.980  23.548  23.634
  972W        W 1837  28.260  23.347  24.033
  973W        W 1838  27.465  24.021  23.967
  974W        W 1839  27.935  24.395  22.099
  975W        W 1840  27.607  22.416  23.427
  976W        W 1841  29.086  22.694  22.695
  977W        W 1842  25.580  25.283  24.726
  978W        W 1843  25.997  24.509  24.258
  979W        W 1844  25.564  25.355  22.490
  980W        W 1845  27.463  22.625  24.296
  981W        W 1846  26.826  24.648  22.145
  982W        W 1847  28.731  25.030  22.331
  983W        W 1848  27.706  23.683  22.345
  984W        W 1849  26.549  22.874  22.862
  985W        W 1850  27.381  22.784  21.914
  986W        W 1851  27.965  24.349  25.092
  987W        W 1852  28.318  22.255  22.709
  988W        W 1853  25.648  22.103  22.157
  989W        W 1854  26.934  24.422  24.447
  990W        W 1855  26.733  24.338  23.539
  991W        W 1856  26.475  24.290  21.937
  992W        W 1857  25.716  24.531  22.705
  993W        W 1858  26.220  23.601  25.147
  994W        W 1859  26.924  22.161  25.333
  995W        W 1860  27.633  22.303  24.689
  996W        W 1861  26.828  22.071  22.970
  997W        W 1862  27.887  22.148  22.475
  998W        W 1863  25.832  22.080  24.052
  999W        W 1864  25.880  23.043  23.422
 1000W        W 1865  28.569  22.151  23.828
 1001W        W 1866  25.991  22.649  22.642
 1002W        W 1867  28.562  22.337  24.258
 1003W        W 1868  28.958  23.540  21.943
 1004W        W 1869  26.250  22.298  23.762
 1005W        W 1870  27.364  22.870  24.702
 1006W        W 1871  25.512  22.560  22.180
 1007W        W 1872  26.298  23.949  24.741
 1008W        W 1873  27.656  23.347  23.920
 1009W        W 1874  27.523  25.426  22.216
 1010W        W 1875  25.669  23.933  21.913
 1011W        W 1876  26.404  24.344  25.039
 1012W        W 1877  25.925  23.511  24.670
 1013W        W 1878  26.916  23.616  24.464
 1014W        W 1879  28.684  21.975  24.726
 1015W        W 1880  29.082  23.585  24.717
 1016W        W 1881  29.070  23.785  22.403
 1017W        W 1882  27.933  24.117  22.502
 1018W        W 1883  28.407  25.417  22.197
 1019W        W 1884  27.584  23.407  25.339
 1020W        W 1885  25.914  24.374  25.379
 1021W        W 1886  29.120  22.296  25.331
 1022W        W 1887  28.838  23.224  23.952
 1023W        W 1888  27.146  25.354  25.429
 1024W        W 1889  27.001  21.983  22.156
 1025W        W 1890  28.540  24.582  22.099
 1026W        W 1891  26.309  22.675  24.985
 1027W        W 1892  26.743  24.669  24.847
 1028W        W 1893  28.869  22.660  24.645
 1029W        W 1894  28.080  25.319  22.613
 1030W        W 1895  28.319  23.938  23.980
 1031W        W 1896  26.569  22.354  24.647
 1032W        W 1897  27.038  23.423  25.404
 1033W        W 1898  26.541  24.602  22.598
 1034W        W 1899  28.296  24.100  22.862
 1035W        W 1900  26.064  22.726  24.586
 1036W        W 1901  27.393  24.788  23.050
 1037W        W 1902  29.143  23.348  23.231
 1038W        W 1903  27.365  21.981  24.950
 1039W        W 1904  28.145  24.686  24.029
 1040W        W 1905  28.448  25.030  23.737
 1041W        W 1906  27.667  24.832  22.165
 1042W        W 1907  25.677  24.724  25.007
 1043W        W 1908  26.420  22.716  24.245
 1044W        W 1909  26.390  22.064  23.355
 1045W        W 1910  28.011  22.906  24.047
 1046W        W 1911  26.809  24.077  22.247
 1047W        W 1912  28.807  24.019  23.746
 1048W        W 1913  26.134  24.777  25.169
 1049W        W 1914  28.521  25.459  22.966
 1050W        W 1915  26.620  22.479  23.411
 1051W        W 1916  26.389  23.972  23.501
 1052W        W 1917  26.702  25.383  24.251
 1053W        W 1918  28.769  25.479  25.283
 1054W        W 1919  27.928  23.667  24.216
 1055W        W 1920  25.777  23.465  22.131
 1056W        W 1921  28.911  25.123  22.828
 1057W        W 1922  28.748  22.447  22.447
 1058W        W 1923  26.887  21.966  24.850
 1059W        W 1924  28.593  24.768  23.308
 1060W        W 1925  28.622  23.324  23.213
 1061W        W 1926  26.739  22.997  23.429
 1062W        W 1927  26.984  23.259  24.753
 1063W        W 1928  28.095  24.412  24.616
 1064W        W 1929  26.745  22.866  24.728
 1065W        W 1930  26.724  25.332  23.344
 1066W        W 1931  26.041  25.291  24.978
 1067W        W 1932  26.153  24.652  22.108
 1068W        W 1933  28.670  24.410  22.918
 1069W        W 1934  26.274  23.202  24.804
 1070W        W 1935  29.047  23.132  22.285
 1071W        W 1936  26.792  24.189  22.756
 1072W        W 1937  27.891  23.571  24.837
 1073W        W 1938  27.782  23.199  24.381
 1074W        W 1939  26.342  23.571  24.410
 1075W        W 1940  28.552  25.459  24.239
 1076W        W 1941  28.343  22.093  25.233
 1077W        W 1942  26.007  22.243  24.820
 1078W        W 1943  26.346  23.266  23.873
 1079W        W 1944  26.715  23.080  21.995
 1080W        W 1945  25.518  24.839  24.540
 1081W        W 1946  27.103  23.548  23.983
 1082W        W 1947  26.926  22.573  22.088
 1083W        W 1948  26.061  23.389  22.869
 1084W        W 1949  25.832  25.241  24.306
 1085W        W 1950  28.627  23.467  22.414
 1086W        W 1951  28.722  22.383  25.100
 1087W        W 1952  28.158  24.592  23.063
 1088W        W 1953  25.756  23.516  25.240
 1089W        W 1954  28.722  21.980  22.536
 1090W        W 1955  28.242  24.455  22.547
 1091W        W 1956  27.144  23.513  22.632
 1092W        W 1957  28.331  22.317  22.155
 1093W        W 1958  28.396  22.924  24.341
 1094W        W 1959  26.105  23.517  23.548
 1095W        W 1960  26.399  24.456  23.197
 1096W        W 1961  28.162  23.076  23.162
 1097W        W 1962  27.185  22.455  23.858
 1098W        W 1963  29.147  24.366  24.369
 1099W        W 1964  29.065  22.353  23.930
 1100W        W 1965  25.604  25.183  23.306
 1101W        W 1966  26.113  24.370  22.842
 1102W        W 1967  26.028  21.987  25.395
 1103W        W 1968  27.147  24.840  25.497
 1104W        W 1969  28.902  23.808  23.287
 1105W        W 1970  28.256  23.985  22.167
 1106W        W 1971  27.551  25.506  24.379
 1107W        W 1972  28.408  24.228  25.416
 1108W        W 1973  27.223  21.938  22.696
 1109W        W 1974  27.936  22.807  23.555
 1110W        W 1975  25.622  24.394  23.887
 1111W        W 1976  26.875  22.356  22.528
 1112W        W 1977  26.679  23.840  25.377
 1113W        W 1978  27.673  22.821  23.091
 1114W        W 1979  27.878  24.231  24.213
 1115W        W 1980  26.032  24.836  24.648
 1116W        W 1981  26.623  24.819  25.371
 1117W        W 1982  26.474  22.616  22.385
 1118W        W 1983  27.991  22.758  22.710
 1119W        W 1984  27.949  24.866  24.947
 1120W        W 1985  26.634  23.458  23.546
 1121W        W 1986  26.289  25.156  24.411
 1122W        W 1987  29.034  25.273  22.012
 1123W        W 1988  25.897  23.945  25.008
 1124W        W 1989  27.892  24.207  23.696
 1125W        W 1990  26.328  23.856  22.938
 1126W        W 1991  26.699  24.863  24.333
 1127W        W 1992  27.077  22.282  23.374
 1128W        W 1993  25.688  24.266  22.304
 1129W        W 1994  27.207  23.217  22.174
 1130W        W 1995  25.853  23.766  23.193
 1131W        W 1996  27.143  22.408  24.657
 1132W        W 1997  28.815  22.117  22.084
 1133W        W 1998  28.908  23.863  25.183
 1134W        W 1999  27.562  25.120  25.335
 1135W        W 2000  29.120  24.214  24.857
 1136W        W 2001  28.528  25.012  25.468
 1137W        W 2002  26.267  25.468  23.946
 1138W        W 2003  29.126  24.090  22.820
 1139W        W 2004  27.656  23.357  23.333
 1140W        W 2005  27.423  21.969  23.223
 1141W        W 2006  26.482  24.953  23.060
 1142W        W 2007  26.981  22.694  24.285
 1143W        W 2008  26.681  22.063  23.754
 1144W        W 2009  25.744  24.885  22.302
 1145W        W 2010  27.560  24.249  23.020
 1146W        W 2011  26.435  25.044  24.899
 1147W        W 2012  25.912  23.867  22.595
 1148W        W 2013  25.797  22.410  23.594
 1149W        W 2014  27.345  24.375  23.651
 1150W        W 2015  25.597  22.229  22.671
 1151W        W 2016  28.261  23.435  24.598
 1152W        W 2017  28.138  22.821  22.170
 1153W        W 2018  28.655  24.493  23.818
 1154W        W 2019  27.316  24.977  23.649
 1155W        W 2020  26.728  25.081  22.560
 1156W        W 2021  28.010  21.984  21.990
 1157W        W 2022  25.810  25.244  23.731
 1158W        W 2023  28.007  23.002  25.366
 1159W        W 2024  25.990  22.532  25.365
 1160W        W 2025  25.721  23.132  22.698
 1161W        W 2026  26.412  23.121  22.423
 1162W        W 2027  28.175  23.448  25.240
 1163W        W 2028  26.518  23.729  23.949
 1164W        W 2029  27.992  22.015  23.069
 1165W        W 2030  27.123  25.446  23.572
 1166W        W 2031  28.337  24.908  24.509
 1167W        W 2032  27.921  25.057  23.620
 1168W        W 2033  27.940  24.037  23.214
 1169W        W 2034  27.402  22.262  22.285
 1170W        W 2035  29.083  21.890  23.007
 1171W        W 2036  26.771  23.525  22.170
 1172W        W 2037  28.937  22.862  23.160
 1173W        W 2038  27.629  24.032  22.037
 1174W        W 2039  28.565  24.232  24.785
 1175W        W 2040  28.219  24.933  22.252
 1176W        W 2041  26.834  22.608  25.158
 1177W        W 2042  26.654  23.192  24.399
 1178W        W 2043  28.746  24.687  24.676
 1179W        W 2044  27.846  22.637  25.053
 1180W        W 2045  25.690  23.108  24.830
 1181W        W 2046  27.450  23.585  24.556
 1182W        W 2047  25.807  24.343  23.213
 1183W        W 2048  25.954  23.640  24.103
 1184W        W 2049  28.271  23.926  24.453
 1185W        W 2050  28.043  25.306  25.264
 1186W        W 2051  27.939  23.045  24.817
 1187W        W 2052  28.216  25.099  23.222
 1188W        W 2053  27.218  24.819  24.545
 1189W        W 2054  26.703  25.174  23.814
 1190W        W 2055  28.508  24.345  24.233
 1191W        W 2056  27.558  24.417  25.370
 1192W        W 2057  26.163  24.370  23.709
 1193W        W 2058  28.509  24.129  23.354
 1194W        W 2059  28.150  25.195  24.105
 1195W        W 2060  26.128  24.924  23.975
 1196W        W 2061  27.149  22.976  25.185
 1197W        W 2062  27.600  25.142  22.696
 1198W        W 2063  26.908  24.397  25.334
 1199W        W 2064  27.034  24.635  22.711
 1200W        W 2065  26.255  23.375  21.970
 1201W        W 2066  25.594  25.461  28.869
 1202W        W 2067  25.970  24.354  28.392
 1203W        W 2068  28.675  24.084  26.162
 1204W        W 2069  28.805  25.169  28.189
 1205W        W 2070  26.723  25.160  25.715
 1206W        W 2071  26.806  23.312  26.698
 1207W        W 2072  26.321  23.160  26.862
 1208W        W 2073  27.312  23.975  26.296
 1209W        W 2074  26.987  25.067  28.651
 1210W        W 2075  25.636  22.628  28.614
 1211W        W 2076  26.398  21.908  28.416
 1212W        W 2077  28.092  22.296  27.303
 1213W        W 2078  27.741  23.167  25.873
 1214W        W 2079  28.311  22.601  28.964
 1215W        W 2080  25.677  22.393  28.089
 1216W        W 2081  25.776  25.012  29.110
 1217W        W 2082  27.298  24.402  25.842
 1218W        W 2083  25.730  23.185  27.535
 1219W        W 2084  26.623  23.076  28.772
 1220W        W 2085  29.082  22.935  27.271
 1221W        W 2086  28.846  23.978  28.130
 1222W        W 2087  27.154  23.311  27.157
 1223W        W 2088  27.700  24.650  27.526
 1224W        W 2089  26.200  24.084  27.758
 1225W        W 2090  25.559  23.612  27.329
 1226W        W 2091  26.595  23.584  28.521
 1227W        W 2092  28.866  23.367  28.775
 1228W        W 2093  26.482  24.811  27.220
 1229W        W 2094  27.603  24.500  28.354
 1230W        W 2095  26.823  23.140  27.579
 1231W        W 2096  27.115  23.924  27.222
 1232W        W 2097  28.112  24.697  29.070
 1233W        W 2098  27.191  24.017  29.080
 1234W        W 2099  27.172  23.733  28.558
 1235W        W 2100  25.581  23.124  29.080
 1236W        W 2101  28.413  24.659  28.679
 1237W        W 2102  25.994  22.241  26.677
 1238W        W 2103  26.521  24.499  27.676
 1239W        W 2104  28.984  24.282  26.966
 1240W        W 2105  28.397  22.682  27.533
 1241W        W 2106  28.682  22.635  25.628
 1242W        W 2107  29.147  23.436  27.934
 1243W        W 2108  27.114  25.143  27.687
 1244W        W 2109  28.888  24.609  26.125
 1245W        W 2110  26.017  25.395  25.879
 1246W        W 2111  26.410  25.441  26.555
 1247W        W 2112  26.207  22.195  27.981
 1248W        W 2113  28.830  23.213  28.256
 1249W        W 2114  28.235  23.635  26.715
 1250W        W 2115  28.201  23.323  25.742
 1251W        W 2116  27.409  24.467  27.882
 1252W        W 2117  27.215  22.797  27.081
 1253W        W 2118  27.815  24.884  28.075
 1254W        W 2119  28.686  23.675  26.497
 1255W        W 2120  27.588  22.333  26.513
 1256W        W 2121  26.245  25.027  26.196
 1257W        W 2122  25.616  22.526  26.795
 1258W        W 2123  28.402  23.133  27.269
 1259W        W 2124  25.860  24.750  27.184
 1260W        W 2125  27.201  25.100  26.054
 1261W        W 2126  28.593  23.126  25.518
 1262W        W 2127  25.616  24.884  27.682
 1263W        W 2128  26.407  24.456  28.162
 1264W        W 2129  26.780  23.816  26.781
 1265W        W 2130  26.802  22.221  27.874
 1266W        W 2131  29.031  21.983  27.171
 1267W        W 2132  26.250  23.855  25.639
 1268W        W 2133  25.905  22.888  25.818
 1269W        W 2134  25.967  24.844  26.612
 1270W        W 2135  27.098  24.327  26.860
 1271W        W 2136  28.430  25.186  28.574
 1272W        W 2137  27.356  22.828  26.258
 1273W        W 2138  28.739  25.226  27.030
 1274W        W 2139  28.416  23.079  28.628
 1275W        W 2140  29.129  24.735  26.762
 1276W        W 2141  27.756  24.027  28.246
 1277W        W 2142  25.522  23.578  26.452
 1278W        W 2143  26.633  23.993  28.025
 1279W        W 2144  27.837  23.257  26.403
 1280W        W 2145  27.714  23.747  26.507
 1281W        W 2146  26.057  23.167  27.981
 1282W        W 2147  26.042  23.043  28.903
 1283W        W 2148  25.932  21.960  27.062
 1284W        W 2149  27.700  22.307  27.623
 1285W        W 2150  27.348  22.492  28.786
 1286W        W 2151  27.703  22.641  25.964
 1287W        W 2152  28.886  25.034  28.718
 1288W        W 2153  27.853  22.115  28.757
 1289W        W 2154  28.872  24.416  28.879
 1290W        W 2155  28.302  22.583  28.475
 1291W        W 2156  28.102  22.521  26.745
 1292W        W 2157  28.495  23.655  29.149
 1293W        W 2158  26.235  25.231  27.135
 1294W        W 2159  26.893  22.948  26.121
 1295W        W 2160  26.462  22.232  28.785
 1296W        W 2161  28.514  22.716  26.466
 1297W        W 2162  28.881  23.198  26.411
 1298W        W 2163  26.624  25.415  28.882
 1299W        W 2164  26.550  21.951  26.117
 1300W        W 2165  28.871  22.485  27.152
 1301W        W 2166  29.021  24.734  25.597
 1302W        W 2167  25.928  23.937  27.299
 1303W        W 2168  27.845  22.524  25.529
 1304W        W 2169  28.979  24.856  27.249
 1305W        W 2170  29.018  22.050  27.999
 1306W        W 2171  27.463  23.262  28.553
 1307W        W 2172  27.556  24.601  26.256
 1308W        W 2173  27.956  23.895  28.996
 1309W        W 2174  27.630  21.872  27.305
 1310W        W 2175  26.242  22.775  27.368
 1311W        W 2176  25.796  23.975  28.142
 1312W        W 2177  27.655  25.168  26.848
 1313W        W 2178  28.849  22.765  27.720
 1314W        W 2179  27.486  25.112  28.487
 1315W        W 2180  28.829  24.171  25.692
 1316W        W 2181  27.264  23.654  26.753
 1317W        W 2182  29.116  22.165  28.494
 1318W        W 2183  27.265  24.000  28.088
 1319W        W 2184  27.482  22.886  27.533
 1320W        W 2185  28.334  23.184  26.371
 1321W        W 2186  28.621  22.917  26.013
 1322W        W 2187  28.430  24.957  26.402
 1323W        W 2188  28.264  24.560  27.198
 1324W        W 2189  28.160  23.639  26.176
 1325W        W 2190  27.593  23.849  27.162
 1326W        W 2191  28.474  23.637  27.229
 1327W        W 2192  25.849  22.652  27.653
 1328W        W 2193  28.627  23.704  28.480
 1329W        W 2194  28.978  25.322  27.626
 1330W        W 2195  26.908  24.766  27.028
 1331W        W 2196  27.915  25.299  28.352
 1332W        W 2197  27.909  22.629  28.116
 1333W        W 2198  27.116  25.337  28.177
 1334W        W 2199  28.813  22.291  26.643
 1335W        W 2200  28.604  23.610  27.944
 1336W        W 2201  25.587  22.931  27.982
 1337W        W 2202  28.447  22.726  27.000
 1338W        W 2203  28.858  22.877  28.777
 1339W        W 2204  27.743  24.576  26.995
 1340W        W 2205  26.999  25.167  26.608
 1341W        W 2206  26.114  22.347  25.866
 1342W        W 2207  27.218  22.001  27.676
 1343W        W 2208  26.246  25.121  25.524
 1344W        W 2209  26.620  23.587  26.275
 1345W        W 2210  27.274  24.216  28.588
 1346W        W 2211  27.104  22.574  26.578
 1347W        W 2212  28.460  22.171  27.006
 1348W        W 2213  28.180  25.453  27.334
 1349W        W 2214  27.592  25.101  27.674
 1350W        W 2215  26.988  24.138  27.635
 1351W        W 2216  28.758  24.861  27.761
 1352W        W 2217  26.452  22.364  26.530
 1353W        W 2218  26.974  24.661  27.490
 1354W        W 2219  26.457  22.592  25.555
 1355W        W 2220  27.258  23.201  27.949
 1356W        W 2221  28.106  22.067  27.819
 1357W        W 2222  25.526  23.910  27.704
 1358W        W 2223  27.230  23.728  25.862
 1359W        W 2224  26.498  22.043  25.632
 1360W        W 2225  27.236  23.124  26.683
 1361W        W 2226  28.206  22.100  28.382
 1362W        W 2227  26.794  24.112  28.491
 1363W        W 2228  27.598  23.894  28.708
 1364W        W 2229  28.215  23.924  28.601
 1365W        W 2230  27.499  22.064  29.106
 1366W        W 2231  26.721  22.680  27.499
 1367W        W 2232  26.147  22.636  26.897
 1368W        W 2233  25.933  25.348  26.573
 1369W        W 2234  27.265  24.678  28.698
 1370W        W 2235  26.300  24.163  26.057
 1371W        W 2236  27.980  23.548  27.278
 1372W        W 2237  28.260  23.347  27.677
 1373W        W 2238  27.465  24.021  27.611
 1374W        W 2239  27.935  24.395  25.743
 1375W        W 2240  27.607  22.416  27.071
 1376W        W 2241  29.086  22.694  26.339
 1377W        W 2242  25.580  25.283  28.370
 1378W        W 2243  25.997  24.509  27.902
 1379W        W 2244  25.564  25.355  26.134
 1380W        W 2245  27.463  22.625  27.940
 1381W        W 2246  26.826  24.648  25.789
 1382W        W 2247  28.731  25.030  25.975
 1383W        W 2248  27.706  23.683  25.989
 1384W        W 2249  26.549  22.874  26.506
 1385W        W 2250  27.381  22.784  25.558
 1386W        W 2251  27.965  24.349  28.736
 1387W        W 2252  28.318  22.255  26.353
 1388W        W 2253  25.648  22.103  25.801
 1389W        W 2254  26.934  24.422  28.091
 1390W        W 2255  26.733  24.338  27.183
 1391W        W 2256  26.475  24.290  25.581
 1392W        W 2257  25.716  24.531  26.349
 1393W        W 2258  26.220  23.601  28.791
 1394W        W 2259  26.924  22.161  28.977
 1395W        W 2260  27.633  22.303  28.333
 1396W        W 2261  26.828  22.071  26.614
 1397W        W 2262  27.887  22.148  26.119
 1398W        W 2263  25.832  22.080  27.696
 1399W        W 2264  25.880  23.043  27.066
 1400W        W 2265  28.569  22.151  27.472
 1401W        W 2266  25.991  22.649  26.286
 1402W        W 2267  28.562  22.337  27.902
 1403W        W 2268  28.958  23.540  25.587
 1404W        W 2269  26.250  22.298  27.406
 1405W        W 2270  27.364  22.870  28.346
 1406W        W 2271  25.512  22.560  25.824
 1407W        W 2272  26.298  23.949  28.385
 1408W        W 2273  27.656  23.347  27.564
 1409W        W 2274  27.523  25.426  25.860
 1410W        W 2275  25.669  23.933  25.557
 1411W        W 2276  26.404  24.344  28.683
 1412W        W 2277  25.925  23.511  28.314
 1413W        W 2278  26.916  23.616  28.108
 1414W        W 2279  28.684  21.975  28.370
 1415W        W 2280  29.082  23.585  28.361
 1416W        W 2281  29.070  23.785  26.047
 1417W        W 2282  27.933  24.117  26.146
 1418W        W 2283  28.407  25.417  25.841
 1419W        W 2284  27.584  23.407  28.983
 1420W        W 2285  25.914  24.374  29.023
 1421W        W 2286  29.120  22.296  28.975
 1422W        W 2287  28.838  23.224  27.596
 1423W        W 2288  27.146  25.354  29.073
 1424W        W 2289  27.001  21.983  25.800
 1425W        W 2290  28.540  24.582  25.743
 1426W        W 2291  26.309  22.675  28.629
 1427W        W 2292  26.743  24.669  28.491
 1428W        W 2293  28.869  22.660  28.289
 1429W        W 2294  28.080  25.319  26.257
 1430W        W 2295  28.319  23.938  27.624
 1431W        W 2296  26.569  22.354  28.291
 1432W        W 2297  27.038  23.423  29.048
 1433W        W 2298  26.541  24.602  26.242
 1434W        W 2299  28.296  24.100  26.506
 1435W        W 2300  26.064  22.726  28.230
 1436W        W 2301  27.393  24.788  26.694
 1437W        W 2302  29.143  23.348  26.875
 1438W        W 2303  27.365  21.981  28.594
 1439W        W 2304  28.145  24.686  27.673
 1440W        W 2305  28.448  25.030  27.381
 1441W        W 2306  27.667  24.832  25.809
 1442W        W 2307  25.677  24.724  28.651
 1443W        W 2308  26.420  22.716  27.889
 1444W        W 2309  26.390  22.064  26.999
 1445W        W 2310  28.011  22.906  27.691
 1446W        W 2311  26.809  24.077  25.891
 1447W        W 2312  28.807  24.019  27.390
 1448W        W 2313  26.134  24.777  28.813
 1449W        W 2314  28.521  25.459  26.610
 1450W        W 2315  26.620  22.479  27.055
 1451W        W 2316  26.389  23.972  27.145
 1452W        W 2317  26.702  25.383  27.895
 1453W        W 2318  28.769  25.479  28.927
 1454W        W 2319  27.928  23.667  27.860
 1455W        W 2320  25.777  23.465  25.775
 1456W        W 2321  28.911  25.123  26.472
 1457W        W 2322  28.748  22.447  26.091
 1458W        W 2323  26.887  21.966  28.494
 1459W        W 2324  28.593  24.768  26.952
 1460W        W 2325  28.622  23.324  26.857
 1461W        W 2326  26.739  22.997  27.073
 1462W        W 2327  26.984  23.259  28.397
 1463W        W 2328  28.095  24.412  28.260
 1464W        W 2329  26.745  22.866  28.372
 1465W        W 2330  26.724  25.332  26.988
 1466W        W 2331  26.041  25.291  28.622
 1467W        W 2332  26.153  24.652  25.752
 1468W        W 2333  28.670  24.410  26.562
 1469W        W 2334  26.274  23.202  28.448
 1470W        W 2335  29.047  23.132  25.929
 1471W        W 2336  26.792  24.189  26.400
 1472W        W 2337  27.891  23.571  28.481
 1473W        W 2338  27.782  23.199  28.025
 1474W        W 2339  26.342  23.571  28.054
 1475W        W 2340  28.552  25.459  27.883
 1476W        W 2341  28.343  22.093  28.877
 1477W        W 2342  26.007  22.243  28.464
 1478W        W 2343  26.346  23.266  27.517
 1479W        W 2344  26.715  23.080  25.639
 1480W        W 2345  25.518  24.839  28.184
 1481W        W 2346  27.103  23.548  27.627
 1482W        W 2347  26.926  22.573  25.732
 1483W        W 2348  26.061  23.389  26.513
 1484W        W 2349  25.832  25.241  27.950
 1485W        W 2350  28.627  23.467  26.058
 1486W        W 2351  28.722  22.383  28.744
 1487W        W 2352  28.158  24.592  26.707
 1488W        W 2353  25.756  23.516  28.884
 1489W        W 2354  28.722  21.980  26.180
 1490W        W 2355  28.242  24.455  26.191
 1491W        W 2356  27.144  23.513  26.276
 1492W        W 2357  28.331  22.317  25.799
 1493W        W 2358  28.396  22.924  27.985
 1494W        W 2359  26.105  23.517  27.192
 1495W        W 2360  26.399  24.456  26.841
 1496W        W 2361  28.162  23.076  26.806
 1497W        W 2362  27.185  22.455  27.502
 1498W        W 2363  29.147  24.366  28.013
 1499W        W 2364  29.065  22.353  27.574
 1500W        W 2365  25.604  25.183  26.950
 1501W        W 2366  26.113  24.370  26.486
 1502W        W 2367  26.028  21.987  29.039
 1503W        W 2368  27.147  24.840  29.141
 1504W        W 2369  28.902  23.808  26.931
 1505W        W 2370  28.256  23.985  25.811
 1506W        W 2371  27.551  25.506  28.023
 1507W        W 2372  28.408  24.228  29.060
 1508W        W 2373  27.223  21.938  26.340
 1509W        W 2374  27.936  22.807  27.199
 1510W        W 2375  25.622  24.394  27.531
 1511W        W 2376  26.875  22.356  26.172
 1512W        W 2377  26.679  23.840  29.021
 1513W        W 2378  27.673  22.821  26.735
 1514W        W 2379  27.878  24.231  27.857
 1515W        W 2380  26.032  24.836  28.292
 1516W        W 2381  26.623  24.819  29.015
 1517W        W 2382  26.474  22.616  26.029
 1518W        W 2383  27.991  22.758  26.354
 1519W        W 2384  27.949  24.866  28.591
 1520W        W 2385  26.634  23.458  27.190
 1521W        W 2386  26.289  25.156  28.055
 1522W        W 2387  29.034  25.273  25.656
 1523W        W 2388  25.897  23.945  28.652
 1524W        W 2389  27.892  24.207  27.340
 1525W        W 2390  26.328  23.856  26.582
 1526W        W 2391  26.699  24.863  27.977
 1527W        W 2392  27.077  22.282  27.018
 1528W        W 2393  25.688  24.266  25.948
 1529W        W 2394  27.207  23.217  25.818
 1530W        W 2395  25.853  23.766  26.837
 1531W        W 2396  27.143  22.408  28.301
 1532W        W 2397  28.815  22.117  25.728
 1533W        W 2398  28.908  23.863  28.827
 1534W        W 2399  27.562  25.120  28.979
 1535W        W 2400  29.120  24.214  28.501
 1536W        W 2401  26.267  25.468  27.590
 1537W        W 2402  29.126  24.090  26.464
 1538W        W 2403  27.656  23.357  26.977
 1539W        W 2404  27.423  21.969  26.867
 1540W        W 2405  26.482  24.953  26.704
 1541W        W 2406  26.981  22.694  27.929
 1542W        W 2407  26.681  22.063  27.398
 1543W        W 2408  25.744  24.885  25.946
 1544W        W 2409  27.560  24.249  26.664
 1545W        W 2410  26.435  25.044  28.543
 1546W        W 2411  25.912  23.867  26.239
 1547W        W 2412  25.797  22.410  27.238
 1548W        W 2413  27.345  24.375  27.295
 1549W        W 2414  25.597  22.229  26.315
 1550W        W 2415  28.261  23.435  28.242
 1551W        W 2416  28.138  22.821  25.814
 1552W        W 2417  28.655  24.493  27.462
 1553W        W 2418  27.316  24.977  27.293
 1554W        W 2419  26.728  25.081  26.204
 1555W        W 2420  28.010  21.984  25.634
 1556W        W 2421  25.810  25.244  27.375
 1557W        W 2422  28.007  23.002  29.010
 1558W        W 2423  25.990  22.532  29.009
 1559W        W 2424  25.721  23.132  26.342
 1560W        W 2425  26.412  23.121  26.067
 1561W        W 2426  28.175  23.448  28.884
 1562W        W 2427  26.518  23.729  27.593
 1563W        W 2428  27.992  22.015  26.713
 1564W        W 2429  27.123  25.446  27.216
 1565W        W 2430  28.337  24.908  28.153
 1566W        W 2431  27.921  25.057  27.264
 1567W        W 2432  27.940  24.037  26.858
 1568W        W 2433  27.402  22.262  25.929
 1569W        W 2434  29.083  21.890  26.651
 1570W        W 2435  26.771  23.525  25.814
 1571W        W 2436  28.937  22.862  26.804
 1572W        W 2437  27.629  24.032  25.681
 1573W        W 2438  28.565  24.232  28.429
 1574W        W 2439  28.219  24.933  25.896
 1575W        W 2440  26.834  22.608  28.802
 1576W        W 2441  26.654  23.192  28.043
 1577W        W 2442  28.746  24.687  28.320
 1578W        W 2443  27.846  22.637  28.697
 1579W        W 2444  25.690  23.108  28.474
 1580W        W 2445  27.450  23.585  28.200
 1581W        W 2446  25.807  24.343  26.857
 1582W        W 2447  25.954  23.640  27.747
 1583W        W 2448  28.271  23.926  28.097
 1584W        W 2449  28.043  25.306  28.908
 1585W        W 2450  27.939  23.045  28.461
 1586W        W 2451  28.216  25.099  26.866
 1587W        W 2452  27.218  24.819  28.189
 1588W        W 2453  26.703  25.174  27.458
 1589W        W 2454  28.508  24.345  27.877
 1590W        W 2455  27.558  24.417  29.014
 1591W        W 2456  26.163  24.370  27.353
 1592W        W 2457  28.509  24.129  26.998
 1593W        W 2458  28.150  25.195  27.749
 1594W        W 2459  26.128  24.924  27.619
 1595W        W 2460  27.149  22.976  28.829
 1596W        W 2461  27.600  25.142  26.340
 1597W        W 2462  26.908  24.397  28.978
 1598W        W 2463  27.034  24.635  26.355
 1599W        W 2464  26.255  23.375  25.614
 1600W        W 2465  25.594  29.105   3.359
 1601W        W 2466  25.970  27.998   2.882
 1602W        W 2467  28.675  27.728   0.652
 1603W        W 2468  28.805  28.813   2.679
 1604W        W 2469  26.723  28.804   0.205
 1605W        W 2470  26.806  26.956   1.188
 1606W        W 2471  26.321  26.804   1.352
 1607W        W 2472  27.312  27.619   0.786
 1608W        W 2473  26.987  28.711   3.141
 1609W        W 2474  25.636  26.272   3.104
 1610W        W 2475  26.398  25.552   2.906
 1611W        W 2476  28.092  25.940   1.793
 1612W        W 2477  27.741  26.811   0.363
 1613W        W 2478  28.311  26.245   3.454
 1614W        W 2479  25.677  26.037   2.579
 1615W        W 2480  25.776  28.656   3.600
 1616W        W 2481  27.298  28.046   0.332
 1617W        W 2482  25.730  26.829   2.025
 1618W        W 2483  26.623  26.720   3.262
 1619W        W 2484  29.082  26.579   1.761
 1620W        W 2485  28.846  27.622   2.620
 1621W        W 2486  27.154  26.955   1.647
 1622W        W 2487  27.700  28.294   2.016
 1623W        W 2488  26.200  27.728   2.248
 1624W        W 2489  25.559  27.256   1.819
 1625W        W 2490  26.595  27.228   3.011
 1626W        W 2491  28.866  27.011   3.265
 1627W        W 2492  26.482  28.455   1.710
 1628W        W 2493  27.603  28.144   2.844
 1629W        W 2494  26.823  26.784   2.069
 1630W        W 2495  27.115  27.568   1.712
 1631W        W 2496  28.112  28.341   3.560
 1632W        W 2497  27.191  27.661   3.570
 1633W        W 2498  27.172  27.377   3.048
 1634W        W 2499  25.581  26.768   3.570
 1635W        W 2500  28.413  28.303   3.169
 1636W        W 2501  25.994  25.885   1.167
 1637W        W 2502  26.521  28.143   2.166
 1638W        W 2503  28.984  27.926   1.456
 1639W        W 2504  28.397  26.326   2.023
 1640W        W 2505  28.682  26.279   0.118
 1641W        W 2506  29.147  27.080   2.424
 1642W        W 2507  27.114  28.787   2.177
 1643W        W 2508  28.888  28.253   0.615
 1644W        W 2509  26.017  29.039   0.369
 1645W        W 2510  26.410  29.085   1.045
 1646W        W 2511  26.207  25.839   2.471
 1647W        W 2512  28.830  26.857   2.746
 1648W        W 2513  28.235  27.279   1.205
 1649W        W 2514  28.201  26.967   0.232
 1650W        W 2515  27.409  28.111   2.372
 1651W        W 2516  27.215  26.441   1.571
 1652W        W 2517  27.815  28.528   2.565
 1653W        W 2518  28.686  27.319   0.987
 1654W        W 2519  27.588  25.977   1.003
 1655W        W 2520  26.245  28.671   0.686
 1656W        W 2521  25.616  26.170   1.285
 1657W        W 2522  28.402  26.777   1.759
 1658W        W 2523  25.860  28.394   1.674
 1659W        W 2524  27.201  28.744   0.544
 1660W        W 2525  28.593  26.770   0.008
 1661W        W 2526  25.616  28.528   2.172
 1662W        W 2527  26.407  28.100   2.652
 1663W        W 2528  26.780  27.460   1.271
 1664W        W 2529  26.802  25.865   2.364
 1665W        W 2530  29.031  25.627   1.661
 1666W        W 2531  26.250  27.499   0.129
 1667W        W 2532  25.905  26.532   0.308
 1668W        W 2533  25.967  28.488   1.102
 1669W        W 2534  27.098  27.971   1.350
 1670W        W 2535  28.430  28.830   3.064
 1671W        W 2536  27.356  26.472   0.748
 1672W        W 2537  28.739  28.870   1.520
 1673W        W 2538  28.416  26.723   3.118
 1674W        W 2539  29.129  28.379   1.252
 1675W        W 2540  27.756  27.671   2.736
 1676W        W 2541  25.522  27.222   0.942
 1677W        W 2542  26.633  27.637   2.515
 1678W        W 2543  27.837  26.901   0.893
 1679W        W 2544  27.714  27.391   0.997
 1680W        W 2545  26.057  26.811   2.471
 1681W        W 2546  26.042  26.687   3.393
 1682W        W 2547  25.932  25.604   1.552
 1683W        W 2548  27.700  25.951   2.113
 1684W        W 2549  27.348  26.136   3.276
 1685W        W 2550  27.703  26.285   0.454
 1686W        W 2551  28.886  28.678   3.208
 1687W        W 2552  27.853  25.759   3.247
 1688W        W 2553  28.872  28.060   3.369
 1689W        W 2554  28.302  26.227   2.965
 1690W        W 2555  28.102  26.165   1.235
 1691W        W 2556  28.495  27.299   3.639
 1692W        W 2557  26.235  28.875   1.625
 1693W        W 2558  26.893  26.592   0.611
 1694W        W 2559  26.462  25.876   3.275
 1695W        W 2560  28.514  26.360   0.956
 1696W        W 2561  28.881  26.842   0.901
 1697W        W 2562  26.624  29.059   3.372
 1698W        W 2563  26.550  25.595   0.607
 1699W        W 2564  28.871  26.129   1.642
 1700W        W 2565  29.021  28.378   0.087
 1701W        W 2566  25.928  27.581   1.789
 1702W        W 2567  27.845  26.168   0.019
 1703W        W 2568  28.979  28.500   1.739
 1704W        W 2569  29.018  25.694   2.489
 1705W        W 2570  27.463  26.906   3.043
 1706W        W 2571  27.556  28.245   0.746
 1707W        W 2572  27.956  27.539   3.486
 1708W        W 2573  27.630  25.516   1.795
 1709W        W 2574  26.242  26.419   1.858
 1710W        W 2575  25.796  27.619   2.632
 1711W        W 2576  27.655  28.812   1.338
 1712W        W 2577  28.849  26.409   2.210
 1713W        W 2578  27.486  28.756   2.977
 1714W        W 2579  28.829  27.815   0.182
 1715W        W 2580  27.264  27.298   1.243
 1716W        W 2581  29.116  25.809   2.984
 1717W        W 2582  27.265  27.644   2.578
 1718W        W 2583  27.482  26.530   2.023
 1719W        W 2584  28.334  26.828   0.861
 1720W        W 2585  28.621  26.561   0.503
 1721W        W 2586  28.430  28.601   0.892
 1722W        W 2587  28.264  28.204   1.688
 1723W        W 2588  28.160  27.283   0.666
 1724W        W 2589  27.593  27.493   1.652
 1725W        W 2590  28.474  27.281   1.719
 1726W        W 2591  25.849  26.296   2.143
 1727W        W 2592  28.627  27.348   2.970
 1728W        W 2593  28.978  28.966   2.116
 1729W        W 2594  26.908  28.410   1.518
 1730W        W 2595  27.915  28.943   2.842
 1731W        W 2596  27.909  26.273   2.606
 1732W        W 2597  27.116  28.981   2.667
 1733W        W 2598  28.813  25.935   1.133
 1734W        W 2599  28.604  27.254   2.434
 1735W        W 2600  25.587  26.575   2.472
 1736W        W 2601  28.447  26.370   1.490
 1737W        W 2602  28.858  26.521   3.267
 1738W        W 2603  27.743  28.220   1.485
 1739W        W 2604  26.999  28.811   1.098
 1740W        W 2605  26.114  25.991   0.356
 1741W        W 2606  27.218  25.645   2.166
 1742W        W 2607  26.246  28.765   0.014
 1743W        W 2608  26.620  27.231   0.765
 1744W        W 2609  27.274  27.860   3.078
 1745W        W 2610  27.104  26.218   1.068
 1746W        W 2611  28.460  25.815   1.496
 1747W        W 2612  28.180  29.097   1.824
 1748W        W 2613  27.592  28.745   2.164
 1749W        W 2614  26.988  27.782   2.125
 1750W        W 2615  28.758  28.505   2.251
 1751W        W 2616  26.452  26.008   1.020
 1752W        W 2617  26.974  28.305   1.980
 1753W        W 2618  26.457  26.236   0.045
 1754W        W 2619  27.258  26.845   2.439
 1755W        W 2620  28.106  25.711   2.309
 1756W        W 2621  25.526  27.554   2.194
 1757W        W 2622  27.230  27.372   0.352
 1758W        W 2623  26.498  25.687   0.122
 1759W        W 2624  27.236  26.768   1.173
 1760W        W 2625  28.206  25.744   2.872
 1761W        W 2626  26.794  27.756   2.981
 1762W        W 2627  27.598  27.538   3.198
 1763W        W 2628  28.215  27.568   3.091
 1764W        W 2629  27.499  25.708   3.596
 1765W        W 2630  26.721  26.324   1.989
 1766W        W 2631  26.147  26.280   1.387
 1767W        W 2632  25.933  28.992   1.063
 1768W        W 2633  27.265  28.322   3.188
 1769W        W 2634  26.300  27.807   0.547
 1770W        W 2635  27.980  27.192   1.768
 1771W        W 2636  28.260  26.991   2.167
 1772W        W 2637  27.465  27.665   2.101
 1773W        W 2638  27.935  28.039   0.233
 1774W        W 2639  27.607  26.060   1.561
 1775W        W 2640  29.086  26.338   0.829
 1776W        W 2641  25.580  28.927   2.860
 1777W        W 2642  25.997  28.153   2.392
 1778W        W 2643  25.564  28.999   0.624
 1779W        W 2644  27.463  26.269   2.430
 1780W        W 2645  26.826  28.292   0.279
 1781W        W 2646  28.731  28.674   0.465
 1782W        W 2647  27.706  27.327   0.479
 1783W        W 2648  26.549  26.518   0.996
 1784W        W 2649  27.381  26.428   0.048
 1785W        W 2650  27.965  27.993   3.226
 1786W        W 2651  28.318  25.899   0.843
 1787W        W 2652  25.648  25.747   0.291
 1788W        W 2653  26.934  28.066   2.581
 1789W        W 2654  26.733  27.982   1.673
 1790W        W 2655  26.475  27.934   0.071
 1791W        W 2656  25.716  28.175   0.839
 1792W        W 2657  26.220  27.245   3.281
 1793W        W 2658  26.924  25.805   3.467
 1794W        W 2659  27.633  25.947   2.823
 1795W        W 2660  26.828  25.715   1.104
 1796W        W 2661  27.887  25.792   0.609
 1797W        W 2662  25.832  25.724   2.186
 1798W        W 2663  25.880  26.687   1.556
 1799W        W 2664  28.569  25.795   1.962
 1800W        W 2665  25.991  26.293   0.776
 1801W        W 2666  28.562  25.981   2.392
 1802W        W 2667  28.958  27.184   0.077
 1803W        W 2668  26.250  25.942   1.896
 1804W        W 2669  27.364  26.514   2.836
 1805W        W 2670  25.512  26.204   0.314
 1806W        W 2671  26.298  27.593   2.875
 1807W        W 2672  27.656  26.991   2.054
 1808W        W 2673  27.523  29.070   0.350
 1809W        W 2674  25.669  27.577   0.047
 1810W        W 2675  26.404  27.988   3.173
 1811W        W 2676  25.925  27.155   2.804
 1812W        W 2677  26.916  27.260   2.598
 1813W        W 2678  28.684  25.619   2.860
 1814W        W 2679  29.082  27.229   2.851
 1815W        W 2680  29.070  27.429   0.537
 1816W        W 2681  27.933  27.761   0.636
 1817W        W 2682  28.407  29.061   0.331
 1818W        W 2683  27.584  27.051   3.473
 1819W        W 2684  25.914  28.018   3.513
 1820W        W 2685  29.120  25.940   3.465
 1821W        W 2686  28.838  26.868   2.086
 1822W        W 2687  27.146  28.998   3.563
 1823W        W 2688  27.001  25.627   0.290
 1824W        W 2689  28.540  28.226   0.233
 1825W        W 2690  26.309  26.319   3.119
 1826W        W 2691  26.743  28.313   2.981
 1827W        W 2692  28.869  26.304   2.779
 1828W        W 2693  28.080  28.963   0.747
 1829W        W 2694  28.319  27.582   2.114
 1830W        W 2695  26.569  25.998   2.781
 1831W        W 2696  27.038  27.067   3.538
 1832W        W 2697  26.541  28.246   0.732
 1833W        W 2698  28.296  27.744   0.996
 1834W        W 2699  26.064  26.370   2.720
 1835W        W 2700  27.393  28.432   1.184
 1836W        W 2701  29.143  26.992   1.365
 1837W        W 2702  27.365  25.625   3.084
 1838W        W 2703  28.145  28.330   2.163
 1839W        W 2704  28.448  28.674   1.871
 1840W        W 2705  27.667  28.476   0.299
 1841W        W 2706  25.677  28.368   3.141
 1842W        W 2707  26.420  26.360   2.379
 1843W        W 2708  26.390  25.708   1.489
 1844W        W 2709  28.011  26.550   2.181
 1845W        W 2710  26.809  27.721   0.381
 1846W        W 2711  28.807  27.663   1.880
 1847W        W 2712  26.134  28.421   3.303
 1848W        W 2713  28.521  29.103   1.100
 1849W        W 2714  26.620  26.123   1.545
 1850W        W 2715  26.389  27.616   1.635
 1851W        W 2716  26.702  29.027   2.385
 1852W        W 2717  28.769  29.123   3.417
 1853W        W 2718  27.928  27.311   2.350
 1854W        W 2719  25.777  27.109   0.265
 1855W        W 2720  28.911  28.767   0.962
 1856W        W 2721  28.748  26.091   0.581
 1857W        W 2722  26.887  25.610   2.984
 1858W        W 2723  28.593  28.412   1.442
 1859W        W 2724  28.622  26.968   1.347
 1860W        W 2725  26.739  26.641   1.563
 1861W        W 2726  26.984  26.903   2.887
 1862W        W 2727  28.095  28.056   2.750
 1863W        W 2728  26.745  26.510   2.862
 1864W        W 2729  26.724  28.976   1.478
 1865W        W 2730  26.041  28.935   3.112
 1866W        W 2731  26.153  28.296   0.242
 1867W        W 2732  28.670  28.054   1.052
 1868W        W 2733  26.274  26.846   2.938
 1869W        W 2734  29.047  26.776   0.419
 1870W        W 2735  26.792  27.833   0.890
 1871W        W 2736  27.891  27.215   2.971
 1872W        W 2737  27.782  26.843   2.515
 1873W        W 2738  26.342  27.215   2.544
 1874W        W 2739  28.552  29.103   2.373
 1875W        W 2740  28.343  25.737   3.367
 1876W        W 2741  26.007  25.887   2.954
 1877W        W 2742  26.346  26.910   2.007
 1878W        W 2743  26.715  26.724   0.129
 1879W        W 2744  25.518  28.483   2.674
 1880W        W 2745  27.103  27.192   2.117
 1881W        W 2746  26.926  26.217   0.222
 1882W        W 2747  26.061  27.033   1.003
 1883W        W 2748  25.832  28.885   2.440
 1884W        W 2749  28.627  27.111   0.548
 1885W        W 2750  28.722  26.027   3.234
 1886W        W 2751  28.158  28.236   1.197
 1887W        W 2752  25.756  27.160   3.374
 1888W        W 2753  28.722  25.624   0.670
 1889W        W 2754  28.242  28.099   0.681
 1890W        W 2755  27.144  27.157   0.766
 1891W        W 2756  28.331  25.961   0.289
 1892W        W 2757  28.396  26.568   2.475
 1893W        W 2758  26.105  27.161   1.682
 1894W        W 2759  26.399  28.100   1.331
 1895W        W 2760  28.162  26.720   1.296
 1896W        W 2761  27.185  26.099   1.992
 1897W        W 2762  29.147  28.010   2.503
 1898W        W 2763  29.065  25.997   2.064
 1899W        W 2764  25.604  28.827   1.440
 1900W        W 2765  26.113  28.014   0.976
 1901W        W 2766  26.028  25.631   3.529
 1902W        W 2767  27.147  28.484   3.631
 1903W        W 2768  28.902  27.452   1.421
 1904W        W 2769  28.256  27.629   0.301
 1905W        W 2770  27.551  29.150   2.513
 1906W        W 2771  28.408  27.872   3.550
 1907W        W 2772  27.223  25.582   0.830
 1908W        W 2773  27.936  26.451   1.689
 1909W        W 2774  25.622  28.038   2.021
 1910W        W 2775  26.875  26.000   0.662
 1911W        W 2776  26.679  27.484   3.511
 1912W        W 2777  27.673  26.465   1.225
 1913W        W 2778  27.878  27.875   2.347
 1914W        W 2779  26.032  28.480   2.782
 1915W        W 2780  26.623  28.463   3.505
 1916W        W 2781  26.474  26.260   0.519
 1917W        W 2782  27.991  26.402   0.844
 1918W        W 2783  27.949  28.510   3.081
 1919W        W 2784  26.634  27.102   1.680
 1920W        W 2785  26.289  28.800   2.545
 1921W        W 2786  29.034  28.917   0.146
 1922W        W 2787  25.897  27.589   3.142
 1923W        W 2788  27.892  27.851   1.830
 1924W        W 2789  26.328  27.500   1.072
 1925W        W 2790  26.699  28.507   2.467
 1926W        W 2791  27.077  25.926   1.508
 1927W        W 2792  25.688  27.910   0.438
 1928W        W 2793  27.207  26.861   0.308
 1929W        W 2794  25.853  27.410   1.327
 1930W        W 2795  27.143  26.052   2.791
 1931W        W 2796  28.815  25.761   0.218
 1932W        W 2797  28.908  27.507   3.317
 1933W        W 2798  27.562  28.764   3.469
 1934W        W 2799  29.120  27.858   2.991
 1935W        W 2800  28.528  28.656   3.602
 1936W        W 2801  26.267  29.112   2.080
 1937W        W 2802  29.126  27.734   0.954
 1938W        W 2803  27.656  27.001   1.467
 1939W        W 2804  27.423  25.613   1.357
 1940W        W 2805  26.482  28.597   1.194
 1941W        W 2806  26.981  26.338   2.419
 1942W        W 2807  26.681  25.707   1.888
 1943W        W 2808  25.744  28.529   0.436
 1944W        W 2809  27.560  27.893   1.154
 1945W        W 2810  26.435  28.688   3.033
 1946W        W 2811  25.912  27.511   0.729
 1947W        W 2812  25.797  26.054   1.728
 1948W        W 2813  27.345  28.019   1.785
 1949W        W 2814  25.597  25.873   0.805
 1950W        W 2815  28.261  27.079   2.732
 1951W        W 2816  28.138  26.465   0.304
 1952W        W 2817  28.655  28.137   1.952
 1953W        W 2818  27.316  28.621   1.783
 1954W        W 2819  26.728  28.725   0.694
 1955W        W 2820  28.010  25.628   0.124
 1956W        W 2821  25.810  28.888   1.865
 1957W        W 2822  28.007  26.646   3.500
 1958W        W 2823  25.990  26.176   3.499
 1959W        W 2824  25.721  26.776   0.832
 1960W        W 2825  26.412  26.765   0.557
 1961W        W 2826  28.175  27.092   3.374
 1962W        W 2827  26.518  27.373   2.083
 1963W        W 2828  27.992  25.659   1.203
 1964W        W 2829  27.123  29.090   1.706
 1965W        W 2830  28.337  28.552   2.643
 1966W        W 2831  27.921  28.701   1.754
 1967W        W 2832  27.940  27.681   1.348
 1968W        W 2833  27.402  25.906   0.419
 1969W        W 2834  29.083  25.534   1.141
 1970W        W 2835  26.771  27.169   0.304
 1971W        W 2836  28.937  26.506   1.294
 1972W        W 2837  27.629  27.676   0.171
 1973W        W 2838  28.565  27.876   2.919
 1974W        W 2839  28.219  28.577   0.386
 1975W        W 2840  26.834  26.252   3.292
 1976W        W 2841  26.654  26.836   2.533
 1977W        W 2842  28.746  28.331   2.810
 1978W        W 2843  27.846  26.281   3.187
 1979W        W 2844  25.690  26.752   2.964
 1980W        W 2845  27.450  27.229   2.690
 1981W        W 2846  25.807  27.987   1.347
 1982W        W 2847  25.954  27.284   2.237
 1983W        W 2848  28.271  27.570   2.587
 1984W        W 2849  28.043  28.950   3.398
 1985W        W 2850  27.939  26.689   2.951
 1986W        W 2851  28.216  28.743   1.356
 1987W        W 2852  27.218  28.463   2.679
 1988W        W 2853  26.703  28.818   1.948
 1989W        W 2854  28.508  27.989   2.367
 1990W        W 2855  27.558  28.061   3.504
 1991W        W 2856  26.163  28.014   1.843
 1992W        W 2857  28.509  27.773   1.488
 1993W        W 2858  28.150  28.839   2.239
 1994W        W 2859  26.128  28.568   2.109
 1995W        W 2860  27.149  26.620   3.319
 1996W        W 2861  27.600  28.786   0.830
 1997W        W 2862  26.908  28.041   3.468
 1998W        W 2863  27.034  28.279   0.845
 1999W        W 2864  26.255  27.019   0.104
 2000W        W 2865  25.594  29.105   7.003
 2001W        W 2866  25.970  27.998   6.526
 2002W        W 2867  28.675  27.728   4.296
 2003W        W 2868  28.805  28.813   6.323
 2004W        W 2869  26.723  28.804   3.849
 2005W        W 2870  26.806  26.956   4.832
 2006W        W 2871  26.321  26.804   4.996
 2007W        W 2872  27.312  27.619   4.430
 2008W        W 2873  26.987  28.711   6.785
 2009W        W 2874  25.636  26.272   6.748
 2010W        W 2875  26.398  25.552   6.550
 2011W        W 2876  28.092  25.940   5.437
 2012W        W 2877  27.741  26.811   4.007
 2013W        W 2878  28.311  26.245   7.098
 2014W        W 2879  25.677  26.037   6.223
 2015W        W 2880  25.776  28.656   7.244
 2016W        W 2881  27.298  28.046   3.976
 2017W        W 2882  25.730  26.829   5.669
 2018W        W 2883  26.623  26.720   6.906
 2019W        W 2884  29.082  26.579   5.405
 2020W        W 2885  28.846  27.622   6.264
 2021W        W 2886  27.154  26.955   5.291
 2022W        W 2887  27.700  28.294   5.660
 2023W        W 2888  26.200  27.728   5.892
 2024W        W 2889  25.559  27.256   5.463
 2025W        W 2890  26.595  27.228   6.655
 2026W        W 2891  28.866  27.011   6.909
 2027W        W 2892  26.482  28.455   5.354
 2028W        W 2893  27.603  28.144   6.488
 2029W        W 2894  26.823  26.784   5.713
 2030W        W 2895  27.115  27.568   5.356
 2031W        W 2896  28.112  28.341   7.204
 2032W        W 2897  27.191  27.661   7.214
 2033W        W 2898  27.172  27.377   6.692
 2034W        W 2899  25.581  26.768   7.214
 2035W        W 2900  28.413  28.303   6.813
 2036W        W 2901  25.994  25.885   4.811
 2037W        W 2902  26.521  28.143   5.810
 2038W        W 2903  28.984  27.926   5.100
 2039W        W 2904  28.397  26.326   5.667
 2040W        W 2905  28.682  26.279   3.762
 2041W        W 2906  29.147  27.080   6.068
 2042W        W 2907  27.114  28.787   5.821
 2043W        W 2908  28.888  28.253   4.259
 2044W        W 2909  26.017  29.039   4.013
 2045W        W 2910  26.410  29.085   4.689
 2046W        W 2911  26.207  25.839   6.115
 2047W        W 2912  28.830  26.857   6.390
 2048W        W 2913  28.235  27.279   4.849
 2049W        W 2914  28.201  26.967   3.876
 2050W        W 2915  27.409  28.111   6.016
 2051W        W 2916  27.215  26.441   5.215
 2052W        W 2917  27.815  28.528   6.209
 2053W        W 2918  28.686  27.319   4.631
 2054W        W 2919  27.588  25.977   4.647
 2055W        W 2920  26.245  28.671   4.330
 2056W        W 2921  25.616  26.170   4.929
 2057W        W 2922  28.402  26.777   5.403
 2058W        W 2923  25.860  28.394   5.318
 2059W        W 2924  27.201  28.744   4.188
 2060W        W 2925  28.593  26.770   3.652
 2061W        W 2926  25.616  28.528   5.816
 2062W        W 2927  26.407  28.100   6.296
 2063W        W 2928  26.780  27.460   4.915
 2064W        W 2929  26.802  25.865   6.008
 2065W        W 2930  29.031  25.627   5.305
 2066W        W 2931  26.250  27.499   3.773
 2067W        W 2932  25.905  26.532   3.952
 2068W        W 2933  25.967  28.488   4.746
 2069W        W 2934  27.098  27.971   4.994
 2070W        W 2935  28.430  28.830   6.708
 2071W        W 2936  27.356  26.472   4.392
 2072W        W 2937  28.739  28.870   5.164
 2073W        W 2938  28.416  26.723   6.762
 2074W        W 2939  29.129  28.379   4.896
 2075W        W 2940  27.756  27.671   6.380
 2076W        W 2941  25.522  27.222   4.586
 2077W        W 2942  26.633  27.637   6.159
 2078W        W 2943  27.837  26.901   4.537
 2079W        W 2944  27.714  27.391   4.641
 2080W        W 2945  26.057  26.811   6.115
 2081W        W 2946  26.042  26.687   7.037
 2082W        W 2947  25.932  25.604   5.196
 2083W        W 2948  27.700  25.951   5.757
 2084W        W 2949  27.348  26.136   6.920
 2085W        W 2950  27.703  26.285   4.098
 2086W        W 2951  28.886  28.678   6.852
 2087W        W 2952  27.853  25.759   6.891
 2088W        W 2953  28.872  28.060   7.013
 2089W        W 2954  28.302  26.227   6.609
 2090W        W 2955  28.102  26.165   4.879
 2091W        W 2956  28.495  27.299   7.283
 2092W        W 2957  26.235  28.875   5.269
 2093W        W 2958  26.893  26.592   4.255
 2094W        W 2959  26.462  25.876   6.919
 2095W        W 2960  28.514  26.360   4.600
 2096W        W 2961  28.881  26.842   4.545
 2097W        W 2962  26.624  29.059   7.016
 2098W        W 2963  26.550  25.595   4.251
 2099W        W 2964  28.871  26.129   5.286
 2100W        W 2965  29.021  28.378   3.731
 2101W        W 2966  25.928  27.581   5.433
 2102W        W 2967  27.845  26.168   3.663
 2103W        W 2968  28.979  28.500   5.383
 2104W        W 2969  29.018  25.694   6.133
 2105W        W 2970  27.463  26.906   6.687
 2106W        W 2971  27.556  28.245   4.390
 2107W        W 2972  27.956  27.539   7.130
 2108W        W 2973  27.630  25.516   5.439
 2109W        W 2974  26.242  26.419   5.502
 2110W        W 2975  25.796  27.619   6.276
 2111W        W 2976  27.655  28.812   4.982
 2112W        W 2977  28.849  26.409   5.854
 2113W        W 2978  27.486  28.756   6.621
 2114W        W 2979  28.829  27.815   3.826
 2115W        W 2980  27.264  27.298   4.887
 2116W        W 2981  29.116  25.809   6.628
 2117W        W 2982  27.265  27.644   6.222
 2118W        W 2983  27.482  26.530   5.667
 2119W        W 2984  28.334  26.828   4.505
 2120W        W 2985  28.621  26.561   4.147
 2121W        W 2986  28.430  28.601   4.536
 2122W        W 2987  28.264  28.204   5.332
 2123W        W 2988  28.160  27.283   4.310
 2124W        W 2989  27.593  27.493   5.296
 2125W        W 2990  28.474  27.281   5.363
 2126W        W 2991  25.849  26.296   5.787
 2127W        W 2992  28.627  27.348   6.614
 2128W        W 2993  28.978  28.966   5.760
 2129W        W 2994  26.908  28.410   5.162
 2130W        W 2995  27.915  28.943   6.486
 2131W        W 2996  27.909  26.273   6.250
 2132W        W 2997  27.116  28.981   6.311
 2133W        W 2998  28.813  25.935   4.777
 2134W        W 2999  28.604  27.254   6.078
 2135W        W 3000  25.587  26.575   6.116
 2136W        W 3001  28.447  26.370   5.134
 2137W        W 3002  28.858  26.521   6.911
 2138W        W 3003  27.743  28.220   5.129
 2139W        W 3004  26.999  28.811   4.742
 2140W        W 3005  26.114  25.991   4.000
 2141W        W 3006  27.218  25.645   5.810
 2142W        W 3007  26.246  28.765   3.658
 2143W        W 3008  26.620  27.231   4.409
 2144W        W 3009  27.274  27.860   6.722
 2145W        W 3010  27.104  26.218   4.712
 2146W        W 3011  28.460  25.815   5.140
 2147W        W 3012  28.180  29.097   5.468
 2148W        W 3013  27.592  28.745   5.808
 2149W        W 3014  26.988  27.782   5.769
 2150W        W 3015  28.758  28.505   5.895
 2151W        W 3016  26.452  26.008   4.664
 2152W        W 3017  26.974  28.305   5.624
 2153W        W 3018  26.457  26.236   3.689
 2154W        W 3019  27.258  26.845   6.083
 2155W        W 3020  28.106  25.711   5.953
 2156W        W 3021  25.526  27.554   5.838
 2157W        W 3022  27.230  27.372   3.996
 2158W        W 3023  26.498  25.687   3.766
 2159W        W 3024  27.236  26.768   4.817
 2160W        W 3025  28.206  25.744   6.516
 2161W        W 3026  26.794  27.756   6.625
 2162W        W 3027  27.598  27.538   6.842
 2163W        W 3028  28.215  27.568   6.735
 2164W        W 3029  27.499  25.708   7.240
 2165W        W 3030  26.721  26.324   5.633
 2166W        W 3031  26.147  26.280   5.031
 2167W        W 3032  25.933  28.992   4.707
 2168W        W 3033  27.265  28.322   6.832
 2169W        W 3034  26.300  27.807   4.191
 2170W        W 3035  27.980  27.192   5.412
 2171W        W 3036  28.260  26.991   5.811
 2172W        W 3037  27.465  27.665   5.745
 2173W        W 3038  27.935  28.039   3.877
 2174W        W 3039  27.607  26.060   5.205
 2175W        W 3040  29.086  26.338   4.473
 2176W        W 3041  25.580  28.927   6.504
 2177W        W 3042  25.997  28.153   6.036
 2178W        W 3043  25.564  28.999   4.268
 2179W        W 3044  27.463  26.269   6.074
 2180W        W 3045  26.826  28.292   3.923
 2181W        W 3046  28.731  28.674   4.109
 2182W        W 3047  27.706  27.327   4.123
 2183W        W 3048  26.549  26.518   4.640
 2184W        W 3049  27.381  26.428   3.692
 2185W        W 3050  27.965  27.993   6.870
 2186W        W 3051  28.318  25.899   4.487
 2187W        W 3052  25.648  25.747   3.935
 2188W        W 3053  26.934  28.066   6.225
 2189W        W 3054  26.733  27.982   5.317
 2190W        W 3055  26.475  27.934   3.715
 2191W        W 3056  25.716  28.175   4.483
 2192W        W 3057  26.220  27.245   6.925
 2193W        W 3058  26.924  25.805   7.111
 2194W        W 3059  27.633  25.947   6.467
 2195W        W 3060  26.828  25.715   4.748
 2196W        W 3061  27.887  25.792   4.253
 2197W        W 3062  25.832  25.724   5.830
 2198W        W 3063  25.880  26.687   5.200
 2199W        W 3064  28.569  25.795   5.606
 2200W        W 3065  25.991  26.293   4.420
 2201W        W 3066  28.562  25.981   6.036
 2202W        W 3067  28.958  27.184   3.721
 2203W        W 3068  26.250  25.942   5.540
 2204W        W 3069  27.364  26.514   6.480
 2205W        W 3070  25.512  26.204   3.958
 2206W        W 3071  26.298  27.593   6.519
 2207W        W 3072  27.656  26.991   5.698
 2208W        W 3073  27.523  29.070   3.994
 2209W        W 3074  25.669  27.577   3.691
 2210W        W 3075  26.404  27.988   6.817
 2211W        W 3076  25.925  27.155   6.448
 2212W        W 3077  26.916  27.260   6.242
 2213W        W 3078  28.684  25.619   6.504
 2214W        W 3079  29.082  27.229   6.495
 2215W        W 3080  29.070  27.429   4.181
 2216W        W 3081  27.933  27.761   4.280
 2217W        W 3082  28.407  29.061   3.975
 2218W        W 3083  27.584  27.051   7.117
 2219W        W 3084  25.914  28.018   7.157
 2220W        W 3085  29.120  25.940   7.109
 2221W        W 3086  28.838  26.868   5.730
 2222W        W 3087  27.146  28.998   7.207
 2223W        W 3088  27.001  25.627   3.934
 2224W        W 3089  28.540  28.226   3.877
 2225W        W 3090  26.309  26.319   6.763
 2226W        W 3091  26.743  28.313   6.625
 2227W        W 3092  28.869  26.304   6.423
 2228W        W 3093  28.080  28.963   4.391
 2229W        W 3094  28.319  27.582   5.758
 2230W        W 3095  26.569  25.998   6.425
 2231W        W 3096  27.038  27.067   7.182
 2232W        W 3097  26.541  28.246   4.376
 2233W        W 3098  28.296  27.744   4.640
 2234W        W 3099  26.064  26.370   6.364
 2235W        W 3100  27.393  28.432   4.828
 2236W        W 3101  29.143  26.992   5.009
 2237W        W 3102  27.365  25.625   6.728
 2238W        W 3103  28.145  28.330   5.807
 2239W        W 3104  28.448  28.674   5.515
 2240W        W 3105  27.667  28.476   3.943
 2241W        W 3106  25.677  28.368   6.785
 2242W        W 3107  26.420  26.360   6.023
 2243W        W 3108  26.390  25.708   5.133
 2244W        W 3109  28.011  26.550   5.825
 2245W        W 3110  26.809  27.721   4.025
 2246W        W 3111  28.807  27.663   5.524
 2247W        W 3112  26.134  28.421   6.947
 2248W        W 3113  28.521  29.103   4.744
 2249W        W 3114  26.620  26.123   5.189
 2250W        W 3115  26.389  27.616   5.279
 2251W        W 3116  26.702  29.027   6.029
 2252W        W 3117  28.769  29.123   7.061
 2253W        W 3118  27.928  27.311   5.994
 2254W        W 3119  25.777  27.109   3.909
 2255W        W 3120  28.911  28.767   4.606
 2256W        W 3121  28.748  26.091   4.225
 2257W        W 3122  26.887  25.610   6.628
 2258W        W 3123  28.593  28.412   5.086
 2259W        W 3124  28.622  26.968   4.991
 2260W        W 3125  26.739  26.641   5.207
 2261W        W 3126  26.984  26.903   6.531
 2262W        W 3127  28.095  28.056   6.394
 2263W        W 3128  26.745  26.510   6.506
 2264W        W 3129  26.724  28.976   5.122
 2265W        W 3130  26.041  28.935   6.756
 2266W        W 3131  26.153  28.296   3.886
 2267W        W 3132  28.670  28.054   4.696
 2268W        W 3133  26.274  26.846   6.582
 2269W        W 3134  29.047  26.776   4.063
 2270W        W 3135  26.792  27.833   4.534
 2271W        W 3136  27.891  27.215   6.615
 2272W        W 3137  27.782  26.843   6.159
 2273W        W 3138  26.342  27.215   6.188
 2274W        W 3139  28.552  29.103   6.017
 2275W        W 3140  28.343  25.737   7.011
 2276W        W 3141  26.007  25.887   6.598
 2277W        W 3142  26.346  26.910   5.651
 2278W        W 3143  26.715  26.724   3.773
 2279W        W 3144  25.518  28.483   6.318
 2280W        W 3145  27.103  27.192   5.761
 2281W        W 3146  26.926  26.217   3.866
 2282W        W 3147  26.061  27.033   4.647
 2283W        W 3148  25.832  28.885   6.084
 2284W        W 3149  28.627  27.111   4.192
 2285W        W 3150  28.722  26.027   6.878
 2286W        W 3151  28.158  28.236   4.841
 2287W        W 3152  25.756  27.160   7.018
 2288W        W 3153  28.722  25.624   4.314
 2289W        W 3154  28.242  28.099   4.325
 2290W        W 3155  27.144  27.157   4.410
 2291W        W 3156  28.331  25.961   3.933
 2292W        W 3157  28.396  26.568   6.119
 2293W        W 3158  26.105  27.161   5.326
 2294W        W 3159  26.399  28.100   4.975
 2295W        W 3160  28.162  26.720   4.940
 2296W        W 3161  27.185  26.099   5.636
 2297W        W 3162  29.147  28.010   6.147
 2298W        W 3163  29.065  25.997   5.708
 2299W        W 3164  25.604  28.827   5.084
 2300W        W 3165  26.113  28.014   4.620
 2301W        W 3166  26.028  25.631   7.173
 2302W        W 3167  27.147  28.484   7.275
 2303W        W 3168  28.902  27.452   5.065
 2304W        W 3169  28.256  27.629   3.945
 2305W        W 3170  27.551  29.150   6.157
 2306W        W 3171  28.408  27.872   7.194
 2307W        W 3172  27.223  25.582   4.474
 2308W        W 3173  27.936  26.451   5.333
 2309W        W 3174  25.622  28.038   5.665
 2310W        W 3175  26.875  26.000   4.306
 2311W        W 3176  26.679  27.484   7.155
 2312W        W 3177  27.673  26.465   4.869
 2313W        W 3178  27.878  27.875   5.991
 2314W        W 3179  26.032  28.480   6.426
 2315W        W 3180  26.623  28.463   7.149
 2316W        W 3181  26.474  26.260   4.163
 2317W        W 3182  27.991  26.402   4.488
 2318W        W 3183  27.949  28.510   6.725
 2319W        W 3184  26.634  27.102   5.324
 2320W        W 3185  26.289  28.800   6.189
 2321W        W 3186  29.034  28.917   3.790
 2322W        W 3187  25.897  27.589   6.786
 2323W        W 3188  27.892  27.851   5.474
 2324W        W 3189  26.328  27.500   4.716
 2325W        W 3190  26.699  28.507   6.111
 2326W        W 3191  27.077  25.926   5.152
 2327W        W 3192  25.688  27.910   4.082
 2328W        W 3193  27.207  26.861   3.952
 2329W        W 3194  25.853  27.410   4.971
 2330W        W 3195  27.143  26.052   6.435
 2331W        W 3196  28.815  25.761   3.862
 2332W        W 3197  28.908  27.507   6.961
 2333W        W 3198  27.562  28.764   7.113
 2334W        W 3199  29.120  27.858   6.635
 2335W        W 3200  28.528  28.656   7.246
 2336W        W 3201  26.267  29.112   5.724
 2337W        W 3202  29.126  27.734   4.598
 2338W        W 3203  27.656  27.001   5.111
 2339W        W 3204  27.423  25.613   5.001
 2340W        W 3205  26.482  28.597   4.838
 2341W        W 3206  26.981  26.338   6.063
 2342W        W 3207  26.681  25.707   5.532
 2343W        W 3208  25.744  28.529   4.080
 2344W        W 3209  27.560  27.893   4.798
 2345W        W 3210  26.435  28.688   6.677
 2346W        W 3211  25.912  27.511   4.373
 2347W        W 3212  25.797  26.054   5.372
 2348W        W 3213  27.345  28.019   5.429
 2349W        W 3214  25.597  25.873   4.449
 2350W        W 3215  28.261  27.079   6.376
 2351W        W 3216  28.138  26.465   3.948
 2352W        W 3217  28.655  28.137   5.596
 2353W        W 3218  27.316  28.621   5.427
 2354W        W 3219  26.728  28.725   4.338
 2355W        W 3220  28.010  25.628   3.768
 2356W        W 3221  25.810  28.888   5.509
 2357W        W 3222  28.007  26.646   7.144
 2358W        W 3223  25.990  26.176   7.143
 2359W        W 3224  25.721  26.776   4.476
 2360W        W 3225  26.412  26.765   4.201
 2361W        W 3226  28.175  27.092   7.018
 2362W        W 3227  26.518  27.373   5.727
 2363W        W 3228  27.992  25.659   4.847
 2364W        W 3229  27.123  29.090   5.350
 2365W        W 3230  28.337  28.552   6.287
 2366W        W 3231  27.921  28.701   5.398
 2367W        W 3232  27.940  27.681   4.992
 2368W        W 3233  27.402  25.906   4.063
 2369W        W 3234  29.083  25.534   4.785
 2370W        W 3235  26.771  27.169   3.948
 2371W        W 3236  28.937  26.506   4.938
 2372W        W 3237  27.629  27.676   3.815
 2373W        W 3238  28.565  27.876   6.563
 2374W        W 3239  28.219  28.577   4.030
 2375W        W 3240  26.834  26.252   6.936
 2376W        W 3241  26.654  26.836   6.177
 2377W        W 3242  28.746  28.331   6.454
 2378W        W 3243  27.846  26.281   6.831
 2379W        W 3244  25.690  26.752   6.608
 2380W        W 3245  27.450  27.229   6.334
 2381W        W 3246  25.807  27.987   4.991
 2382W        W 3247  25.954  27.284   5.881
 2383W        W 3248  28.271  27.570   6.231
 2384W        W 3249  28.043  28.950   7.042
 2385W        W 3250  27.939  26.689   6.595
 2386W        W 3251  28.216  28.743   5.000
 2387W        W 3252  27.218  28.463   6.323
 2388W        W 3253  26.703  28.818   5.592
 2389W        W 3254  28.508  27.989   6.011
 2390W        W 3255  27.558  28.061   7.148
 2391W        W 3256  26.163  28.014   5.487
 2392W        W 3257  28.509  27.773   5.132
 2393W        W 3258  28.150  28.839   5.883
 2394W        W 3259  26.128  28.568   5.753
 2395W        W 3260  27.149  26.620   6.963
 2396W        W 3261  27.600  28.786   4.474
 2397W        W 3262  26.908  28.041   7.112
 2398W        W 3263  27.034  28.279   4.489
 2399W        W 3264  26.255  27.019   3.748
 2400W        W 3265  25.594  29.105  10.648
 2401W        W 3266  25.970  27.998  10.171
 2402W        W 3267  28.675  27.728   7.941
 2403W        W 3268  28.805  28.813   9.968
 2404W        W 3269  26.723  28.804   7.494
 2405W        W 3270  26.806  26.956   8.477
 2406W        W 3271  26.321  26.804   8.641
 2407W        W 3272  27.312  27.619   8.075
 2408W        W 3273  26.987  28.711  10.430
 2409W        W 3274  25.636  26.272  10.393
 2410W        W 3275  26.398  25.552  10.195
 2411W        W 3276  28.092  25.940   9.082
 2412W        W 3277  27.741  26.811   7.652
 2413W        W 3278  28.311  26.245  10.743
 2414W        W 3279  25.677  26.037   9.868
 2415W        W 3280  25.776  28.656  10.889
 2416W        W 3281  27.298  28.046   7.621
 2417W        W 3282  25.730  26.829   9.314
 2418W        W 3283  26.623  26.720  10.551
 2419W        W 3284  29.082  26.579   9.050
 2420W        W 3285  28.846  27.622   9.909
 2421W        W 3286  27.154  26.955   8.936
 2422W        W 3287  27.700  28.294   9.305
 2423W        W 3288  26.200  27.728   9.537
 2424W        W 3289  25.559  27.256   9.108
 2425W        W 3290  26.595  27.228  10.300
 2426W        W 3291  28.866  27.011  10.554
 2427W        W 3292  26.482  28.455   8.999
 2428W        W 3293  27.603  28.144  10.133
 2429W        W 3294  26.823  26.784   9.358
 2430W        W 3295  27.115  27.568   9.001
 2431W        W 3296  28.112  28.341  10.849
 2432W        W 3297  27.191  27.661  10.859
 2433W        W 3298  27.172  27.377  10.337
 2434W        W 3299  25.581  26.768  10.859
 2435W        W 3300  28.413  28.303  10.458
 2436W        W 3301  25.994  25.885   8.456
 2437W        W 3302  26.521  28.143   9.455
 2438W        W 3303  28.984  27.926   8.745
 2439W        W 3304  28.397  26.326   9.312
 2440W        W 3305  28.682  26.279   7.407
 2441W        W 3306  29.147  27.080   9.713
 2442W        W 3307  27.114  28.787   9.466
 2443W        W 3308  28.888  28.253   7.904
 2444W        W 3309  26.017  29.039   7.658
 2445W        W 3310  26.410  29.085   8.334
 2446W        W 3311  26.207  25.839   9.760
 2447W        W 3312  28.830  26.857  10.035
 2448W        W 3313  28.235  27.279   8.494
 2449W        W 3314  28.201  26.967   7.521
 2450W        W 3315  27.409  28.111   9.661
 2451W        W 3316  27.215  26.441   8.860
 2452W        W 3317  27.815  28.528   9.854
 2453W        W 3318  28.686  27.319   8.276
 2454W        W 3319  27.588  25.977   8.292
 2455W        W 3320  26.245  28.671   7.975
 2456W        W 3321  25.616  26.170   8.574
 2457W        W 3322  28.402  26.777   9.048
 2458W        W 3323  25.860  28.394   8.963
 2459W        W 3324  27.201  28.744   7.833
 2460W        W 3325  28.593  26.770   7.297
 2461W        W 3326  25.616  28.528   9.461
 2462W        W 3327  26.407  28.100   9.941
 2463W        W 3328  26.780  27.460   8.560
 2464W        W 3329  26.802  25.865   9.653
 2465W        W 3330  29.031  25.627   8.950
 2466W        W 3331  26.250  27.499   7.418
 2467W        W 3332  25.905  26.532   7.597
 2468W        W 3333  25.967  28.488   8.391
 2469W        W 3334  27.098  27.971   8.639
 2470W        W 3335  28.430  28.830  10.353
 2471W        W 3336  27.356  26.472   8.037
 2472W        W 3337  28.739  28.870   8.809
 2473W        W 3338  28.416  26.723  10.407
 2474W        W 3339  29.129  28.379   8.541
 2475W        W 3340  27.756  27.671  10.025
 2476W        W 3341  25.522  27.222   8.231
 2477W        W 3342  26.633  27.637   9.804
 2478W        W 3343  27.837  26.901   8.182
 2479W        W 3344  27.714  27.391   8.286
 2480W        W 3345  26.057  26.811   9.760
 2481W        W 3346  26.042  26.687  10.682
 2482W        W 3347  25.932  25.604   8.841
 2483W        W 3348  27.700  25.951   9.402
 2484W        W 3349  27.348  26.136  10.565
 2485W        W 3350  27.703  26.285   7.743
 2486W        W 3351  28.886  28.678  10.497
 2487W        W 3352  27.853  25.759  10.536
 2488W        W 3353  28.872  28.060  10.658
 2489W        W 3354  28.302  26.227  10.254
 2490W        W 3355  28.102  26.165   8.524
 2491W        W 3356  28.495  27.299  10.928
 2492W        W 3357  26.235  28.875   8.914
 2493W        W 3358  26.893  26.592   7.900
 2494W        W 3359  26.462  25.876  10.564
 2495W        W 3360  28.514  26.360   8.245
 2496W        W 3361  28.881  26.842   8.190
 2497W        W 3362  26.624  29.059  10.661
 2498W        W 3363  26.550  25.595   7.896
 2499W        W 3364  28.871  26.129   8.931
 2500W        W 3365  29.021  28.378   7.376
 2501W        W 3366  25.928  27.581   9.078
 2502W        W 3367  27.845  26.168   7.308
 2503W        W 3368  28.979  28.500   9.028
 2504W        W 3369  29.018  25.694   9.778
 2505W        W 3370  27.463  26.906  10.332
 2506W        W 3371  27.556  28.245   8.035
 2507W        W 3372  27.956  27.539  10.775
 2508W        W 3373  27.630  25.516   9.084
 2509W        W 3374  26.242  26.419   9.147
 2510W        W 3375  25.796  27.619   9.921
 2511W        W 3376  27.655  28.812   8.627
 2512W        W 3377  28.849  26.409   9.499
 2513W        W 3378  27.486  28.756  10.266
 2514W        W 3379  28.829  27.815   7.471
 2515W        W 3380  27.264  27.298   8.532
 2516W        W 3381  29.116  25.809  10.273
 2517W        W 3382  27.265  27.644   9.867
 2518W        W 3383  27.482  26.530   9.312
 2519W        W 3384  28.334  26.828   8.150
 2520W        W 3385  28.621  26.561   7.792
 2521W        W 3386  28.430  28.601   8.181
 2522W        W 3387  28.264  28.204   8.977
 2523W        W 3388  28.160  27.283   7.955
 2524W        W 3389  27.593  27.493   8.941
 2525W        W 3390  28.474  27.281   9.008
 2526W        W 3391  25.849  26.296   9.432
 2527W        W 3392  28.627  27.348  10.259
 2528W        W 3393  28.978  28.966   9.405
 2529W        W 3394  26.908  28.410   8.807
 2530W        W 3395  27.915  28.943  10.131
 2531W        W 3396  27.909  26.273   9.895
 2532W        W 3397  27.116  28.981   9.956
 2533W        W 3398  28.813  25.935   8.422
 2534W        W 3399  28.604  27.254   9.723
 2535W        W 3400  25.587  26.575   9.761
 2536W        W 3401  28.447  26.370   8.779
 2537W        W 3402  28.858  26.521  10.556
 2538W        W 3403  27.743  28.220   8.774
 2539W        W 3404  26.999  28.811   8.387
 2540W        W 3405  26.114  25.991   7.645
 2541W        W 3406  27.218  25.645   9.455
 2542W        W 3407  26.246  28.765   7.303
 2543W        W 3408  26.620  27.231   8.054
 2544W        W 3409  27.274  27.860  10.367
 2545W        W 3410  27.104  26.218   8.357
 2546W        W 3411  28.460  25.815   8.785
 2547W        W 3412  28.180  29.097   9.113
 2548W        W 3413  27.592  28.745   9.453
 2549W        W 3414  26.988  27.782   9.414
 2550W        W 3415  28.758  28.505   9.540
 2551W        W 3416  26.452  26.008   8.309
 2552W        W 3417  26.974  28.305   9.269
 2553W        W 3418  26.457  26.236   7.334
 2554W        W 3419  27.258  26.845   9.728
 2555W        W 3420  28.106  25.711   9.598
 2556W        W 3421  25.526  27.554   9.483
 2557W        W 3422  27.230  27.372   7.641
 2558W        W 3423  26.498  25.687   7.411
 2559W        W 3424  27.236  26.768   8.462
 2560W        W 3425  28.206  25.744  10.161
 2561W        W 3426  26.794  27.756  10.270
 2562W        W 3427  27.598  27.538  10.487
 2563W        W 3428  28.215  27.568  10.380
 2564W        W 3429  27.499  25.708  10.885
 2565W        W 3430  26.721  26.324   9.278
 2566W        W 3431  26.147  26.280   8.676
 2567W        W 3432  25.933  28.992   8.352
 2568W        W 3433  27.265  28.322  10.477
 2569W        W 3434  26.300  27.807   7.836
 2570W        W 3435  27.980  27.192   9.057
 2571W        W 3436  28.260  26.991   9.456
 2572W        W 3437  27.465  27.665   9.390
 2573W        W 3438  27.935  28.039   7.522
 2574W        W 3439  27.607  26.060   8.850
 2575W        W 3440  29.086  26.338   8.118
 2576W        W 3441  25.580  28.927  10.149
 2577W        W 3442  25.997  28.153   9.681
 2578W        W 3443  25.564  28.999   7.913
 2579W        W 3444  27.463  26.269   9.719
 2580W        W 3445  26.826  28.292   7.568
 2581W        W 3446  28.731  28.674   7.754
 2582W        W 3447  27.706  27.327   7.768
 2583W        W 3448  26.549  26.518   8.285
 2584W        W 3449  27.381  26.428   7.337
 2585W        W 3450  27.965  27.993  10.515
 2586W        W 3451  28.318  25.899   8.132
 2587W        W 3452  25.648  25.747   7.580
 2588W        W 3453  26.934  28.066   9.870
 2589W        W 3454  26.733  27.982   8.962
 2590W        W 3455  26.475  27.934   7.360
 2591W        W 3456  25.716  28.175   8.128
 2592W        W 3457  26.220  27.245  10.570
 2593W        W 3458  26.924  25.805  10.756
 2594W        W 3459  27.633  25.947  10.112
 2595W        W 3460  26.828  25.715   8.393
 2596W        W 3461  27.887  25.792   7.898
 2597W        W 3462  25.832  25.724   9.475
 2598W        W 3463  25.880  26.687   8.845
 2599W        W 3464  28.569  25.795   9.251
 2600W        W 3465  25.991  26.293   8.065
 2601W        W 3466  28.562  25.981   9.681
 2602W        W 3467  28.958  27.184   7.366
 2603W        W 3468  26.250  25.942   9.185
 2604W        W 3469  27.364  26.514  10.125
 2605W        W 3470  25.512  26.204   7.603
 2606W        W 3471  26.298  27.593  10.164
 2607W        W 3472  27.656  26.991   9.343
 2608W        W 3473  27.523  29.070   7.639
 2609W        W 3474  25.669  27.577   7.336
 2610W        W 3475  26.404  27.988  10.462
 2611W        W 3476  25.925  27.155  10.093
 2612W        W 3477  26.916  27.260   9.887
 2613W        W 3478  28.684  25.619  10.149
 2614W        W 3479  29.082  27.229  10.140
 2615W        W 3480  29.070  27.429   7.826
 2616W        W 3481  27.933  27.761   7.925
 2617W        W 3482  28.407  29.061   7.620
 2618W        W 3483  27.584  27.051  10.762
 2619W        W 3484  25.914  28.018  10.802
 2620W        W 3485  29.120  25.940  10.754
 2621W        W 3486  28.838  26.868   9.375
 2622W        W 3487  27.146  28.998  10.852
 2623W        W 3488  27.001  25.627   7.579
 2624W        W 3489  28.540  28.226   7.522
 2625W        W 3490  26.309  26.319  10.408
 2626W        W 3491  26.743  28.313  10.270
 2627W        W 3492  28.869  26.304  10.068
 2628W        W 3493  28.080  28.963   8.036
 2629W        W 3494  28.319  27.582   9.403
 2630W        W 3495  26.569  25.998  10.070
 2631W        W 3496  27.038  27.067  10.827
 2632W        W 3497  26.541  28.246   8.021
 2633W        W 3498  28.296  27.744   8.285
 2634W        W 3499  26.064  26.370  10.009
 2635W        W 3500  27.393  28.432   8.473
 2636W        W 3501  29.143  26.992   8.654
 2637W        W 3502  27.365  25.625  10.373
 2638W        W 3503  28.145  28.330   9.452
 2639W        W 3504  28.448  28.674   9.160
 2640W        W 3505  27.667  28.476   7.588
 2641W        W 3506  25.677  28.368  10.430
 2642W        W 3507  26.420  26.360   9.668
 2643W        W 3508  26.390  25.708   8.778
 2644W        W 3509  28.011  26.550   9.470
 2645W        W 3510  26.809  27.721   7.670
 2646W        W 3511  28.807  27.663   9.169
 2647W        W 3512  26.134  28.421  10.592
 2648W        W 3513  28.521  29.103   8.389
 2649W        W 3514  26.620  26.123   8.834
 2650W        W 3515  26.389  27.616   8.924
 2651W        W 3516  26.702  29.027   9.674
 2652W        W 3517  28.769  29.123  10.706
 2653W        W 3518  27.928  27.311   9.639
 2654W        W 3519  25.777  27.109   7.554
 2655W        W 3520  28.911  28.767   8.251
 2656W        W 3521  28.748  26.091   7.870
 2657W        W 3522  26.887  25.610  10.273
 2658W        W 3523  28.593  28.412   8.731
 2659W        W 3524  28.622  26.968   8.636
 2660W        W 3525  26.739  26.641   8.852
 2661W        W 3526  26.984  26.903  10.176
 2662W        W 3527  28.095  28.056  10.039
 2663W        W 3528  26.745  26.510  10.151
 2664W        W 3529  26.724  28.976   8.767
 2665W        W 3530  26.041  28.935  10.401
 2666W        W 3531  26.153  28.296   7.531
 2667W        W 3532  28.670  28.054   8.341
 2668W        W 3533  26.274  26.846  10.227
 2669W        W 3534  29.047  26.776   7.708
 2670W        W 3535  26.792  27.833   8.179
 2671W        W 3536  27.891  27.215  10.260
 2672W        W 3537  27.782  26.843   9.804
 2673W        W 3538  26.342  27.215   9.833
 2674W        W 3539  28.552  29.103   9.662
 2675W        W 3540  28.343  25.737  10.656
 2676W        W 3541  26.007  25.887  10.243
 2677W        W 3542  26.346  26.910   9.296
 2678W        W 3543  26.715  26.724   7.418
 2679W        W 3544  25.518  28.483   9.963
 2680W        W 3545  27.103  27.192   9.406
 2681W        W 3546  26.926  26.217   7.511
 2682W        W 3547  26.061  27.033   8.292
 2683W        W 3548  25.832  28.885   9.729
 2684W        W 3549  28.627  27.111   7.837
 2685W        W 3550  28.722  26.027  10.523
 2686W        W 3551  28.158  28.236   8.486
 2687W        W 3552  25.756  27.160  10.663
 2688W        W 3553  28.722  25.624   7.959
 2689W        W 3554  28.242  28.099   7.970
 2690W        W 3555  27.144  27.157   8.055
 2691W        W 3556  28.331  25.961   7.578
 2692W        W 3557  28.396  26.568   9.764
 2693W        W 3558  26.105  27.161   8.971
 2694W        W 3559  26.399  28.100   8.620
 2695W        W 3560  28.162  26.720   8.585
 2696W        W 3561  27.185  26.099   9.281
 2697W        W 3562  29.147  28.010   9.792
 2698W        W 3563  29.065  25.997   9.353
 2699W        W 3564  25.604  28.827   8.729
 2700W        W 3565  26.113  28.014   8.265
 2701W        W 3566  26.028  25.631  10.818
 2702W        W 3567  27.147  28.484  10.920
 2703W        W 3568  28.902  27.452   8.710
 2704W        W 3569  28.256  27.629   7.590
 2705W        W 3570  27.551  29.150   9.802
 2706W        W 3571  28.408  27.872  10.839
 2707W        W 3572  27.223  25.582   8.119
 2708W        W 3573  27.936  26.451   8.978
 2709W        W 3574  25.622  28.038   9.310
 2710W        W 3575  26.875  26.000   7.951
 2711W        W 3576  26.679  27.484  10.800
 2712W        W 3577  27.673  26.465   8.514
 2713W        W 3578  27.878  27.875   9.636
 2714W        W 3579  26.032  28.480  10.071
 2715W        W 3580  26.623  28.463  10.794
 2716W        W 3581  26.474  26.260   7.808
 2717W        W 3582  27.991  26.402   8.133
 2718W        W 3583  27.949  28.510  10.370
 2719W        W 3584  26.634  27.102   8.969
 2720W        W 3585  26.289  28.800   9.834
 2721W        W 3586  29.034  28.917   7.435
 2722W        W 3587  25.897  27.589  10.431
 2723W        W 3588  27.892  27.851   9.119
 2724W        W 3589  26.328  27.500   8.361
 2725W        W 3590  26.699  28.507   9.756
 2726W        W 3591  27.077  25.926   8.797
 2727W        W 3592  25.688  27.910   7.727
 2728W        W 3593  27.207  26.861   7.597
 2729W        W 3594  25.853  27.410   8.616
 2730W        W 3595  27.143  26.052  10.080
 2731W        W 3596  28.815  25.761   7.507
 2732W        W 3597  28.908  27.507  10.606
 2733W        W 3598  27.562  28.764  10.758
 2734W        W 3599  29.120  27.858  10.280
 2735W        W 3600  28.528  28.656  10.891
 2736W        W 3601  26.267  29.112   9.369
 2737W        W 3602  29.126  27.734   8.243
 2738W        W 3603  27.656  27.001   8.756
 2739W        W 3604  27.423  25.613   8.646
 2740W        W 3605  26.482  28.597   8.483
 2741W        W 3606  26.981  26.338   9.708
 2742W        W 3607  26.681  25.707   9.177
 2743W        W 3608  25.744  28.529   7.725
 2744W        W 3609  27.560  27.893   8.443
 2745W        W 3610  26.435  28.688  10.322
 2746W        W 3611  25.912  27.511   8.018
 2747W        W 3612  25.797  26.054   9.017
 2748W        W 3613  27.345  28.019   9.074
 2749W        W 3614  25.597  25.873   8.094
 2750W        W 3615  28.261  27.079  10.021
 2751W        W 3616  28.138  26.465   7.593
 2752W        W 3617  28.655  28.137   9.241
 2753W        W 3618  27.316  28.621   9.072
 2754W        W 3619  26.728  28.725   7.983
 2755W        W 3620  28.010  25.628   7.413
 2756W        W 3621  25.810  28.888   9.154
 2757W        W 3622  28.007  26.646  10.789
 2758W        W 3623  25.990  26.176  10.788
 2759W        W 3624  25.721  26.776   8.121
 2760W        W 3625  26.412  26.765   7.846
 2761W        W 3626  28.175  27.092  10.663
 2762W        W 3627  26.518  27.373   9.372
 2763W        W 3628  27.992  25.659   8.492
 2764W        W 3629  27.123  29.090   8.995
 2765W        W 3630  28.337  28.552   9.932
 2766W        W 3631  27.921  28.701   9.043
 2767W        W 3632  27.940  27.681   8.637
 2768W        W 3633  27.402  25.906   7.708
 2769W        W 3634  29.083  25.534   8.430
 2770W        W 3635  26.771  27.169   7.593
 2771W        W 3636  28.937  26.506   8.583
 2772W        W 3637  27.629  27.676   7.460
 2773W        W 3638  28.565  27.876  10.208
 2774W        W 3639  28.219  28.577   7.675
 2775W        W 3640  26.834  26.252  10.581
 2776W        W 3641  26.654  26.836   9.822
 2777W        W 3642  28.746  28.331  10.099
 2778W        W 3643  27.846  26.281  10.476
 2779W        W 3644  25.690  26.752  10.253
 2780W        W 3645  27.450  27.229   9.979
 2781W        W 3646  25.807  27.987   8.636
 2782W        W 3647  25.954  27.284   9.526
 2783W        W 3648  28.271  27.570   9.876
 2784W        W 3649  28.043  28.950  10.687
 2785W        W 3650  27.939  26.689  10.240
 2786W        W 3651  28.216  28.743   8.645
 2787W        W 3652  27.218  28.463   9.968
 2788W        W 3653  26.703  28.818   9.237
 2789W        W 3654  28.508  27.989   9.656
 2790W        W 3655  27.558  28.061  10.793
 2791W        W 3656  26.163  28.014   9.132
 2792W        W 3657  28.509  27.773   8.777
 2793W        W 3658  28.150  28.839   9.528
 2794W        W 3659  26.128  28.568   9.398
 2795W        W 3660  27.149  26.620  10.608
 2796W        W 3661  27.600  28.786   8.119
 2797W        W 3662  26.908  28.041  10.757
 2798W        W 3663  27.034  28.279   8.134
 2799W        W 3664  26.255  27.019   7.393
 2800W        W 3665  25.594  29.105  14.292
 2801W        W 3666  25.970  27.998  13.815
 2802W        W 3667  28.675  27.728  11.585
 2803W        W 3668  28.805  28.813  13.612
 2804W        W 3669  26.723  28.804  11.138
 2805W        W 3670  26.806  26.956  12.121
 2806W        W 3671  26.321  26.804  12.285
 2807W        W 3672  27.312  27.619  11.719
 2808W        W 3673  26.987  28.711  14.074
 2809W        W 3674  25.636  26.272  14.037
 2810W        W 3675  26.398  25.552  13.839
 2811W        W 3676  28.092  25.940  12.726
 2812W        W 3677  27.741  26.811  11.296
 2813W        W 3678  28.311  26.245  14.387
 2814W        W 3679  25.677  26.037  13.512
 2815W        W 3680  25.776  28.656  14.533
 2816W        W 3681  27.298  28.046  11.265
 2817W        W 3682  25.730  26.829  12.958
 2818W        W 3683  26.623  26.720  14.195
 2819W        W 3684  29.082  26.579  12.694
 2820W        W 3685  28.846  27.622  13.553
 2821W        W 3686  27.154  26.955  12.580
 2822W        W 3687  27.700  28.294  12.949
 2823W        W 3688  26.200  27.728  13.181
 2824W        W 3689  25.559  27.256  12.752
 2825W        W 3690  26.595  27.228  13.944
 2826W        W 3691  28.866  27.011  14.198
 2827W        W 3692  26.482  28.455  12.643
 2828W        W 3693  27.603  28.144  13.777
 2829W        W 3694  26.823  26.784  13.002
 2830W        W 3695  27.115  27.568  12.645
 2831W        W 3696  28.112  28.341  14.493
 2832W        W 3697  27.191  27.661  14.503
 2833W        W 3698  27.172  27.377  13.981
 2834W        W 3699  25.581  26.768  14.503
 2835W        W 3700  28.413  28.303  14.102
 2836W        W 3701  25.994  25.885  12.100
 2837W        W 3702  26.521  28.143  13.099
 2838W        W 3703  28.984  27.926  12.389
 2839W        W 3704  28.397  26.326  12.956
 2840W        W 3705  28.682  26.279  11.051
 2841W        W 3706  29.147  27.080  13.357
 2842W        W 3707  27.114  28.787  13.110
 2843W        W 3708  28.888  28.253  11.548
 2844W        W 3709  26.017  29.039  11.302
 2845W        W 3710  26.410  29.085  11.978
 2846W        W 3711  26.207  25.839  13.404
 2847W        W 3712  28.830  26.857  13.679
 2848W        W 3713  28.235  27.279  12.138
 2849W        W 3714  28.201  26.967  11.165
 2850W        W 3715  27.409  28.111  13.305
 2851W        W 3716  27.215  26.441  12.504
 2852W        W 3717  27.815  28.528  13.498
 2853W        W 3718  28.686  27.319  11.920
 2854W        W 3719  27.588  25.977  11.936
 2855W        W 3720  26.245  28.671  11.619
 2856W        W 3721  25.616  26.170  12.218
 2857W        W 3722  28.402  26.777  12.692
 2858W        W 3723  25.860  28.394  12.607
 2859W        W 3724  27.201  28.744  11.477
 2860W        W 3725  28.593  26.770  10.941
 2861W        W 3726  25.616  28.528  13.105
 2862W        W 3727  26.407  28.100  13.585
 2863W        W 3728  26.780  27.460  12.204
 2864W        W 3729  26.802  25.865  13.297
 2865W        W 3730  29.031  25.627  12.594
 2866W        W 3731  26.250  27.499  11.062
 2867W        W 3732  25.905  26.532  11.241
 2868W        W 3733  25.967  28.488  12.035
 2869W        W 3734  27.098  27.971  12.283
 2870W        W 3735  28.430  28.830  13.997
 2871W        W 3736  27.356  26.472  11.681
 2872W        W 3737  28.739  28.870  12.453
 2873W        W 3738  28.416  26.723  14.051
 2874W        W 3739  29.129  28.379  12.185
 2875W        W 3740  27.756  27.671  13.669
 2876W        W 3741  25.522  27.222  11.875
 2877W        W 3742  26.633  27.637  13.448
 2878W        W 3743  27.837  26.901  11.826
 2879W        W 3744  27.714  27.391  11.930
 2880W        W 3745  26.057  26.811  13.404
 2881W        W 3746  26.042  26.687  14.326
 2882W        W 3747  25.932  25.604  12.485
 2883W        W 3748  27.700  25.951  13.046
 2884W        W 3749  27.348  26.136  14.209
 2885W        W 3750  27.703  26.285  11.387
 2886W        W 3751  28.886  28.678  14.141
 2887W        W 3752  27.853  25.759  14.180
 2888W        W 3753  28.872  28.060  14.302
 2889W        W 3754  28.302  26.227  13.898
 2890W        W 3755  28.102  26.165  12.168
 2891W        W 3756  28.495  27.299  14.572
 2892W        W 3757  26.235  28.875  12.558
 2893W        W 3758  26.893  26.592  11.544
 2894W        W 3759  26.462  25.876  14.208
 2895W        W 3760  28.514  26.360  11.889
 2896W        W 3761  28.881  26.842  11.834
 2897W        W 3762  26.624  29.059  14.305
 2898W        W 3763  26.550  25.595  11.540
 2899W        W 3764  28.871  26.129  12.575
 2900W        W 3765  29.021  28.378  11.020
 2901W        W 3766  25.928  27.581  12.722
 2902W        W 3767  27.845  26.168  10.952
 2903W        W 3768  28.979  28.500  12.672
 2904W        W 3769  29.018  25.694  13.422
 2905W        W 3770  27.463  26.906  13.976
 2906W        W 3771  27.556  28.245  11.679
 2907W        W 3772  27.956  27.539  14.419
 2908W        W 3773  27.630  25.516  12.728
 2909W        W 3774  26.242  26.419  12.791
 2910W        W 3775  25.796  27.619  13.565
 2911W        W 3776  27.655  28.812  12.271
 2912W        W 3777  28.849  26.409  13.143
 2913W        W 3778  27.486  28.756  13.910
 2914W        W 3779  28.829  27.815  11.115
 2915W        W 3780  27.264  27.298  12.176
 2916W        W 3781  29.116  25.809  13.917
 2917W        W 3782  27.265  27.644  13.511
 2918W        W 3783  27.482  26.530  12.956
 2919W        W 3784  28.334  26.828  11.794
 2920W        W 3785  28.621  26.561  11.436
 2921W        W 3786  28.430  28.601  11.825
 2922W        W 3787  28.264  28.204  12.621
 2923W        W 3788  28.160  27.283  11.599
 2924W        W 3789  28.474  27.281  12.652
 2925W        W 3790  25.849  26.296  13.076
 2926W        W 3791  28.627  27.348  13.903
 2927W        W 3792  28.978  28.966  13.049
 2928W        W 3793  26.908  28.410  12.451
 2929W        W 3794  27.915  28.943  13.775
 2930W        W 3795  27.909  26.273  13.539
 2931W        W 3796  27.116  28.981  13.600
 2932W        W 3797  28.813  25.935  12.066
 2933W        W 3798  28.604  27.254  13.367
 2934W        W 3799  25.587  26.575  13.405
 2935W        W 3800  28.447  26.370  12.423
 2936W        W 3801  28.858  26.521  14.200
 2937W        W 3802  27.743  28.220  12.418
 2938W        W 3803  26.999  28.811  12.031
 2939W        W 3804  26.114  25.991  11.289
 2940W        W 3805  27.218  25.645  13.099
 2941W        W 3806  26.246  28.765  10.947
 2942W        W 3807  26.620  27.231  11.698
 2943W        W 3808  27.274  27.860  14.011
 2944W        W 3809  27.104  26.218  12.001
 2945W        W 3810  28.460  25.815  12.429
 2946W        W 3811  28.180  29.097  12.757
 2947W        W 3812  27.592  28.745  13.097
 2948W        W 3813  26.988  27.782  13.058
 2949W        W 3814  28.758  28.505  13.184
 2950W        W 3815  26.452  26.008  11.953
 2951W        W 3816  26.974  28.305  12.913
 2952W        W 3817  26.457  26.236  10.978
 2953W        W 3818  27.258  26.845  13.372
 2954W        W 3819  28.106  25.711  13.242
 2955W        W 3820  25.526  27.554  13.127
 2956W        W 3821  27.230  27.372  11.285
 2957W        W 3822  26.498  25.687  11.055
 2958W        W 3823  27.236  26.768  12.106
 2959W        W 3824  28.206  25.744  13.805
 2960W        W 3825  26.794  27.756  13.914
 2961W        W 3826  27.598  27.538  14.131
 2962W        W 3827  28.215  27.568  14.024
 2963W        W 3828  27.499  25.708  14.529
 2964W        W 3829  26.721  26.324  12.922
 2965W        W 3830  26.147  26.280  12.320
 2966W        W 3831  25.933  28.992  11.996
 2967W        W 3832  27.265  28.322  14.121
 2968W        W 3833  26.300  27.807  11.480
 2969W        W 3834  27.980  27.192  12.701
 2970W        W 3835  28.260  26.991  13.100
 2971W        W 3836  27.465  27.665  13.034
 2972W        W 3837  27.935  28.039  11.166
 2973W        W 3838  27.607  26.060  12.494
 2974W        W 3839  29.086  26.338  11.762
 2975W        W 3840  25.580  28.927  13.793
 2976W        W 3841  25.997  28.153  13.325
 2977W        W 3842  25.564  28.999  11.557
 2978W        W 3843  27.463  26.269  13.363
 2979W        W 3844  26.826  28.292  11.212
 2980W        W 3845  28.731  28.674  11.398
 2981W        W 3846  27.706  27.327  11.412
 2982W        W 3847  26.549  26.518  11.929
 2983W        W 3848  27.381  26.428  10.981
 2984W        W 3849  27.965  27.993  14.159
 2985W        W 3850  28.318  25.899  11.776
 2986W        W 3851  25.648  25.747  11.224
 2987W        W 3852  26.934  28.066  13.514
 2988W        W 3853  26.733  27.982  12.606
 2989W        W 3854  26.475  27.934  11.004
 2990W        W 3855  25.716  28.175  11.772
 2991W        W 3856  26.220  27.245  14.214
 2992W        W 3857  26.924  25.805  14.400
 2993W        W 3858  27.633  25.947  13.756
 2994W        W 3859  26.828  25.715  12.037
 2995W        W 3860  27.887  25.792  11.542
 2996W        W 3861  25.832  25.724  13.119
 2997W        W 3862  25.880  26.687  12.489
 2998W        W 3863  28.569  25.795  12.895
 2999W        W 3864  25.991  26.293  11.709
 3000W        W 3865  28.562  25.981  13.325
 3001W        W 3866  28.958  27.184  11.010
 3002W        W 3867  26.250  25.942  12.829
 3003W        W 3868  27.364  26.514  13.769
 3004W        W 3869  25.512  26.204  11.247
 3005W        W 3870  26.298  27.593  13.808
 3006W        W 3871  27.656  26.991  12.987
 3007W        W 3872  27.523  29.070  11.283
 3008W        W 3873  25.669  27.577  10.980
 3009W        W 3874  26.404  27.988  14.106
 3010W        W 3875  25.925  27.155  13.737
 3011W        W 3876  26.916  27.260  13.531
 3012W        W 3877  28.684  25.619  13.793
 3013W        W 3878  29.082  27.229  13.784
 3014W        W 3879  29.070  27.429  11.470
 3015W        W 3880  27.933  27.761  11.569
 3016W        W 3881  28.407  29.061  11.264
 3017W        W 3882  27.584  27.051  14.406
 3018W        W 3883  25.914  28.018  14.446
 3019W        W 3884  29.120  25.940  14.398
 3020W        W 3885  28.838  26.868  13.019
 3021W        W 3886  27.146  28.998  14.496
 3022W        W 3887  27.001  25.627  11.223
 3023W        W 3888  28.540  28.226  11.166
 3024W        W 3889  26.309  26.319  14.052
 3025W        W 3890  26.743  28.313  13.914
 3026W        W 3891  28.869  26.304  13.712
 3027W        W 3892  28.080  28.963  11.680
 3028W        W 3893  28.319  27.582  13.047
 3029W        W 3894  26.569  25.998  13.714
 3030W        W 3895  27.038  27.067  14.471
 3031W        W 3896  26.541  28.246  11.665
 3032W        W 3897  28.296  27.744  11.929
 3033W        W 3898  26.064  26.370  13.653
 3034W        W 3899  27.393  28.432  12.117
 3035W        W 3900  29.143  26.992  12.298
 3036W        W 3901  27.365  25.625  14.017
 3037W        W 3902  28.145  28.330  13.096
 3038W        W 3903  28.448  28.674  12.804
 3039W        W 3904  27.667  28.476  11.232
 3040W        W 3905  25.677  28.368  14.074
 3041W        W 3906  26.420  26.360  13.312
 3042W        W 3907  26.390  25.708  12.422
 3043W        W 3908  28.011  26.550  13.114
 3044W        W 3909  26.809  27.721  11.314
 3045W        W 3910  28.807  27.663  12.813
 3046W        W 3911  26.134  28.421  14.236
 3047W        W 3912  28.521  29.103  12.033
 3048W        W 3913  26.620  26.123  12.478
 3049W        W 3914  26.389  27.616  12.568
 3050W        W 3915  26.702  29.027  13.318
 3051W        W 3916  28.769  29.123  14.350
 3052W        W 3917  27.928  27.311  13.283
 3053W        W 3918  25.777  27.109  11.198
 3054W        W 3919  28.911  28.767  11.895
 3055W        W 3920  28.748  26.091  11.514
 3056W        W 3921  26.887  25.610  13.917
 3057W        W 3922  28.593  28.412  12.375
 3058W        W 3923  28.622  26.968  12.280
 3059W        W 3924  26.739  26.641  12.496
 3060W        W 3925  26.984  26.903  13.820
 3061W        W 3926  28.095  28.056  13.683
 3062W        W 3927  26.745  26.510  13.795
 3063W        W 3928  26.724  28.976  12.411
 3064W        W 3929  26.041  28.935  14.045
 3065W        W 3930  26.153  28.296  11.175
 3066W        W 3931  28.670  28.054  11.985
 3067W        W 3932  26.274  26.846  13.871
 3068W        W 3933  29.047  26.776  11.352
 3069W        W 3934  26.792  27.833  11.823
 3070W        W 3935  27.891  27.215  13.904
 3071W        W 3936  27.782  26.843  13.448
 3072W        W 3937  26.342  27.215  13.477
 3073W        W 3938  28.552  29.103  13.306
 3074W        W 3939  28.343  25.737  14.300
 3075W        W 3940  26.007  25.887  13.887
 3076W        W 3941  26.346  26.910  12.940
 3077W        W 3942  26.715  26.724  11.062
 3078W        W 3943  25.518  28.483  13.607
 3079W        W 3944  27.103  27.192  13.050
 3080W        W 3945  26.926  26.217  11.155
 3081W        W 3946  26.061  27.033  11.936
 3082W        W 3947  25.832  28.885  13.373
 3083W        W 3948  28.627  27.111  11.481
 3084W        W 3949  28.722  26.027  14.167
 3085W        W 3950  28.158  28.236  12.130
 3086W        W 3951  25.756  27.160  14.307
 3087W        W 3952  28.722  25.624  11.603
 3088W        W 3953  28.242  28.099  11.614
 3089W        W 3954  27.144  27.157  11.699
 3090W        W 3955  28.331  25.961  11.222
 3091W        W 3956  28.396  26.568  13.408
 3092W        W 3957  26.105  27.161  12.615
 3093W        W 3958  26.399  28.100  12.264
 3094W        W 3959  28.162  26.720  12.229
 3095W        W 3960  27.185  26.099  12.925
 3096W        W 3961  29.147  28.010  13.436
 3097W        W 3962  29.065  25.997  12.997
 3098W        W 3963  25.604  28.827  12.373
 3099W        W 3964  26.113  28.014  11.909
 3100W        W 3965  26.028  25.631  14.462
 3101W        W 3966  27.147  28.484  14.564
 3102W        W 3967  28.902  27.452  12.354
 3103W        W 3968  28.256  27.629  11.234
 3104W        W 3969  27.551  29.150  13.446
 3105W        W 3970  28.408  27.872  14.483
 3106W        W 3971  27.223  25.582  11.763
 3107W        W 3972  27.936  26.451  12.622
 3108W        W 3973  25.622  28.038  12.954
 3109W        W 3974  26.875  26.000  11.595
 3110W        W 3975  26.679  27.484  14.444
 3111W        W 3976  27.673  26.465  12.158
 3112W        W 3977  27.878  27.875  13.280
 3113W        W 3978  26.032  28.480  13.715
 3114W        W 3979  26.623  28.463  14.438
 3115W        W 3980  26.474  26.260  11.452
 3116W        W 3981  27.991  26.402  11.777
 3117W        W 3982  27.949  28.510  14.014
 3118W        W 3983  26.634  27.102  12.613
 3119W        W 3984  26.289  28.800  13.478
 3120W        W 3985  29.034  28.917  11.079
 3121W        W 3986  25.897  27.589  14.075
 3122W        W 3987  27.892  27.851  12.763
 3123W        W 3988  26.328  27.500  12.005
 3124W        W 3989  26.699  28.507  13.400
 3125W        W 3990  27.077  25.926  12.441
 3126W        W 3991  25.688  27.910  11.371
 3127W        W 3992  27.207  26.861  11.241
 3128W        W 3993  25.853  27.410  12.260
 3129W        W 3994  27.143  26.052  13.724
 3130W        W 3995  28.815  25.761  11.151
 3131W        W 3996  28.908  27.507  14.250
 3132W        W 3997  27.562  28.764  14.402
 3133W        W 3998  29.120  27.858  13.924
 3134W        W 3999  28.528  28.656  14.535
 3135W        W 4000  26.267  29.112  13.013
 3136W        W 4001  29.126  27.734  11.887
 3137W        W 4002  27.656  27.001  12.400
 3138W        W 4003  27.423  25.613  12.290
 3139W        W 4004  26.482  28.597  12.127
 3140W        W 4005  26.981  26.338  13.352
 3141W        W 4006  26.681  25.707  12.821
 3142W        W 4007  25.744  28.529  11.369
 3143W        W 4008  27.560  27.893  12.087
 3144W        W 4009  26.435  28.688  13.966
 3145W        W 4010  25.912  27.511  11.662
 3146W        W 4011  25.797  26.054  12.661
 3147W        W 4012  27.345  28.019  12.718
 3148W        W 4013  25.597  25.873  11.738
 3149W        W 4014  28.261  27.079  13.665
 3150W        W 4015  28.138  26.465  11.237
 3151W        W 4016  28.655  28.137  12.885
 3152W        W 4017  27.316  28.621  12.716
 3153W        W 4018  26.728  28.725  11.627
 3154W        W 4019  28.010  25.628  11.057
 3155W        W 4020  25.810  28.888  12.798
 3156W        W 4021  28.007  26.646  14.433
 3157W        W 4022  25.990  26.176  14.432
 3158W        W 4023  25.721  26.776  11.765
 3159W        W 4024  26.412  26.765  11.490
 3160W        W 4025  28.175  27.092  14.307
 3161W        W 4026  26.518  27.373  13.016
 3162W        W 4027  27.992  25.659  12.136
 3163W        W 4028  27.123  29.090  12.639
 3164W        W 4029  28.337  28.552  13.576
 3165W        W 4030  27.921  28.701  12.687
 3166W        W 4031  27.940  27.681  12.281
 3167W        W 4032  27.402  25.906  11.352
 3168W        W 4033  29.083  25.534  12.074
 3169W        W 4034  26.771  27.169  11.237
 3170W        W 4035  28.937  26.506  12.227
 3171W        W 4036  27.629  27.676  11.104
 3172W        W 4037  28.565  27.876  13.852
 3173W        W 4038  28.219  28.577  11.319
 3174W        W 4039  26.834  26.252  14.225
 3175W        W 4040  26.654  26.836  13.466
 3176W        W 4041  28.746  28.331  13.743
 3177W        W 4042  27.846  26.281  14.120
 3178W        W 4043  25.690  26.752  13.897
 3179W        W 4044  27.450  27.229  13.623
 3180W        W 4045  25.807  27.987  12.280
 3181W        W 4046  25.954  27.284  13.170
 3182W        W 4047  28.271  27.570  13.520
 3183W        W 4048  28.043  28.950  14.331
 3184W        W 4049  27.939  26.689  13.884
 3185W        W 4050  28.216  28.743  12.289
 3186W        W 4051  27.218  28.463  13.612
 3187W        W 4052  26.703  28.818  12.881
 3188W        W 4053  28.508  27.989  13.300
 3189W        W 4054  27.558  28.061  14.437
 3190W        W 4055  26.163  28.014  12.776
 3191W        W 4056  28.509  27.773  12.421
 3192W        W 4057  28.150  28.839  13.172
 3193W        W 4058  26.128  28.568  13.042
 3194W        W 4059  27.149  26.620  14.252
 3195W        W 4060  27.600  28.786  11.763
 3196W        W 4061  26.908  28.041  14.401
 3197W        W 4062  27.034  28.279  11.778
 3198W        W 4063  26.255  27.019  11.037
 3199W        W 4064  25.594  29.105  17.936
 3200W        W 4065  25.970  27.998  17.459
 3201W        W 4066  28.675  27.728  15.229
 3202W        W 4067  28.805  28.813  17.256
 3203W        W 4068  26.723  28.804  14.782
 3204W        W 4069  26.806  26.956  15.765
 3205W        W 4070  26.321  26.804  15.929
 3206W        W 4071  27.312  27.619  15.363
 3207W        W 4072  26.987  28.711  17.718
 3208W        W 4073  25.636  26.272  17.681
 3209W        W 4074  26.398  25.552  17.483
 3210W        W 4075  28.092  25.940  16.370
 3211W        W 4076  27.741  26.811  14.940
 3212W        W 4077  28.311  26.245  18.031
 3213W        W 4078  25.677  26.037  17.156
 3214W        W 4079  25.776  28.656  18.177
 3215W        W 4080  27.298  28.046  14.909
 3216W        W 4081  25.730  26.829  16.602
 3217W        W 4082  26.623  26.720  17.839
 3218W        W 4083  29.082  26.579  16.338
 3219W        W 4084  28.846  27.622  17.197
 3220W        W 4085  27.154  26.955  16.224
 3221W        W 4086  27.700  28.294  16.593
 3222W        W 4087  26.200  27.728  16.825
 3223W        W 4088  25.559  27.256  16.396
 3224W        W 4089  26.595  27.228  17.588
 3225W        W 4090  28.866  27.011  17.842
 3226W        W 4091  26.482  28.455  16.287
 3227W        W 4092  27.603  28.144  17.421
 3228W        W 4093  26.823  26.784  16.646
 3229W        W 4094  27.115  27.568  16.289
 3230W        W 4095  28.112  28.341  18.137
 3231W        W 4096  27.191  27.661  18.147
 3232W        W 4097  27.172  27.377  17.625
 3233W        W 4098  25.581  26.768  18.147
 3234W        W 4099  28.413  28.303  17.746
 3235W        W 4100  25.994  25.885  15.744
 3236W        W 4101  26.521  28.143  16.743
 3237W        W 4102  28.984  27.926  16.033
 3238W        W 4103  28.397  26.326  16.600
 3239W        W 4104  28.682  26.279  14.695
 3240W        W 4105  29.147  27.080  17.001
 3241W        W 4106  27.114  28.787  16.754
 3242W        W 4107  28.888  28.253  15.192
 3243W        W 4108  26.017  29.039  14.946
 3244W        W 4109  26.410  29.085  15.622
 3245W        W 4110  26.207  25.839  17.048
 3246W        W 4111  28.830  26.857  17.323
 3247W        W 4112  28.235  27.279  15.782
 3248W        W 4113  28.201  26.967  14.809
 3249W        W 4114  27.409  28.111  16.949
 3250W        W 4115  27.215  26.441  16.148
 3251W        W 4116  27.815  28.528  17.142
 3252W        W 4117  28.686  27.319  15.564
 3253W        W 4118  27.588  25.977  15.580
 3254W        W 4119  26.245  28.671  15.263
 3255W        W 4120  25.616  26.170  15.862
 3256W        W 4121  28.402  26.777  16.336
 3257W        W 4122  25.860  28.394  16.251
 3258W        W 4123  27.201  28.744  15.121
 3259W        W 4124  28.593  26.770  14.585
 3260W        W 4125  25.616  28.528  16.749
 3261W        W 4126  26.407  28.100  17.229
 3262W        W 4127  26.780  27.460  15.848
 3263W        W 4128  26.802  25.865  16.941
 3264W        W 4129  29.031  25.627  16.238
 3265W        W 4130  26.250  27.499  14.706
 3266W        W 4131  25.905  26.532  14.885
 3267W        W 4132  25.967  28.488  15.679
 3268W        W 4133  27.098  27.971  15.927
 3269W        W 4134  28.430  28.830  17.641
 3270W        W 4135  27.356  26.472  15.325
 3271W        W 4136  28.739  28.870  16.097
 3272W        W 4137  28.416  26.723  17.695
 3273W        W 4138  29.129  28.379  15.829
 3274W        W 4139  27.756  27.671  17.313
 3275W        W 4140  25.522  27.222  15.519
 3276W        W 4141  26.633  27.637  17.092
 3277W        W 4142  27.837  26.901  15.470
 3278W        W 4143  27.714  27.391  15.574
 3279W        W 4144  26.057  26.811  17.048
 3280W        W 4145  26.042  26.687  17.970
 3281W        W 4146  25.932  25.604  16.129
 3282W        W 4147  27.700  25.951  16.690
 3283W        W 4148  27.348  26.136  17.853
 3284W        W 4149  27.703  26.285  15.031
 3285W        W 4150  28.886  28.678  17.785
 3286W        W 4151  27.853  25.759  17.824
 3287W        W 4152  28.872  28.060  17.946
 3288W        W 4153  28.302  26.227  17.542
 3289W        W 4154  28.102  26.165  15.812
 3290W        W 4155  28.495  27.299  18.216
 3291W        W 4156  26.235  28.875  16.202
 3292W        W 4157  26.893  26.592  15.188
 3293W        W 4158  26.462  25.876  17.852
 3294W        W 4159  28.514  26.360  15.533
 3295W        W 4160  28.881  26.842  15.478
 3296W        W 4161  26.624  29.059  17.949
 3297W        W 4162  26.550  25.595  15.184
 3298W        W 4163  28.871  26.129  16.219
 3299W        W 4164  29.021  28.378  14.664
 3300W        W 4165  25.928  27.581  16.366
 3301W        W 4166  27.845  26.168  14.596
 3302W        W 4167  28.979  28.500  16.316
 3303W        W 4168  29.018  25.694  17.066
 3304W        W 4169  27.463  26.906  17.620
 3305W        W 4170  27.556  28.245  15.323
 3306W        W 4171  27.956  27.539  18.063
 3307W        W 4172  27.630  25.516  16.372
 3308W        W 4173  26.242  26.419  16.435
 3309W        W 4174  25.796  27.619  17.209
 3310W        W 4175  27.655  28.812  15.915
 3311W        W 4176  28.849  26.409  16.787
 3312W        W 4177  27.486  28.756  17.554
 3313W        W 4178  28.829  27.815  14.759
 3314W        W 4179  27.264  27.298  15.820
 3315W        W 4180  29.116  25.809  17.561
 3316W        W 4181  27.265  27.644  17.155
 3317W        W 4182  27.482  26.530  16.600
 3318W        W 4183  28.334  26.828  15.438
 3319W        W 4184  28.621  26.561  15.080
 3320W        W 4185  28.430  28.601  15.469
 3321W        W 4186  28.264  28.204  16.265
 3322W        W 4187  28.160  27.283  15.243
 3323W        W 4188  27.593  27.493  16.229
 3324W        W 4189  28.474  27.281  16.296
 3325W        W 4190  25.849  26.296  16.720
 3326W        W 4191  28.627  27.348  17.547
 3327W        W 4192  28.978  28.966  16.693
 3328W        W 4193  26.908  28.410  16.095
 3329W        W 4194  27.915  28.943  17.419
 3330W        W 4195  27.909  26.273  17.183
 3331W        W 4196  27.116  28.981  17.244
 3332W        W 4197  28.813  25.935  15.710
 3333W        W 4198  28.604  27.254  17.011
 3334W        W 4199  25.587  26.575  17.049
 3335W        W 4200  28.447  26.370  16.067
 3336W        W 4201  28.858  26.521  17.844
 3337W        W 4202  27.743  28.220  16.062
 3338W        W 4203  26.999  28.811  15.675
 3339W        W 4204  26.114  25.991  14.933
 3340W        W 4205  27.218  25.645  16.743
 3341W        W 4206  26.246  28.765  14.591
 3342W        W 4207  26.620  27.231  15.342
 3343W        W 4208  27.274  27.860  17.655
 3344W        W 4209  27.104  26.218  15.645
 3345W        W 4210  28.460  25.815  16.073
 3346W        W 4211  28.180  29.097  16.401
 3347W        W 4212  27.592  28.745  16.741
 3348W        W 4213  26.988  27.782  16.702
 3349W        W 4214  28.758  28.505  16.828
 3350W        W 4215  26.452  26.008  15.597
 3351W        W 4216  26.974  28.305  16.557
 3352W        W 4217  26.457  26.236  14.622
 3353W        W 4218  27.258  26.845  17.016
 3354W        W 4219  28.106  25.711  16.886
 3355W        W 4220  25.526  27.554  16.771
 3356W        W 4221  27.230  27.372  14.929
 3357W        W 4222  26.498  25.687  14.699
 3358W        W 4223  27.236  26.768  15.750
 3359W        W 4224  28.206  25.744  17.449
 3360W        W 4225  26.794  27.756  17.558
 3361W        W 4226  27.598  27.538  17.775
 3362W        W 4227  28.215  27.568  17.668
 3363W        W 4228  27.499  25.708  18.173
 3364W        W 4229  26.721  26.324  16.566
 3365W        W 4230  26.147  26.280  15.964
 3366W        W 4231  25.933  28.992  15.640
 3367W        W 4232  27.265  28.322  17.765
 3368W        W 4233  26.300  27.807  15.124
 3369W        W 4234  27.980  27.192  16.345
 3370W        W 4235  28.260  26.991  16.744
 3371W        W 4236  27.465  27.665  16.678
 3372W        W 4237  27.935  28.039  14.810
 3373W        W 4238  27.607  26.060  16.138
 3374W        W 4239  29.086  26.338  15.406
 3375W        W 4240  25.580  28.927  17.437
 3376W        W 4241  25.997  28.153  16.969
 3377W        W 4242  25.564  28.999  15.201
 3378W        W 4243  27.463  26.269  17.007
 3379W        W 4244  26.826  28.292  14.856
 3380W        W 4245  28.731  28.674  15.042
 3381W        W 4246  27.706  27.327  15.056
 3382W        W 4247  26.549  26.518  15.573
 3383W        W 4248  27.381  26.428  14.625
 3384W        W 4249  27.965  27.993  17.803
 3385W        W 4250  28.318  25.899  15.420
 3386W        W 4251  25.648  25.747  14.868
 3387W        W 4252  26.934  28.066  17.158
 3388W        W 4253  26.733  27.982  16.250
 3389W        W 4254  26.475  27.934  14.648
 3390W        W 4255  25.716  28.175  15.416
 3391W        W 4256  26.220  27.245  17.858
 3392W        W 4257  26.924  25.805  18.044
 3393W        W 4258  27.633  25.947  17.400
 3394W        W 4259  26.828  25.715  15.681
 3395W        W 4260  27.887  25.792  15.186
 3396W        W 4261  25.832  25.724  16.763
 3397W        W 4262  25.880  26.687  16.133
 3398W        W 4263  28.569  25.795  16.539
 3399W        W 4264  25.991  26.293  15.353
 3400W        W 4265  28.562  25.981  16.969
 3401W        W 4266  28.958  27.184  14.654
 3402W        W 4267  26.250  25.942  16.473
 3403W        W 4268  27.364  26.514  17.413
 3404W        W 4269  25.512  26.204  14.891
 3405W        W 4270  26.298  27.593  17.452
 3406W        W 4271  27.656  26.991  16.631
 3407W        W 4272  25.669  27.577  14.624
 3408W        W 4273  26.404  27.988  17.750
 3409W        W 4274  25.925  27.155  17.381
 3410W        W 4275  26.916  27.260  17.175
 3411W        W 4276  28.684  25.619  17.437
 3412W        W 4277  29.082  27.229  17.428
 3413W        W 4278  29.070  27.429  15.114
 3414W        W 4279  27.933  27.761  15.213
 3415W        W 4280  28.407  29.061  14.908
 3416W        W 4281  27.584  27.051  18.050
 3417W        W 4282  25.914  28.018  18.090
 3418W        W 4283  29.120  25.940  18.042
 3419W        W 4284  28.838  26.868  16.663
 3420W        W 4285  27.146  28.998  18.140
 3421W        W 4286  27.001  25.627  14.867
 3422W        W 4287  28.540  28.226  14.810
 3423W        W 4288  26.309  26.319  17.696
 3424W        W 4289  26.743  28.313  17.558
 3425W        W 4290  28.869  26.304  17.356
 3426W        W 4291  28.080  28.963  15.324
 3427W        W 4292  28.319  27.582  16.691
 3428W        W 4293  26.569  25.998  17.358
 3429W        W 4294  27.038  27.067  18.115
 3430W        W 4295  26.541  28.246  15.309
 3431W        W 4296  28.296  27.744  15.573
 3432W        W 4297  26.064  26.370  17.297
 3433W        W 4298  27.393  28.432  15.761
 3434W        W 4299  29.143  26.992  15.942
 3435W        W 4300  27.365  25.625  17.661
 3436W        W 4301  28.145  28.330  16.740
 3437W        W 4302  28.448  28.674  16.448
 3438W        W 4303  27.667  28.476  14.876
 3439W        W 4304  25.677  28.368  17.718
 3440W        W 4305  26.420  26.360  16.956
 3441W        W 4306  26.390  25.708  16.066
 3442W        W 4307  28.011  26.550  16.758
 3443W        W 4308  26.809  27.721  14.958
 3444W        W 4309  28.807  27.663  16.457
 3445W        W 4310  26.134  28.421  17.880
 3446W        W 4311  28.521  29.103  15.677
 3447W        W 4312  26.620  26.123  16.122
 3448W        W 4313  26.389  27.616  16.212
 3449W        W 4314  26.702  29.027  16.962
 3450W        W 4315  28.769  29.123  17.994
 3451W        W 4316  27.928  27.311  16.927
 3452W        W 4317  25.777  27.109  14.842
 3453W        W 4318  28.911  28.767  15.539
 3454W        W 4319  28.748  26.091  15.158
 3455W        W 4320  26.887  25.610  17.561
 3456W        W 4321  28.593  28.412  16.019
 3457W        W 4322  28.622  26.968  15.924
 3458W        W 4323  26.739  26.641  16.140
 3459W        W 4324  26.984  26.903  17.464
 3460W        W 4325  28.095  28.056  17.327
 3461W        W 4326  26.745  26.510  17.439
 3462W        W 4327  26.724  28.976  16.055
 3463W        W 4328  26.041  28.935  17.689
 3464W        W 4329  26.153  28.296  14.819
 3465W        W 4330  28.670  28.054  15.629
 3466W        W 4331  26.274  26.846  17.515
 3467W        W 4332  29.047  26.776  14.996
 3468W        W 4333  26.792  27.833  15.467
 3469W        W 4334  27.891  27.215  17.548
 3470W        W 4335  27.782  26.843  17.092
 3471W        W 4336  26.342  27.215  17.121
 3472W        W 4337  28.552  29.103  16.950
 3473W        W 4338  28.343  25.737  17.944
 3474W        W 4339  26.007  25.887  17.531
 3475W        W 4340  26.346  26.910  16.584
 3476W        W 4341  26.715  26.724  14.706
 3477W        W 4342  25.518  28.483  17.251
 3478W        W 4343  27.103  27.192  16.694
 3479W        W 4344  26.926  26.217  14.799
 3480W        W 4345  26.061  27.033  15.580
 3481W        W 4346  25.832  28.885  17.017
 3482W        W 4347  28.627  27.111  15.125
 3483W        W 4348  28.722  26.027  17.811
 3484W        W 4349  28.158  28.236  15.774
 3485W        W 4350  25.756  27.160  17.951
 3486W        W 4351  28.722  25.624  15.247
 3487W        W 4352  28.242  28.099  15.258
 3488W        W 4353  27.144  27.157  15.343
 3489W        W 4354  28.331  25.961  14.866
 3490W        W 4355  28.396  26.568  17.052
 3491W        W 4356  26.105  27.161  16.259
 3492W        W 4357  26.399  28.100  15.908
 3493W        W 4358  28.162  26.720  15.873
 3494W        W 4359  27.185  26.099  16.569
 3495W        W 4360  29.147  28.010  17.080
 3496W        W 4361  29.065  25.997  16.641
 3497W        W 4362  25.604  28.827  16.017
 3498W        W 4363  26.113  28.014  15.553
 3499W        W 4364  26.028  25.631  18.106
 3500W        W 4365  27.147  28.484  18.208
 3501W        W 4366  28.902  27.452  15.998
 3502W        W 4367  28.256  27.629  14.878
 3503W        W 4368  27.551  29.150  17.090
 3504W        W 4369  28.408  27.872  18.127
 3505W        W 4370  27.223  25.582  15.407
 3506W        W 4371  27.936  26.451  16.266
 3507W        W 4372  25.622  28.038  16.598
 3508W        W 4373  26.875  26.000  15.239
 3509W        W 4374  26.679  27.484  18.088
 3510W        W 4375  27.673  26.465  15.802
 3511W        W 4376  27.878  27.875  16.924
 3512W        W 4377  26.032  28.480  17.359
 3513W        W 4378  26.623  28.463  18.082
 3514W        W 4379  26.474  26.260  15.096
 3515W        W 4380  27.991  26.402  15.421
 3516W        W 4381  27.949  28.510  17.658
 3517W        W 4382  26.634  27.102  16.257
 3518W        W 4383  26.289  28.800  17.122
 3519W        W 4384  29.034  28.917  14.723
 3520W        W 4385  25.897  27.589  17.719
 3521W        W 4386  27.892  27.851  16.407
 3522W        W 4387  26.328  27.500  15.649
 3523W        W 4388  26.699  28.507  17.044
 3524W        W 4389  27.077  25.926  16.085
 3525W        W 4390  25.688  27.910  15.015
 3526W        W 4391  27.207  26.861  14.885
 3527W        W 4392  25.853  27.410  15.904
 3528W        W 4393  27.143  26.052  17.368
 3529W        W 4394  28.815  25.761  14.795
 3530W        W 4395  28.908  27.507  17.894
 3531W        W 4396  27.562  28.764  18.046
 3532W        W 4397  29.120  27.858  17.568
 3533W        W 4398  28.528  28.656  18.179
 3534W        W 4399  26.267  29.112  16.657
 3535W        W 4400  29.126  27.734  15.531
 3536W        W 4401  27.656  27.001  16.044
 3537W        W 4402  27.423  25.613  15.934
 3538W        W 4403  26.482  28.597  15.771
 3539W        W 4404  26.981  26.338  16.996
 3540W        W 4405  26.681  25.707  16.465
 3541W        W 4406  25.744  28.529  15.013
 3542W        W 4407  27.560  27.893  15.731
 3543W        W 4408  26.435  28.688  17.610
 3544W        W 4409  25.912  27.511  15.306
 3545W        W 4410  25.797  26.054  16.305
 3546W        W 4411  27.345  28.019  16.362
 3547W        W 4412  25.597  25.873  15.382
 3548W        W 4413  28.261  27.079  17.309
 3549W        W 4414  28.138  26.465  14.881
 3550W        W 4415  28.655  28.137  16.529
 3551W        W 4416  27.316  28.621  16.360
 3552W        W 4417  26.728  28.725  15.271
 3553W        W 4418  28.010  25.628  14.701
 3554W        W 4419  25.810  28.888  16.442
 3555W        W 4420  28.007  26.646  18.077
 3556W        W 4421  25.990  26.176  18.076
 3557W        W 4422  25.721  26.776  15.409
 3558W        W 4423  26.412  26.765  15.134
 3559W        W 4424  28.175  27.092  17.951
 3560W        W 4425  26.518  27.373  16.660
 3561W        W 4426  27.992  25.659  15.780
 3562W        W 4427  27.123  29.090  16.283
 3563W        W 4428  28.337  28.552  17.220
 3564W        W 4429  27.921  28.701  16.331
 3565W        W 4430  27.940  27.681  15.925
 3566W        W 4431  27.402  25.906  14.996
 3567W        W 4432  29.083  25.534  15.718
 3568W        W 4433  26.771  27.169  14.881
 3569W        W 4434  28.937  26.506  15.871
 3570W        W 4435  27.629  27.676  14.748
 3571W        W 4436  28.565  27.876  17.496
 3572W        W 4437  28.219  28.577  14.963
 3573W        W 4438  26.834  26.252  17.869
 3574W        W 4439  26.654  26.836  17.110
 3575W        W 4440  28.746  28.331  17.387
 3576W        W 4441  27.846  26.281  17.764
 3577W        W 4442  25.690  26.752  17.541
 3578W        W 4443  27.450  27.229  17.267
 3579W        W 4444  25.807  27.987  15.924
 3580W        W 4445  25.954  27.284  16.814
 3581W        W 4446  28.271  27.570  17.164
 3582W        W 4447  28.043  28.950  17.975
 3583W        W 4448  27.939  26.689  17.528
 3584W        W 4449  28.216  28.743  15.933
 3585W        W 4450  27.218  28.463  17.256
 3586W        W 4451  26.703  28.818  16.525
 3587W        W 4452  28.508  27.989  16.944
 3588W        W 4453  27.558  28.061  18.081
 3589W        W 4454  26.163  28.014  16.420
 3590W        W 4455  28.509  27.773  16.065
 3591W        W 4456  28.150  28.839  16.816
 3592W        W 4457  26.128  28.568  16.686
 3593W        W 4458  27.149  26.620  17.896
 3594W        W 4459  27.600  28.786  15.407
 3595W        W 4460  26.908  28.041  18.045
 3596W        W 4461  27.034  28.279  15.422
 3597W        W 4462  26.255  27.019  14.681
 3598W        W 4463  25.594  29.105  21.580
 3599W        W 4464  25.970  27.998  21.103
 3600W        W 4465  28.675  27.728  18.873
 3601W        W 4466  28.805  28.813  20.900
 3602W        W 4467  26.723  28.804  18.426
 3603W        W 4468  26.806  26.956  19.409
 3604W        W 4469  26.321  26.804  19.573
 3605W        W 4470  27.312  27.619  19.007
 3606W        W 4471  26.987  28.711  21.362
 3607W        W 4472  25.636  26.272  21.325
 3608W        W 4473  26.398  25.552  21.127
 3609W        W 4474  28.092  25.940  20.014
 3610W        W 4475  27.741  26.811  18.584
 3611W        W 4476  28.311  26.245  21.675
 3612W        W 4477  25.677  26.037  20.800
 3613W        W 4478  25.776  28.656  21.821
 3614W        W 4479  27.298  28.046  18.553
 3615W        W 4480  25.730  26.829  20.246
 3616W        W 4481  26.623  26.720  21.483
 3617W        W 4482  29.082  26.579  19.982
 3618W        W 4483  28.846  27.622  20.841
 3619W        W 4484  27.154  26.955  19.868
 3620W        W 4485  27.700  28.294  20.237
 3621W        W 4486  26.200  27.728  20.469
 3622W        W 4487  25.559  27.256  20.040
 3623W        W 4488  26.595  27.228  21.232
 3624W        W 4489  28.866  27.011  21.486
 3625W        W 4490  26.482  28.455  19.931
 3626W        W 4491  27.603  28.144  21.065
 3627W        W 4492  26.823  26.784  20.290
 3628W        W 4493  27.115  27.568  19.933
 3629W        W 4494  28.112  28.341  21.781
 3630W        W 4495  27.191  27.661  21.791
 3631W        W 4496  27.172  27.377  21.269
 3632W        W 4497  25.581  26.768  21.791
 3633W        W 4498  28.413  28.303  21.390
 3634W        W 4499  25.994  25.885  19.388
 3635W        W 4500  26.521  28.143  20.387
 3636W        W 4501  28.984  27.926  19.677
 3637W        W 4502  28.397  26.326  20.244
 3638W        W 4503  28.682  26.279  18.339
 3639W        W 4504  29.147  27.080  20.645
 3640W        W 4505  27.114  28.787  20.398
 3641W        W 4506  28.888  28.253  18.836
 3642W        W 4507  26.017  29.039  18.590
 3643W        W 4508  26.410  29.085  19.266
 3644W        W 4509  26.207  25.839  20.692
 3645W        W 4510  28.830  26.857  20.967
 3646W        W 4511  28.235  27.279  19.426
 3647W        W 4512  28.201  26.967  18.453
 3648W        W 4513  27.409  28.111  20.593
 3649W        W 4514  27.215  26.441  19.792
 3650W        W 4515  27.815  28.528  20.786
 3651W        W 4516  28.686  27.319  19.208
 3652W        W 4517  27.588  25.977  19.224
 3653W        W 4518  26.245  28.671  18.907
 3654W        W 4519  25.616  26.170  19.506
 3655W        W 4520  28.402  26.777  19.980
 3656W        W 4521  25.860  28.394  19.895
 3657W        W 4522  27.201  28.744  18.765
 3658W        W 4523  28.593  26.770  18.229
 3659W        W 4524  25.616  28.528  20.393
 3660W        W 4525  26.407  28.100  20.873
 3661W        W 4526  26.780  27.460  19.492
 3662W        W 4527  26.802  25.865  20.585
 3663W        W 4528  29.031  25.627  19.882
 3664W        W 4529  26.250  27.499  18.350
 3665W        W 4530  25.905  26.532  18.529
 3666W        W 4531  25.967  28.488  19.323
 3667W        W 4532  27.098  27.971  19.571
 3668W        W 4533  28.430  28.830  21.285
 3669W        W 4534  27.356  26.472  18.969
 3670W        W 4535  28.739  28.870  19.741
 3671W        W 4536  28.416  26.723  21.339
 3672W        W 4537  29.129  28.379  19.473
 3673W        W 4538  27.756  27.671  20.957
 3674W        W 4539  25.522  27.222  19.163
 3675W        W 4540  26.633  27.637  20.736
 3676W        W 4541  27.837  26.901  19.114
 3677W        W 4542  27.714  27.391  19.218
 3678W        W 4543  26.057  26.811  20.692
 3679W        W 4544  26.042  26.687  21.614
 3680W        W 4545  25.932  25.604  19.773
 3681W        W 4546  27.700  25.951  20.334
 3682W        W 4547  27.348  26.136  21.497
 3683W        W 4548  27.703  26.285  18.675
 3684W        W 4549  28.886  28.678  21.429
 3685W        W 4550  27.853  25.759  21.468
 3686W        W 4551  28.872  28.060  21.590
 3687W        W 4552  28.302  26.227  21.186
 3688W        W 4553  28.102  26.165  19.456
 3689W        W 4554  28.495  27.299  21.860
 3690W        W 4555  26.235  28.875  19.846
 3691W        W 4556  26.893  26.592  18.832
 3692W        W 4557  26.462  25.876  21.496
 3693W        W 4558  28.514  26.360  19.177
 3694W        W 4559  28.881  26.842  19.122
 3695W        W 4560  26.624  29.059  21.593
 3696W        W 4561  26.550  25.595  18.828
 3697W        W 4562  28.871  26.129  19.863
 3698W        W 4563  29.021  28.378  18.308
 3699W        W 4564  25.928  27.581  20.010
 3700W        W 4565  27.845  26.168  18.240
 3701W        W 4566  28.979  28.500  19.960
 3702W        W 4567  29.018  25.694  20.710
 3703W        W 4568  27.463  26.906  21.264
 3704W        W 4569  27.556  28.245  18.967
 3705W        W 4570  27.956  27.539  21.707
 3706W        W 4571  27.630  25.516  20.016
 3707W        W 4572  26.242  26.419  20.079
 3708W        W 4573  25.796  27.619  20.853
 3709W        W 4574  27.655  28.812  19.559
 3710W        W 4575  28.849  26.409  20.431
 3711W        W 4576  27.486  28.756  21.198
 3712W        W 4577  28.829  27.815  18.403
 3713W        W 4578  27.264  27.298  19.464
 3714W        W 4579  29.116  25.809  21.205
 3715W        W 4580  27.265  27.644  20.799
 3716W        W 4581  27.482  26.530  20.244
 3717W        W 4582  28.334  26.828  19.082
 3718W        W 4583  28.621  26.561  18.724
 3719W        W 4584  28.430  28.601  19.113
 3720W        W 4585  28.264  28.204  19.909
 3721W        W 4586  28.160  27.283  18.887
 3722W        W 4587  27.593  27.493  19.873
 3723W        W 4588  28.474  27.281  19.940
 3724W        W 4589  25.849  26.296  20.364
 3725W        W 4590  28.627  27.348  21.191
 3726W        W 4591  28.978  28.966  20.337
 3727W        W 4592  26.908  28.410  19.739
 3728W        W 4593  27.915  28.943  21.063
 3729W        W 4594  27.909  26.273  20.827
 3730W        W 4595  27.116  28.981  20.888
 3731W        W 4596  28.813  25.935  19.354
 3732W        W 4597  28.604  27.254  20.655
 3733W        W 4598  25.587  26.575  20.693
 3734W        W 4599  28.447  26.370  19.711
 3735W        W 4600  28.858  26.521  21.488
 3736W        W 4601  27.743  28.220  19.706
 3737W        W 4602  26.999  28.811  19.319
 3738W        W 4603  26.114  25.991  18.577
 3739W        W 4604  27.218  25.645  20.387
 3740W        W 4605  26.246  28.765  18.235
 3741W        W 4606  26.620  27.231  18.986
 3742W        W 4607  27.274  27.860  21.299
 3743W        W 4608  27.104  26.218  19.289
 3744W        W 4609  28.460  25.815  19.717
 3745W        W 4610  28.180  29.097  20.045
 3746W        W 4611  27.592  28.745  20.385
 3747W        W 4612  26.988  27.782  20.346
 3748W        W 4613  28.758  28.505  20.472
 3749W        W 4614  26.452  26.008  19.241
 3750W        W 4615  26.974  28.305  20.201
 3751W        W 4616  26.457  26.236  18.266
 3752W        W 4617  27.258  26.845  20.660
 3753W        W 4618  28.106  25.711  20.530
 3754W        W 4619  25.526  27.554  20.415
 3755W        W 4620  27.230  27.372  18.573
 3756W        W 4621  26.498  25.687  18.343
 3757W        W 4622  27.236  26.768  19.394
 3758W        W 4623  28.206  25.744  21.093
 3759W        W 4624  26.794  27.756  21.202
 3760W        W 4625  27.598  27.538  21.419
 3761W        W 4626  28.215  27.568  21.312
 3762W        W 4627  27.499  25.708  21.817
 3763W        W 4628  26.721  26.324  20.210
 3764W        W 4629  26.147  26.280  19.608
 3765W        W 4630  25.933  28.992  19.284
 3766W        W 4631  27.265  28.322  21.409
 3767W        W 4632  26.300  27.807  18.768
 3768W        W 4633  27.980  27.192  19.989
 3769W        W 4634  28.260  26.991  20.388
 3770W        W 4635  27.465  27.665  20.322
 3771W        W 4636  27.935  28.039  18.454
 3772W        W 4637  27.607  26.060  19.782
 3773W        W 4638  29.086  26.338  19.050
 3774W        W 4639  25.580  28.927  21.081
 3775W        W 4640  25.997  28.153  20.613
 3776W        W 4641  25.564  28.999  18.845
 3777W        W 4642  27.463  26.269  20.651
 3778W        W 4643  26.826  28.292  18.500
 3779W        W 4644  28.731  28.674  18.686
 3780W        W 4645  27.706  27.327  18.700
 3781W        W 4646  26.549  26.518  19.217
 3782W        W 4647  27.381  26.428  18.269
 3783W        W 4648  27.965  27.993  21.447
 3784W        W 4649  28.318  25.899  19.064
 3785W        W 4650  25.648  25.747  18.512
 3786W        W 4651  26.934  28.066  20.802
 3787W        W 4652  26.733  27.982  19.894
 3788W        W 4653  26.475  27.934  18.292
 3789W        W 4654  25.716  28.175  19.060
 3790W        W 4655  26.220  27.245  21.502
 3791W        W 4656  26.924  25.805  21.688
 3792W        W 4657  27.633  25.947  21.044
 3793W        W 4658  26.828  25.715  19.325
 3794W        W 4659  27.887  25.792  18.830
 3795W        W 4660  25.832  25.724  20.407
 3796W        W 4661  25.880  26.687  19.777
 3797W        W 4662  28.569  25.795  20.183
 3798W        W 4663  25.991  26.293  18.997
 3799W        W 4664  28.562  25.981  20.613
 3800W        W 4665  28.958  27.184  18.298
 3801W        W 4666  26.250  25.942  20.117
 3802W        W 4667  27.364  26.514  21.057
 3803W        W 4668  25.512  26.204  18.535
 3804W        W 4669  26.298  27.593  21.096
 3805W        W 4670  27.656  26.991  20.275
 3806W        W 4671  27.523  29.070  18.571
 3807W        W 4672  25.669  27.577  18.268
 3808W        W 4673  26.404  27.988  21.394
 3809W        W 4674  25.925  27.155  21.025
 3810W        W 4675  26.916  27.260  20.819
 3811W        W 4676  28.684  25.619  21.081
 3812W        W 4677  29.082  27.229  21.072
 3813W        W 4678  29.070  27.429  18.758
 3814W        W 4679  27.933  27.761  18.857
 3815W        W 4680  28.407  29.061  18.552
 3816W        W 4681  27.584  27.051  21.694
 3817W        W 4682  25.914  28.018  21.734
 3818W        W 4683  29.120  25.940  21.686
 3819W        W 4684  28.838  26.868  20.307
 3820W        W 4685  27.146  28.998  21.784
 3821W        W 4686  27.001  25.627  18.511
 3822W        W 4687  28.540  28.226  18.454
 3823W        W 4688  26.309  26.319  21.340
 3824W        W 4689  26.743  28.313  21.202
 3825W        W 4690  28.869  26.304  21.000
 3826W        W 4691  28.080  28.963  18.968
 3827W        W 4692  28.319  27.582  20.335
 3828W        W 4693  26.569  25.998  21.002
 3829W        W 4694  27.038  27.067  21.759
 3830W        W 4695  26.541  28.246  18.953
 3831W        W 4696  28.296  27.744  19.217
 3832W        W 4697  26.064  26.370  20.941
 3833W        W 4698  27.393  28.432  19.405
 3834W        W 4699  29.143  26.992  19.586
 3835W        W 4700  27.365  25.625  21.305
 3836W        W 4701  28.145  28.330  20.384
 3837W        W 4702  28.448  28.674  20.092
 3838W        W 4703  27.667  28.476  18.520
 3839W        W 4704  25.677  28.368  21.362
 3840W        W 4705  26.420  26.360  20.600
 3841W        W 4706  26.390  25.708  19.710
 3842W        W 4707  28.011  26.550  20.402
 3843W        W 4708  26.809  27.721  18.602
 3844W        W 4709  28.807  27.663  20.101
 3845W        W 4710  26.134  28.421  21.524
 3846W        W 4711  28.521  29.103  19.321
 3847W        W 4712  26.620  26.123  19.766
 3848W        W 4713  26.389  27.616  19.856
 3849W        W 4714  26.702  29.027  20.606
 3850W        W 4715  28.769  29.123  21.638
 3851W        W 4716  27.928  27.311  20.571
 3852W        W 4717  25.777  27.109  18.486
 3853W        W 4718  28.911  28.767  19.183
 3854W        W 4719  28.748  26.091  18.802
 3855W        W 4720  26.887  25.610  21.205
 3856W        W 4721  28.593  28.412  19.663
 3857W        W 4722  28.622  26.968  19.568
 3858W        W 4723  26.739  26.641  19.784
 3859W        W 4724  26.984  26.903  21.108
 3860W        W 4725  28.095  28.056  20.971
 3861W        W 4726  26.745  26.510  21.083
 3862W        W 4727  26.724  28.976  19.699
 3863W        W 4728  26.041  28.935  21.333
 3864W        W 4729  26.153  28.296  18.463
 3865W        W 4730  28.670  28.054  19.273
 3866W        W 4731  26.274  26.846  21.159
 3867W        W 4732  29.047  26.776  18.640
 3868W        W 4733  26.792  27.833  19.111
 3869W        W 4734  27.891  27.215  21.192
 3870W        W 4735  27.782  26.843  20.736
 3871W        W 4736  26.342  27.215  20.765
 3872W        W 4737  28.552  29.103  20.594
 3873W        W 4738  28.343  25.737  21.588
 3874W        W 4739  26.007  25.887  21.175
 3875W        W 4740  26.346  26.910  20.228
 3876W        W 4741  26.715  26.724  18.350
 3877W        W 4742  25.518  28.483  20.895
 3878W        W 4743  27.103  27.192  20.338
 3879W        W 4744  26.926  26.217  18.443
 3880W        W 4745  26.061  27.033  19.224
 3881W        W 4746  25.832  28.885  20.661
 3882W        W 4747  28.627  27.111  18.769
 3883W        W 4748  28.722  26.027  21.455
 3884W        W 4749  28.158  28.236  19.418
 3885W        W 4750  25.756  27.160  21.595
 3886W        W 4751  28.722  25.624  18.891
 3887W        W 4752  28.242  28.099  18.902
 3888W        W 4753  27.144  27.157  18.987
 3889W        W 4754  28.331  25.961  18.510
 3890W        W 4755  28.396  26.568  20.696
 3891W        W 4756  26.105  27.161  19.903
 3892W        W 4757  26.399  28.100  19.552
 3893W        W 4758  28.162  26.720  19.517
 3894W        W 4759  27.185  26.099  20.213
 3895W        W 4760  29.147  28.010  20.724
 3896W        W 4761  29.065  25.997  20.285
 3897W        W 4762  25.604  28.827  19.661
 3898W        W 4763  26.113  28.014  19.197
 3899W        W 4764  26.028  25.631  21.750
 3900W        W 4765  27.147  28.484  21.852
 3901W        W 4766  28.902  27.452  19.642
 3902W        W 4767  28.256  27.629  18.522
 3903W        W 4768  27.551  29.150  20.734
 3904W        W 4769  28.408  27.872  21.771
 3905W        W 4770  27.223  25.582  19.051
 3906W        W 4771  27.936  26.451  19.910
 3907W        W 4772  25.622  28.038  20.242
 3908W        W 4773  26.875  26.000  18.883
 3909W        W 4774  26.679  27.484  21.732
 3910W        W 4775  27.673  26.465  19.446
 3911W        W 4776  27.878  27.875  20.568
 3912W        W 4777  26.032  28.480  21.003
 3913W        W 4778  26.623  28.463  21.726
 3914W        W 4779  26.474  26.260  18.740
 3915W        W 4780  27.991  26.402  19.065
 3916W        W 4781  27.949  28.510  21.302
 3917W        W 4782  26.634  27.102  19.901
 3918W        W 4783  26.289  28.800  20.766
 3919W        W 4784  29.034  28.917  18.367
 3920W        W 4785  25.897  27.589  21.363
 3921W        W 4786  27.892  27.851  20.051
 3922W        W 4787  26.328  27.500  19.293
 3923W        W 4788  26.699  28.507  20.688
 3924W        W 4789  27.077  25.926  19.729
 3925W        W 4790  25.688  27.910  18.659
 3926W        W 4791  27.207  26.861  18.529
 3927W        W 4792  25.853  27.410  19.548
 3928W        W 4793  27.143  26.052  21.012
 3929W        W 4794  28.815  25.761  18.439
 3930W        W 4795  28.908  27.507  21.538
 3931W        W 4796  27.562  28.764  21.690
 3932W        W 4797  29.120  27.858  21.212
 3933W        W 4798  28.528  28.656  21.823
 3934W        W 4799  26.267  29.112  20.301
 3935W        W 4800  29.126  27.734  19.175
 3936W        W 4801  27.656  27.001  19.688
 3937W        W 4802  27.423  25.613  19.578
 3938W        W 4803  26.482  28.597  19.415
 3939W        W 4804  26.981  26.338  20.640
 3940W        W 4805  26.681  25.707  20.109
 3941W        W 4806  25.744  28.529  18.657
 3942W        W 4807  27.560  27.893  19.375
 3943W        W 4808  26.435  28.688  21.254
 3944W        W 4809  25.912  27.511  18.950
 3945W        W 4810  25.797  26.054  19.949
 3946W        W 4811  27.345  28.019  20.006
 3947W        W 4812  25.597  25.873  19.026
 3948W        W 4813  28.261  27.079  20.953
 3949W        W 4814  28.138  26.465  18.525
 3950W        W 4815  28.655  28.137  20.173
 3951W        W 4816  27.316  28.621  20.004
 3952W        W 4817  26.728  28.725  18.915
 3953W        W 4818  28.010  25.628  18.345
 3954W        W 4819  25.810  28.888  20.086
 3955W        W 4820  28.007  26.646  21.721
 3956W        W 4821  25.990  26.176  21.720
 3957W        W 4822  25.721  26.776  19.053
 3958W        W 4823  26.412  26.765  18.778
 3959W        W 4824  28.175  27.092  21.595
 3960W        W 4825  26.518  27.373  20.304
 3961W        W 4826  27.992  25.659  19.424
 3962W        W 4827  27.123  29.090  19.927
 3963W        W 4828  28.337  28.552  20.864
 3964W        W 4829  27.921  28.701  19.975
 3965W        W 4830  27.940  27.681  19.569
 3966W        W 4831  27.402  25.906  18.640
 3967W        W 4832  29.083  25.534  19.362
 3968W        W 4833  26.771  27.169  18.525
 3969W        W 4834  28.937  26.506  19.515
 3970W        W 4835  27.629  27.676  18.392
 3971W        W 4836  28.565  27.876  21.140
 3972W        W 4837  28.219  28.577  18.607
 3973W        W 4838  26.834  26.252  21.513
 3974W        W 4839  26.654  26.836  20.754
 3975W        W 4840  28.746  28.331  21.031
 3976W        W 4841  27.846  26.281  21.408
 3977W        W 4842  25.690  26.752  21.185
 3978W        W 4843  27.450  27.229  20.911
 3979W        W 4844  25.807  27.987  19.568
 3980W        W 4845  25.954  27.284  20.458
 3981W        W 4846  28.271  27.570  20.808
 3982W        W 4847  28.043  28.950  21.619
 3983W        W 4848  27.939  26.689  21.172
 3984W        W 4849  28.216  28.743  19.577
 3985W        W 4850  27.218  28.463  20.900
 3986W        W 4851  26.703  28.818  20.169
 3987W        W 4852  28.508  27.989  20.588
 3988W        W 4853  27.558  28.061  21.725
 3989W        W 4854  26.163  28.014  20.064
 3990W        W 4855  28.509  27.773  19.709
 3991W        W 4856  28.150  28.839  20.460
 3992W        W 4857  26.128  28.568  20.330
 3993W        W 4858  27.149  26.620  21.540
 3994W        W 4859  27.600  28.786  19.051
 3995W        W 4860  26.908  28.041  21.689
 3996W        W 4861  27.034  28.279  19.066
 3997W        W 4862  26.255  27.019  18.325
 3998W        W 4863  25.594  29.105  25.225
 3999W        W 4864  25.970  27.998  24.748
 4000W        W 4865  28.675  27.728  22.518
 4001W        W 4866  28.805  28.813  24.545
 4002W        W 4867  26.723  28.804  22.071
 4003W        W 4868  26.806  26.956  23.054
 4004W        W 4869  26.321  26.804  23.218
 4005W        W 4870  27.312  27.619  22.652
 4006W        W 4871  26.987  28.711  25.007
 4007W        W 4872  25.636  26.272  24.970
 4008W        W 4873  26.398  25.552  24.772
 4009W        W 4874  28.092  25.940  23.659
 4010W        W 4875  27.741  26.811  22.229
 4011W        W 4876  28.311  26.245  25.320
 4012W        W 4877  25.677  26.037  24.445
 4013W        W 4878  25.776  28.656  25.466
 4014W        W 4879  27.298  28.046  22.198
 4015W        W 4880  25.730  26.829  23.891
 4016W        W 4881  26.623  26.720  25.128
 4017W        W 4882  29.082  26.579  23.627
 4018W        W 4883  28.846  27.622  24.486
 4019W        W 4884  27.154  26.955  23.513
 4020W        W 4885  27.700  28.294  23.882
 4021W        W 4886  26.200  27.728  24.114
 4022W        W 4887  25.559  27.256  23.685
 4023W        W 4888  26.595  27.228  24.877
 4024W        W 4889  28.866  27.011  25.131
 4025W        W 4890  26.482  28.455  23.576
 4026W        W 4891  27.603  28.144  24.710
 4027W        W 4892  26.823  26.784  23.935
 4028W        W 4893  27.115  27.568  23.578
 4029W        W 4894  28.112  28.341  25.426
 4030W        W 4895  27.191  27.661  25.436
 4031W        W 4896  27.172  27.377  24.914
 4032W        W 4897  25.581  26.768  25.436
 4033W        W 4898  28.413  28.303  25.035
 4034W        W 4899  25.994  25.885  23.033
 4035W        W 4900  26.521  28.143  24.032
 4036W        W 4901  28.984  27.926  23.322
 4037W        W 4902  28.397  26.326  23.889
 4038W        W 4903  28.682  26.279  21.984
 4039W        W 4904  29.147  27.080  24.290
 4040W        W 4905  27.114  28.787  24.043
 4041W        W 4906  28.888  28.253  22.481
 4042W        W 4907  26.017  29.039  22.235
 4043W        W 4908  26.410  29.085  22.911
 4044W        W 4909  26.207  25.839  24.337
 4045W        W 4910  28.830  26.857  24.612
 4046W        W 4911  28.235  27.279  23.071
 4047W        W 4912  28.201  26.967  22.098
 4048W        W 4913  27.409  28.111  24.238
 4049W        W 4914  27.215  26.441  23.437
 4050W        W 4915  27.815  28.528  24.431
 4051W        W 4916  28.686  27.319  22.853
 4052W        W 4917  27.588  25.977  22.869
 4053W        W 4918  26.245  28.671  22.552
 4054W        W 4919  25.616  26.170  23.151
 4055W        W 4920  28.402  26.777  23.625
 4056W        W 4921  25.860  28.394  23.540
 4057W        W 4922  27.201  28.744  22.410
 4058W        W 4923  28.593  26.770  21.874
 4059W        W 4924  25.616  28.528  24.038
 4060W        W 4925  26.407  28.100  24.518
 4061W        W 4926  26.780  27.460  23.137
 4062W        W 4927  26.802  25.865  24.230
 4063W        W 4928  29.031  25.627  23.527
 4064W        W 4929  26.250  27.499  21.995
 4065W        W 4930  25.905  26.532  22.174
 4066W        W 4931  25.967  28.488  22.968
 4067W        W 4932  27.098  27.971  23.216
 4068W        W 4933  28.430  28.830  24.930
 4069W        W 4934  27.356  26.472  22.614
 4070W        W 4935  28.739  28.870  23.386
 4071W        W 4936  28.416  26.723  24.984
 4072W        W 4937  29.129  28.379  23.118
 4073W        W 4938  27.756  27.671  24.602
 4074W        W 4939  25.522  27.222  22.808
 4075W        W 4940  26.633  27.637  24.381
 4076W        W 4941  27.837  26.901  22.759
 4077W        W 4942  27.714  27.391  22.863
 4078W        W 4943  26.057  26.811  24.337
 4079W        W 4944  26.042  26.687  25.259
 4080W        W 4945  25.932  25.604  23.418
 4081W        W 4946  27.700  25.951  23.979
 4082W        W 4947  27.348  26.136  25.142
 4083W        W 4948  27.703  26.285  22.320
 4084W        W 4949  28.886  28.678  25.074
 4085W        W 4950  27.853  25.759  25.113
 4086W        W 4951  28.872  28.060  25.235
 4087W        W 4952  28.302  26.227  24.831
 4088W        W 4953  28.102  26.165  23.101
 4089W        W 4954  28.495  27.299  25.505
 4090W        W 4955  26.235  28.875  23.491
 4091W        W 4956  26.893  26.592  22.477
 4092W        W 4957  26.462  25.876  25.141
 4093W        W 4958  28.514  26.360  22.822
 4094W        W 4959  28.881  26.842  22.767
 4095W        W 4960  26.624  29.059  25.238
 4096W        W 4961  26.550  25.595  22.473
 4097W        W 4962  28.871  26.129  23.508
 4098W        W 4963  29.021  28.378  21.953
 4099W        W 4964  25.928  27.581  23.655
 4100W        W 4965  27.845  26.168  21.885
 4101W        W 4966  28.979  28.500  23.605
 4102W        W 4967  29.018  25.694  24.355
 4103W        W 4968  27.463  26.906  24.909
 4104W        W 4969  27.556  28.245  22.612
 4105W        W 4970  27.956  27.539  25.352
 4106W        W 4971  27.630  25.516  23.661
 4107W        W 4972  26.242  26.419  23.724
 4108W        W 4973  25.796  27.619  24.498
 4109W        W 4974  27.655  28.812  23.204
 4110W        W 4975  28.849  26.409  24.076
 4111W        W 4976  27.486  28.756  24.843
 4112W        W 4977  28.829  27.815  22.048
 4113W        W 4978  27.264  27.298  23.109
 4114W        W 4979  29.116  25.809  24.850
 4115W        W 4980  27.265  27.644  24.444
 4116W        W 4981  27.482  26.530  23.889
 4117W        W 4982  28.334  26.828  22.727
 4118W        W 4983  28.621  26.561  22.369
 4119W        W 4984  28.430  28.601  22.758
 4120W        W 4985  28.264  28.204  23.554
 4121W        W 4986  28.160  27.283  22.532
 4122W        W 4987  27.593  27.493  23.518
 4123W        W 4988  28.474  27.281  23.585
 4124W        W 4989  25.849  26.296  24.009
 4125W        W 4990  28.627  27.348  24.836
 4126W        W 4991  28.978  28.966  23.982
 4127W        W 4992  26.908  28.410  23.384
 4128W        W 4993  27.915  28.943  24.708
 4129W        W 4994  27.909  26.273  24.472
 4130W        W 4995  27.116  28.981  24.533
 4131W        W 4996  28.813  25.935  22.999
 4132W        W 4997  28.604  27.254  24.300
 4133W        W 4998  25.587  26.575  24.338
 4134W        W 4999  28.447  26.370  23.356
 4135W        W 5000  28.858  26.521  25.133
 4136W        W 5001  27.743  28.220  23.351
 4137W        W 5002  26.999  28.811  22.964
 4138W        W 5003  26.114  25.991  22.222
 4139W        W 5004  27.218  25.645  24.032
 4140W        W 5005  26.246  28.765  21.880
 4141W        W 5006  26.620  27.231  22.631
 4142W        W 5007  27.274  27.860  24.944
 4143W        W 5008  27.104  26.218  22.934
 4144W        W 5009  28.460  25.815  23.362
 4145W        W 5010  28.180  29.097  23.690
 4146W        W 5011  27.592  28.745  24.030
 4147W        W 5012  26.988  27.782  23.991
 4148W        W 5013  28.758  28.505  24.117
 4149W        W 5014  26.452  26.008  22.886
 4150W        W 5015  26.974  28.305  23.846
 4151W        W 5016  26.457  26.236  21.911
 4152W        W 5017  27.258  26.845  24.305
 4153W        W 5018  28.106  25.711  24.175
 4154W        W 5019  25.526  27.554  24.060
 4155W        W 5020  27.230  27.372  22.218
 4156W        W 5021  26.498  25.687  21.988
 4157W        W 5022  27.236  26.768  23.039
 4158W        W 5023  28.206  25.744  24.738
 4159W        W 5024  26.794  27.756  24.847
 4160W        W 5025  27.598  27.538  25.064
 4161W        W 5026  28.215  27.568  24.957
 4162W        W 5027  27.499  25.708  25.462
 4163W        W 5028  26.721  26.324  23.855
 4164W        W 5029  26.147  26.280  23.253
 4165W        W 5030  25.933  28.992  22.929
 4166W        W 5031  27.265  28.322  25.054
 4167W        W 5032  26.300  27.807  22.413
 4168W        W 5033  27.980  27.192  23.634
 4169W        W 5034  28.260  26.991  24.033
 4170W        W 5035  27.465  27.665  23.967
 4171W        W 5036  27.935  28.039  22.099
 4172W        W 5037  27.607  26.060  23.427
 4173W        W 5038  29.086  26.338  22.695
 4174W        W 5039  25.580  28.927  24.726
 4175W        W 5040  25.997  28.153  24.258
 4176W        W 5041  25.564  28.999  22.490
 4177W        W 5042  27.463  26.269  24.296
 4178W        W 5043  26.826  28.292  22.145
 4179W        W 5044  28.731  28.674  22.331
 4180W        W 5045  27.706  27.327  22.345
 4181W        W 5046  26.549  26.518  22.862
 4182W        W 5047  27.381  26.428  21.914
 4183W        W 5048  27.965  27.993  25.092
 4184W        W 5049  28.318  25.899  22.709
 4185W        W 5050  25.648  25.747  22.157
 4186W        W 5051  26.934  28.066  24.447
 4187W        W 5052  26.733  27.982  23.539
 4188W        W 5053  26.475  27.934  21.937
 4189W        W 5054  25.716  28.175  22.705
 4190W        W 5055  26.220  27.245  25.147
 4191W        W 5056  26.924  25.805  25.333
 4192W        W 5057  27.633  25.947  24.689
 4193W        W 5058  26.828  25.715  22.970
 4194W        W 5059  27.887  25.792  22.475
 4195W        W 5060  25.832  25.724  24.052
 4196W        W 5061  25.880  26.687  23.422
 4197W        W 5062  28.569  25.795  23.828
 4198W        W 5063  25.991  26.293  22.642
 4199W        W 5064  28.562  25.981  24.258
 4200W        W 5065  28.958  27.184  21.943
 4201W        W 5066  26.250  25.942  23.762
 4202W        W 5067  27.364  26.514  24.702
 4203W        W 5068  25.512  26.204  22.180
 4204W        W 5069  26.298  27.593  24.741
 4205W        W 5070  27.656  26.991  23.920
 4206W        W 5071  27.523  29.070  22.216
 4207W        W 5072  25.669  27.577  21.913
 4208W        W 5073  26.404  27.988  25.039
 4209W        W 5074  25.925  27.155  24.670
 4210W        W 5075  26.916  27.260  24.464
 4211W        W 5076  28.684  25.619  24.726
 4212W        W 5077  29.082  27.229  24.717
 4213W        W 5078  29.070  27.429  22.403
 4214W        W 5079  27.933  27.761  22.502
 4215W        W 5080  28.407  29.061  22.197
 4216W        W 5081  27.584  27.051  25.339
 4217W        W 5082  25.914  28.018  25.379
 4218W        W 5083  29.120  25.940  25.331
 4219W        W 5084  28.838  26.868  23.952
 4220W        W 5085  27.146  28.998  25.429
 4221W        W 5086  27.001  25.627  22.156
 4222W        W 5087  28.540  28.226  22.099
 4223W        W 5088  26.309  26.319  24.985
 4224W        W 5089  26.743  28.313  24.847
 4225W        W 5090  28.869  26.304  24.645
 4226W        W 5091  28.080  28.963  22.613
 4227W        W 5092  28.319  27.582  23.980
 4228W        W 5093  26.569  25.998  24.647
 4229W        W 5094  27.038  27.067  25.404
 4230W        W 5095  26.541  28.246  22.598
 4231W        W 5096  28.296  27.744  22.862
 4232W        W 5097  26.064  26.370  24.586
 4233W        W 5098  27.393  28.432  23.050
 4234W        W 5099  29.143  26.992  23.231
 4235W        W 5100  27.365  25.625  24.950
 4236W        W 5101  28.145  28.330  24.029
 4237W        W 5102  28.448  28.674  23.737
 4238W        W 5103  27.667  28.476  22.165
 4239W        W 5104  25.677  28.368  25.007
 4240W        W 5105  26.420  26.360  24.245
 4241W        W 5106  26.390  25.708  23.355
 4242W        W 5107  28.011  26.550  24.047
 4243W        W 5108  26.809  27.721  22.247
 4244W        W 5109  28.807  27.663  23.746
 4245W        W 5110  26.134  28.421  25.169
 4246W        W 5111  28.521  29.103  22.966
 4247W        W 5112  26.620  26.123  23.411
 4248W        W 5113  26.389  27.616  23.501
 4249W        W 5114  26.702  29.027  24.251
 4250W        W 5115  28.769  29.123  25.283
 4251W        W 5116  27.928  27.311  24.216
 4252W        W 5117  25.777  27.109  22.131
 4253W        W 5118  28.911  28.767  22.828
 4254W        W 5119  28.748  26.091  22.447
 4255W        W 5120  26.887  25.610  24.850
 4256W        W 5121  28.593  28.412  23.308
 4257W        W 5122  28.622  26.968  23.213
 4258W        W 5123  26.739  26.641  23.429
 4259W        W 5124  26.984  26.903  24.753
 4260W        W 5125  28.095  28.056  24.616
 4261W        W 5126  26.745  26.510  24.728
 4262W        W 5127  26.724  28.976  23.344
 4263W        W 5128  26.041  28.935  24.978
 4264W        W 5129  26.153  28.296  22.108
 4265W        W 5130  28.670  28.054  22.918
 4266W        W 5131  26.274  26.846  24.804
 4267W        W 5132  29.047  26.776  22.285
 4268W        W 5133  26.792  27.833  22.756
 4269W        W 5134  27.891  27.215  24.837
 4270W        W 5135  27.782  26.843  24.381
 4271W        W 5136  26.342  27.215  24.410
 4272W        W 5137  28.552  29.103  24.239
 4273W        W 5138  28.343  25.737  25.233
 4274W        W 5139  26.007  25.887  24.820
 4275W        W 5140  26.346  26.910  23.873
 4276W        W 5141  26.715  26.724  21.995
 4277W        W 5142  25.518  28.483  24.540
 4278W        W 5143  27.103  27.192  23.983
 4279W        W 5144  26.926  26.217  22.088
 4280W        W 5145  26.061  27.033  22.869
 4281W        W 5146  25.832  28.885  24.306
 4282W        W 5147  28.627  27.111  22.414
 4283W        W 5148  28.722  26.027  25.100
 4284W        W 5149  28.158  28.236  23.063
 4285W        W 5150  25.756  27.160  25.240
 4286W        W 5151  28.722  25.624  22.536
 4287W        W 5152  28.242  28.099  22.547
 4288W        W 5153  27.144  27.157  22.632
 4289W        W 5154  28.331  25.961  22.155
 4290W        W 5155  28.396  26.568  24.341
 4291W        W 5156  26.105  27.161  23.548
 4292W        W 5157  26.399  28.100  23.197
 4293W        W 5158  28.162  26.720  23.162
 4294W        W 5159  27.185  26.099  23.858
 4295W        W 5160  29.147  28.010  24.369
 4296W        W 5161  29.065  25.997  23.930
 4297W        W 5162  25.604  28.827  23.306
 4298W        W 5163  26.113  28.014  22.842
 4299W        W 5164  26.028  25.631  25.395
 4300W        W 5165  27.147  28.484  25.497
 4301W        W 5166  28.902  27.452  23.287
 4302W        W 5167  28.256  27.629  22.167
 4303W        W 5168  27.551  29.150  24.379
 4304W        W 5169  28.408  27.872  25.416
 4305W        W 5170  27.223  25.582  22.696
 4306W        W 5171  27.936  26.451  23.555
 4307W        W 5172  25.622  28.038  23.887
 4308W        W 5173  26.875  26.000  22.528
 4309W        W 5174  26.679  27.484  25.377
 4310W        W 5175  27.673  26.465  23.091
 4311W        W 5176  27.878  27.875  24.213
 4312W        W 5177  26.032  28.480  24.648
 4313W        W 5178  26.623  28.463  25.371
 4314W        W 5179  26.474  26.260  22.385
 4315W        W 5180  27.991  26.402  22.710
 4316W        W 5181  27.949  28.510  24.947
 4317W        W 5182  26.634  27.102  23.546
 4318W        W 5183  26.289  28.800  24.411
 4319W        W 5184  29.034  28.917  22.012
 4320W        W 5185  25.897  27.589  25.008
 4321W        W 5186  27.892  27.851  23.696
 4322W        W 5187  26.328  27.500  22.938
 4323W        W 5188  26.699  28.507  24.333
 4324W        W 5189  27.077  25.926  23.374
 4325W        W 5190  25.688  27.910  22.304
 4326W        W 5191  27.207  26.861  22.174
 4327W        W 5192  25.853  27.410  23.193
 4328W        W 5193  27.143  26.052  24.657
 4329W        W 5194  28.815  25.761  22.084
 4330W        W 5195  28.908  27.507  25.183
 4331W        W 5196  27.562  28.764  25.335
 4332W        W 5197  29.120  27.858  24.857
 4333W        W 5198  28.528  28.656  25.468
 4334W        W 5199  26.267  29.112  23.946
 4335W        W 5200  29.126  27.734  22.820
 4336W        W 5201  27.656  27.001  23.333
 4337W        W 5202  27.423  25.613  23.223
 4338W        W 5203  26.482  28.597  23.060
 4339W        W 5204  26.981  26.338  24.285
 4340W        W 5205  26.681  25.707  23.754
 4341W        W 5206  25.744  28.529  22.302
 4342W        W 5207  26.435  28.688  24.899
 4343W        W 5208  25.912  27.511  22.595
 4344W        W 5209  25.797  26.054  23.594
 4345W        W 5210  27.345  28.019  23.651
 4346W        W 5211  25.597  25.873  22.671
 4347W        W 5212  28.261  27.079  24.598
 4348W        W 5213  28.138  26.465  22.170
 4349W        W 5214  28.655  28.137  23.818
 4350W        W 5215  27.316  28.621  23.649
 4351W        W 5216  26.728  28.725  22.560
 4352W        W 5217  28.010  25.628  21.990
 4353W        W 5218  25.810  28.888  23.731
 4354W        W 5219  28.007  26.646  25.366
 4355W        W 5220  25.990  26.176  25.365
 4356W        W 5221  25.721  26.776  22.698
 4357W        W 5222  26.412  26.765  22.423
 4358W        W 5223  28.175  27.092  25.240
 4359W        W 5224  26.518  27.373  23.949
 4360W        W 5225  27.992  25.659  23.069
 4361W        W 5226  27.123  29.090  23.572
 4362W        W 5227  28.337  28.552  24.509
 4363W        W 5228  27.921  28.701  23.620
 4364W        W 5229  27.940  27.681  23.214
 4365W        W 5230  27.402  25.906  22.285
 4366W        W 5231  29.083  25.534  23.007
 4367W        W 5232  26.771  27.169  22.170
 4368W        W 5233  28.937  26.506  23.160
 4369W        W 5234  27.629  27.676  22.037
 4370W        W 5235  28.565  27.876  24.785
 4371W        W 5236  28.219  28.577  22.252
 4372W        W 5237  26.834  26.252  25.158
 4373W        W 5238  26.654  26.836  24.399
 4374W        W 5239  28.746  28.331  24.676
 4375W        W 5240  27.846  26.281  25.053
 4376W        W 5241  25.690  26.752  24.830
 4377W        W 5242  27.450  27.229  24.556
 4378W        W 5243  25.807  27.987  23.213
 4379W        W 5244  25.954  27.284  24.103
 4380W        W 5245  28.271  27.570  24.453
 4381W        W 5246  28.043  28.950  25.264
 4382W        W 5247  27.939  26.689  24.817
 4383W        W 5248  28.216  28.743  23.222
 4384W        W 5249  27.218  28.463  24.545
 4385W        W 5250  26.703  28.818  23.814
 4386W        W 5251  28.508  27.989  24.233
 4387W        W 5252  27.558  28.061  25.370
 4388W        W 5253  26.163  28.014  23.709
 4389W        W 5254  28.509  27.773  23.354
 4390W        W 5255  28.150  28.839  24.105
 4391W        W 5256  26.128  28.568  23.975
 4392W        W 5257  27.149  26.620  25.185
 4393W        W 5258  27.600  28.786  22.696
 4394W        W 5259  26.908  28.041  25.334
 4395W        W 5260  27.034  28.279  22.711
 4396W        W 5261  26.255  27.019  21.970
 4397W        W 5262  25.594  29.105  28.869
 4398W        W 5263  25.970  27.998  28.392
 4399W        W 5264  28.675  27.728  26.162
 4400W        W 5265  28.805  28.813  28.189
 4401W        W 5266  26.723  28.804  25.715
 4402W        W 5267  26.806  26.956  26.698
 4403W        W 5268  26.321  26.804  26.862
 4404W        W 5269  27.312  27.619  26.296
 4405W        W 5270  26.987  28.711  28.651
 4406W        W 5271  25.636  26.272  28.614
 4407W        W 5272  26.398  25.552  28.416
 4408W        W 5273  28.092  25.940  27.303
 4409W        W 5274  27.741  26.811  25.873
 4410W        W 5275  28.311  26.245  28.964
 4411W        W 5276  25.677  26.037  28.089
 4412W        W 5277  25.776  28.656  29.110
 4413W        W 5278  27.298  28.046  25.842
 4414W        W 5279  25.730  26.829  27.535
 4415W        W 5280  26.623  26.720  28.772
 4416W        W 5281  29.082  26.579  27.271
 4417W        W 5282  28.846  27.622  28.130
 4418W        W 5283  27.154  26.955  27.157
 4419W        W 5284  27.700  28.294  27.526
 4420W        W 5285  26.200  27.728  27.758
 4421W        W 5286  25.559  27.256  27.329
 4422W        W 5287  26.595  27.228  28.521
 4423W        W 5288  28.866  27.011  28.775
 4424W        W 5289  26.482  28.455  27.220
 4425W        W 5290  27.603  28.144  28.354
 4426W        W 5291  26.823  26.784  27.579
 4427W        W 5292  27.115  27.568  27.222
 4428W        W 5293  28.112  28.341  29.070
 4429W        W 5294  27.191  27.661  29.080
 4430W        W 5295  27.172  27.377  28.558
 4431W        W 5296  25.581  26.768  29.080
 4432W        W 5297  28.413  28.303  28.679
 4433W        W 5298  25.994  25.885  26.677
 4434W        W 5299  26.521  28.143  27.676
 4435W        W 5300  28.984  27.926  26.966
 4436W        W 5301  28.397  26.326  27.533
 4437W        W 5302  28.682  26.279  25.628
 4438W        W 5303  29.147  27.080  27.934
 4439W        W 5304  27.114  28.787  27.687
 4440W        W 5305  28.888  28.253  26.125
 4441W        W 5306  26.017  29.039  25.879
 4442W        W 5307  26.410  29.085  26.555
 4443W        W 5308  26.207  25.839  27.981
 4444W        W 5309  28.830  26.857  28.256
 4445W        W 5310  28.235  27.279  26.715
 4446W        W 5311  28.201  26.967  25.742
 4447W        W 5312  27.409  28.111  27.882
 4448W        W 5313  27.215  26.441  27.081
 4449W        W 5314  27.815  28.528  28.075
 4450W        W 5315  28.686  27.319  26.497
 4451W        W 5316  27.588  25.977  26.513
 4452W        W 5317  26.245  28.671  26.196
 4453W        W 5318  25.616  26.170  26.795
 4454W        W 5319  28.402  26.777  27.269
 4455W        W 5320  25.860  28.394  27.184
 4456W        W 5321  27.201  28.744  26.054
 4457W        W 5322  28.593  26.770  25.518
 4458W        W 5323  25.616  28.528  27.682
 4459W        W 5324  26.407  28.100  28.162
 4460W        W 5325  26.780  27.460  26.781
 4461W        W 5326  26.802  25.865  27.874
 4462W        W 5327  29.031  25.627  27.171
 4463W        W 5328  26.250  27.499  25.639
 4464W        W 5329  25.905  26.532  25.818
 4465W        W 5330  25.967  28.488  26.612
 4466W        W 5331  27.098  27.971  26.860
 4467W        W 5332  28.430  28.830  28.574
 4468W        W 5333  27.356  26.472  26.258
 4469W        W 5334  28.739  28.870  27.030
 4470W        W 5335  28.416  26.723  28.628
 4471W        W 5336  29.129  28.379  26.762
 4472W        W 5337  27.756  27.671  28.246
 4473W        W 5338  25.522  27.222  26.452
 4474W        W 5339  26.633  27.637  28.025
 4475W        W 5340  27.837  26.901  26.403
 4476W        W 5341  27.714  27.391  26.507
 4477W        W 5342  26.057  26.811  27.981
 4478W        W 5343  26.042  26.687  28.903
 4479W        W 5344  25.932  25.604  27.062
 4480W        W 5345  27.700  25.951  27.623
 4481W        W 5346  27.348  26.136  28.786
 4482W        W 5347  27.703  26.285  25.964
 4483W        W 5348  28.886  28.678  28.718
 4484W        W 5349  27.853  25.759  28.757
 4485W        W 5350  28.872  28.060  28.879
 4486W        W 5351  28.302  26.227  28.475
 4487W        W 5352  28.102  26.165  26.745
 4488W        W 5353  28.495  27.299  29.149
 4489W        W 5354  26.235  28.875  27.135
 4490W        W 5355  26.893  26.592  26.121
 4491W        W 5356  26.462  25.876  28.785
 4492W        W 5357  28.514  26.360  26.466
 4493W        W 5358  28.881  26.842  26.411
 4494W        W 5359  26.624  29.059  28.882
 4495W        W 5360  26.550  25.595  26.117
 4496W        W 5361  28.871  26.129  27.152
 4497W        W 5362  29.021  28.378  25.597
 4498W        W 5363  25.928  27.581  27.299
 4499W        W 5364  27.845  26.168  25.529
 4500W        W 5365  28.979  28.500  27.249
 4501W        W 5366  29.018  25.694  27.999
 4502W        W 5367  27.463  26.906  28.553
 4503W        W 5368  27.556  28.245  26.256
 4504W        W 5369  27.956  27.539  28.996
 4505W        W 5370  27.630  25.516  27.305
 4506W        W 5371  26.242  26.419  27.368
 4507W        W 5372  25.796  27.619  28.142
 4508W        W 5373  27.655  28.812  26.848
 4509W        W 5374  28.849  26.409  27.720
 4510W        W 5375  27.486  28.756  28.487
 4511W        W 5376  28.829  27.815  25.692
 4512W        W 5377  27.264  27.298  26.753
 4513W        W 5378  29.116  25.809  28.494
 4514W        W 5379  27.265  27.644  28.088
 4515W        W 5380  27.482  26.530  27.533
 4516W        W 5381  28.334  26.828  26.371
 4517W        W 5382  28.621  26.561  26.013
 4518W        W 5383  28.430  28.601  26.402
 4519W        W 5384  28.264  28.204  27.198
 4520W        W 5385  28.160  27.283  26.176
 4521W        W 5386  27.593  27.493  27.162
 4522W        W 5387  28.474  27.281  27.229
 4523W        W 5388  25.849  26.296  27.653
 4524W        W 5389  28.627  27.348  28.480
 4525W        W 5390  28.978  28.966  27.626
 4526W        W 5391  26.908  28.410  27.028
 4527W        W 5392  27.915  28.943  28.352
 4528W        W 5393  27.909  26.273  28.116
 4529W        W 5394  27.116  28.981  28.177
 4530W        W 5395  28.813  25.935  26.643
 4531W        W 5396  28.604  27.254  27.944
 4532W        W 5397  25.587  26.575  27.982
 4533W        W 5398  28.447  26.370  27.000
 4534W        W 5399  28.858  26.521  28.777
 4535W        W 5400  27.743  28.220  26.995
 4536W        W 5401  26.999  28.811  26.608
 4537W        W 5402  26.114  25.991  25.866
 4538W        W 5403  27.218  25.645  27.676
 4539W        W 5404  26.246  28.765  25.524
 4540W        W 5405  26.620  27.231  26.275
 4541W        W 5406  27.274  27.860  28.588
 4542W        W 5407  27.104  26.218  26.578
 4543W        W 5408  28.460  25.815  27.006
 4544W        W 5409  28.180  29.097  27.334
 4545W        W 5410  27.592  28.745  27.674
 4546W        W 5411  26.988  27.782  27.635
 4547W        W 5412  28.758  28.505  27.761
 4548W        W 5413  26.452  26.008  26.530
 4549W        W 5414  26.974  28.305  27.490
 4550W        W 5415  26.457  26.236  25.555
 4551W        W 5416  27.258  26.845  27.949
 4552W        W 5417  28.106  25.711  27.819
 4553W        W 5418  25.526  27.554  27.704
 4554W        W 5419  27.230  27.372  25.862
 4555W        W 5420  26.498  25.687  25.632
 4556W        W 5421  27.236  26.768  26.683
 4557W        W 5422  28.206  25.744  28.382
 4558W        W 5423  26.794  27.756  28.491
 4559W        W 5424  27.598  27.538  28.708
 4560W        W 5425  28.215  27.568  28.601
 4561W        W 5426  27.499  25.708  29.106
 4562W        W 5427  26.721  26.324  27.499
 4563W        W 5428  26.147  26.280  26.897
 4564W        W 5429  25.933  28.992  26.573
 4565W        W 5430  27.265  28.322  28.698
 4566W        W 5431  26.300  27.807  26.057
 4567W        W 5432  27.980  27.192  27.278
 4568W        W 5433  28.260  26.991  27.677
 4569W        W 5434  27.465  27.665  27.611
 4570W        W 5435  27.935  28.039  25.743
 4571W        W 5436  27.607  26.060  27.071
 4572W        W 5437  29.086  26.338  26.339
 4573W        W 5438  25.580  28.927  28.370
 4574W        W 5439  25.997  28.153  27.902
 4575W        W 5440  25.564  28.999  26.134
 4576W        W 5441  27.463  26.269  27.940
 4577W        W 5442  26.826  28.292  25.789
 4578W        W 5443  28.731  28.674  25.975
 4579W        W 5444  27.706  27.327  25.989
 4580W        W 5445  26.549  26.518  26.506
 4581W        W 5446  27.381  26.428  25.558
 4582W        W 5447  27.965  27.993  28.736
 4583W        W 5448  28.318  25.899  26.353
 4584W        W 5449  25.648  25.747  25.801
 4585W        W 5450  26.934  28.066  28.091
 4586W        W 5451  26.733  27.982  27.183
 4587W        W 5452  26.475  27.934  25.581
 4588W        W 5453  25.716  28.175  26.349
 4589W        W 5454  26.220  27.245  28.791
 4590W        W 5455  26.924  25.805  28.977
 4591W        W 5456  27.633  25.947  28.333
 4592W        W 5457  26.828  25.715  26.614
 4593W        W 5458  27.887  25.792  26.119
 4594W        W 5459  25.832  25.724  27.696
 4595W        W 5460  25.880  26.687  27.066
 4596W        W 5461  28.569  25.795  27.472
 4597W        W 5462  25.991  26.293  26.286
 4598W        W 5463  28.562  25.981  27.902
 4599W        W 5464  28.958  27.184  25.587
 4600W        W 5465  26.250  25.942  27.406
 4601W        W 5466  27.364  26.514  28.346
 4602W        W 5467  25.512  26.204  25.824
 4603W        W 5468  26.298  27.593  28.385
 4604W        W 5469  27.656  26.991  27.564
 4605W        W 5470  27.523  29.070  25.860
 4606W        W 5471  25.669  27.577  25.557
 4607W        W 5472  26.404  27.988  28.683
 4608W        W 5473  25.925  27.155  28.314
 4609W        W 5474  26.916  27.260  28.108
 4610W        W 5475  28.684  25.619  28.370
 4611W        W 5476  29.082  27.229  28.361
 4612W        W 5477  29.070  27.429  26.047
 4613W        W 5478  27.933  27.761  26.146
 4614W        W 5479  28.407  29.061  25.841
 4615W        W 5480  27.584  27.051  28.983
 4616W        W 5481  25.914  28.018  29.023
 4617W        W 5482  29.120  25.940  28.975
 4618W        W 5483  28.838  26.868  27.596
 4619W        W 5484  27.146  28.998  29.073
 4620W        W 5485  27.001  25.627  25.800
 4621W        W 5486  28.540  28.226  25.743
 4622W        W 5487  26.309  26.319  28.629
 4623W        W 5488  26.743  28.313  28.491
 4624W        W 5489  28.869  26.304  28.289
 4625W        W 5490  28.080  28.963  26.257
 4626W        W 5491  28.319  27.582  27.624
 4627W        W 5492  26.569  25.998  28.291
 4628W        W 5493  27.038  27.067  29.048
 4629W        W 5494  26.541  28.246  26.242
 4630W        W 5495  28.296  27.744  26.506
 4631W        W 5496  26.064  26.370  28.230
 4632W        W 5497  27.393  28.432  26.694
 4633W        W 5498  29.143  26.992  26.875
 4634W        W 5499  27.365  25.625  28.594
 4635W        W 5500  28.145  28.330  27.673
 4636W        W 5501  28.448  28.674  27.381
 4637W        W 5502  27.667  28.476  25.809
 4638W        W 5503  25.677  28.368  28.651
 4639W        W 5504  26.420  26.360  27.889
 4640W        W 5505  26.390  25.708  26.999
 4641W        W 5506  28.011  26.550  27.691
 4642W        W 5507  26.809  27.721  25.891
 4643W        W 5508  28.807  27.663  27.390
 4644W        W 5509  26.134  28.421  28.813
 4645W        W 5510  28.521  29.103  26.610
 4646W        W 5511  26.620  26.123  27.055
 4647W        W 5512  26.389  27.616  27.145
 4648W        W 5513  26.702  29.027  27.895
 4649W        W 5514  28.769  29.123  28.927
 4650W        W 5515  27.928  27.311  27.860
 4651W        W 5516  25.777  27.109  25.775
 4652W        W 5517  28.911  28.767  26.472
 4653W        W 5518  28.748  26.091  26.091
 4654W        W 5519  26.887  25.610  28.494
 4655W        W 5520  28.593  28.412  26.952
 4656W        W 5521  28.622  26.968  26.857
 4657W        W 5522  26.739  26.641  27.073
 4658W        W 5523  26.984  26.903  28.397
 4659W        W 5524  28.095  28.056  28.260
 4660W        W 5525  26.745  26.510  28.372
 4661W        W 5526  26.724  28.976  26.988
 4662W        W 5527  26.041  28.935  28.622
 4663W        W 5528  26.153  28.296  25.752
 4664W        W 5529  28.670  28.054  26.562
 4665W        W 5530  26.274  26.846  28.448
 4666W        W 5531  29.047  26.776  25.929
 4667W        W 5532  26.792  27.833  26.400
 4668W        W 5533  27.891  27.215  28.481
 4669W        W 5534  27.782  26.843  28.025
 4670W        W 5535  26.342  27.215  28.054
 4671W        W 5536  28.552  29.103  27.883
 4672W        W 5537  28.343  25.737  28.877
 4673W        W 5538  26.007  25.887  28.464
 4674W        W 5539  26.346  26.910  27.517
 4675W        W 5540  26.715  26.724  25.639
 4676W        W 5541  25.518  28.483  28.184
 4677W        W 5542  27.103  27.192  27.627
 4678W        W 5543  26.926  26.217  25.732
 4679W        W 5544  26.061  27.033  26.513
 4680W        W 5545  25.832  28.885  27.950
 4681W        W 5546  28.627  27.111  26.058
 4682W        W 5547  28.722  26.027  28.744
 4683W        W 5548  28.158  28.236  26.707
 4684W        W 5549  25.756  27.160  28.884
 4685W        W 5550  28.722  25.624  26.180
 4686W        W 5551  28.242  28.099  26.191
 4687W        W 5552  27.144  27.157  26.276
 4688W        W 5553  28.331  25.961  25.799
 4689W        W 5554  28.396  26.568  27.985
 4690W        W 5555  26.105  27.161  27.192
 4691W        W 5556  26.399  28.100  26.841
 4692W        W 5557  28.162  26.720  26.806
 4693W        W 5558  27.185  26.099  27.502
 4694W        W 5559  29.147  28.010  28.013
 4695W        W 5560  29.065  25.997  27.574
 4696W        W 5561  25.604  28.827  26.950
 4697W        W 5562  26.113  28.014  26.486
 4698W        W 5563  26.028  25.631  29.039
 4699W        W 5564  27.147  28.484  29.141
 4700W        W 5565  28.902  27.452  26.931
 4701W        W 5566  28.256  27.629  25.811
 4702W        W 5567  27.551  29.150  28.023
 4703W        W 5568  28.408  27.872  29.060
 4704W        W 5569  27.223  25.582  26.340
 4705W        W 5570  27.936  26.451  27.199
 4706W        W 5571  25.622  28.038  27.531
 4707W        W 5572  26.875  26.000  26.172
 4708W        W 5573  26.679  27.484  29.021
 4709W        W 5574  27.673  26.465  26.735
 4710W        W 5575  27.878  27.875  27.857
 4711W        W 5576  26.032  28.480  28.292
 4712W        W 5577  26.623  28.463  29.015
 4713W        W 5578  26.474  26.260  26.029
 4714W        W 5579  27.991  26.402  26.354
 4715W        W 5580  27.949  28.510  28.591
 4716W        W 5581  26.634  27.102  27.190
 4717W        W 5582  26.289  28.800  28.055
 4718W        W 5583  29.034  28.917  25.656
 4719W        W 5584  25.897  27.589  28.652
 4720W        W 5585  27.892  27.851  27.340
 4721W        W 5586  26.328  27.500  26.582
 4722W        W 5587  26.699  28.507  27.977
 4723W        W 5588  27.077  25.926  27.018
 4724W        W 5589  25.688  27.910  25.948
 4725W        W 5590  27.207  26.861  25.818
 4726W        W 5591  25.853  27.410  26.837
 4727W        W 5592  27.143  26.052  28.301
 4728W        W 5593  28.815  25.761  25.728
 4729W        W 5594  28.908  27.507  28.827
 4730W        W 5595  27.562  28.764  28.979
 4731W        W 5596  29.120  27.858  28.501
 4732W        W 5597  28.528  28.656  29.112
 4733W        W 5598  26.267  29.112  27.590
 4734W        W 5599  29.126  27.734  26.464
 4735W        W 5600  27.656  27.001  26.977
 4736W        W 5601  27.423  25.613  26.867
 4737W        W 5602  26.482  28.597  26.704
 4738W        W 5603  26.981  26.338  27.929
 4739W        W 5604  26.681  25.707  27.398
 4740W        W 5605  25.744  28.529  25.946
 4741W        W 5606  27.560  27.893  26.664
 4742W        W 5607  26.435  28.688  28.543
 4743W        W 5608  25.912  27.511  26.239
 4744W        W 5609  25.797  26.054  27.238
 4745W        W 5610  27.345  28.019  27.295
 4746W        W 5611  25.597  25.873  26.315
 4747W        W 5612  28.261  27.079  28.242
 4748W        W 5613  28.138  26.465  25.814
 4749W        W 5614  28.655  28.137  27.462
 4750W        W 5615  27.316  28.621  27.293
 4751W        W 5616  26.728  28.725  26.204
 4752W        W 5617  28.010  25.628  25.634
 4753W        W 5618  25.810  28.888  27.375
 4754W        W 5619  28.007  26.646  29.010
 4755W        W 5620  25.990  26.176  29.009
 4756W        W 5621  25.721  26.776  26.342
 4757W        W 5622  26.412  26.765  26.067
 4758W        W 5623  28.175  27.092  28.884
 4759W        W 5624  26.518  27.373  27.593
 4760W        W 5625  27.992  25.659  26.713
 4761W        W 5626  27.123  29.090  27.216
 4762W        W 5627  28.337  28.552  28.153
 4763W        W 5628  27.921  28.701  27.264
 4764W        W 5629  27.940  27.681  26.858
 4765W        W 5630  27.402  25.906  25.929
 4766W        W 5631  29.083  25.534  26.651
 4767W        W 5632  26.771  27.169  25.814
 4768W        W 5633  28.937  26.506  26.804
 4769W        W 5634  27.629  27.676  25.681
 4770W        W 5635  28.565  27.876  28.429
 4771W        W 5636  28.219  28.577  25.896
 4772W        W 5637  26.834  26.252  28.802
 4773W        W 5638  26.654  26.836  28.043
 4774W        W 5639  28.746  28.331  28.320
 4775W        W 5640  27.846  26.281  28.697
 4776W        W 5641  25.690  26.752  28.474
 4777W        W 5642  27.450  27.229  28.200
 4778W        W 5643  25.807  27.987  26.857
 4779W        W 5644  25.954  27.284  27.747
 4780W        W 5645  28.271  27.570  28.097
 4781W        W 5646  28.043  28.950  28.908
 4782W        W 5647  27.939  26.689  28.461
 4783W        W 5648  28.216  28.743  26.866
 4784W        W 5649  27.218  28.463  28.189
 4785W        W 5650  26.703  28.818  27.458
 4786W        W 5651  28.508  27.989  27.877
 4787W        W 5652  27.558  28.061  29.014
 4788W        W 5653  26.163  28.014  27.353
 4789W        W 5654  28.509  27.773  26.998
 4790W        W 5655  28.150  28.839  27.749
 4791W        W 5656  26.128  28.568  27.619
 4792W        W 5657  27.149  26.620  28.829
 4793W        W 5658  27.600  28.786  26.340
 4794W        W 5659  26.908  28.041  28.978
 4795W        W 5660  27.034  28.279  26.355
 4796W        W 5661  26.255  27.019  25.614
  29.00000  29.00000  29.00000
