; referenced supporting information https://www.rsc.org/suppdata/d3/mh/d3mh00088e/d3mh00088e1.pdf

; ester product - parametrized based on an AA simulation
[ moleculetype ]
DHBE 1
[ atoms ]
1 TC5  1 DHBA CCR1 1 0.0 70.0 ; COOH
2 TC5  1 DHBA CCR2 2 0.0 42.0 ; COH1
3 TC5  1 DHBA CCR3 3 0.0 42.0 ; COH2
4 SN4a 1 DHBA COOH 4 0.0 0.0
5 TN6  1 DHBA COH1 5 0.0 0.0
6 TN6  1 DHBA COH2 6 0.0 0.0
7 TC3  1 DHBA CCB1 7 0.0
8 TC2  1 DHBA CCA  8 0.0
9 SX2  1 DHBA CCB2 9 0.0

[ bonds ]
4 7 1 0.2549 18000
7 8 1 0.2541 18000
8 9 1 0.2590 18000

[ constraints ]
1 2 1 0.2733
2 3 1 0.2727
3 1 1 0.2744

[ virtual_sites3 ]
4 1 2 3 3 136.486 0.2458
5 2 3 1 3 134.525 0.2108
6 3 1 2 3 131.012 0.2176

[ angles ]
1 4 7 2 138 75
4 7 8 2 133 75
7 8 9 2 146 75

[exclusions]
1 2 3 4 5 6
2 3 4 5 6
3 4 5 6
4 5 6 7
5 6

; 3,5-dihydroxybenzoic acid - based on the ester parameters
[ moleculetype ]
DHBA 1
[ atoms ]
1 TC5  1 DHBA CCR1 1 0.0 70.0 ; COOH
2 TC5  1 DHBA CCR2 2 0.0 42.0 ; COH1
3 TC5  1 DHBA CCR3 3 0.0 42.0 ; COH2
4 SP2  1 DHBA COOH 4 0.0 0.0
5 TN6  1 DHBA COH1 5 0.0 0.0
6 TN6  1 DHBA COH2 6 0.0 0.0

[ bonds ]
2 4 5
3 6 5

[ constraints ]
1 2 1 0.2733
2 3 1 0.2727
3 1 1 0.2744

[ virtual_sites3 ]
4 1 2 3 3 136.486 0.2458
5 2 3 1 3 134.525 0.2108
6 3 1 2 3 131.012 0.2176

[ exclusions ]
1 2 3 4 5 6
2 3 4 5 6
3 4 5 6
4 5 6
5 6

; 1,6-dibromohexane - adjusted based on ester parameters
[ moleculetype ]
DBH 1
[ atoms ]
1 SX2 1 DBrH CCB1 1 0.0
2 TC2 1 DBrH CCA  2 0.0
3 SX2 1 DBrH CCB2 3 0.0

[ bonds ]
1 2 1 0.2590 18000
2 3 1 0.2590 18000

[ angles ]
1 2 3 2 146 75


; DMF - supporting information, but bond strength scaled down for stability
[ moleculetype ]
DMF 1
[ atoms ]
1 TN2a 1 DMF CO  1 0.0
2 SN1a 1 DMF NCC 1 0.0

[ bonds ]
1 2 1 0.25 18000
